 Entering Gaussian System, Link 0=/apps/gaussian/g16c01/g16/g16
 Initial command:
 /apps/gaussian/g16c01/g16/l1.exe "/jobfs/11455996.gadi-pbs/Gau-417865.inp" -scrdir="/jobfs/11455996.gadi-pbs/"
 Entering Link 1 = /apps/gaussian/g16c01/g16/l1.exe PID=    417866.
  
 Copyright (c) 1988-2019, Gaussian, Inc.  All Rights Reserved.
  
 This is part of the Gaussian(R) 16 program.  It is based on
 the Gaussian(R) 09 system (copyright 2009, Gaussian, Inc.),
 the Gaussian(R) 03 system (copyright 2003, Gaussian, Inc.),
 the Gaussian(R) 98 system (copyright 1998, Gaussian, Inc.),
 the Gaussian(R) 94 system (copyright 1995, Gaussian, Inc.),
 the Gaussian 92(TM) system (copyright 1992, Gaussian, Inc.),
 the Gaussian 90(TM) system (copyright 1990, Gaussian, Inc.),
 the Gaussian 88(TM) system (copyright 1988, Gaussian, Inc.),
 the Gaussian 86(TM) system (copyright 1986, Carnegie Mellon
 University), and the Gaussian 82(TM) system (copyright 1983,
 Carnegie Mellon University). Gaussian is a federally registered
 trademark of Gaussian, Inc.
  
 This software contains proprietary and confidential information,
 including trade secrets, belonging to Gaussian, Inc.
  
 This software is provided under written license and may be
 used, copied, transmitted, or stored only in accord with that
 written license.
  
 The following legend is applicable only to US Government
 contracts under FAR:
  
                    RESTRICTED RIGHTS LEGEND
  
 Use, reproduction and disclosure by the US Government is
 subject to restrictions as set forth in subparagraphs (a)
 and (c) of the Commercial Computer Software - Restricted
 Rights clause in FAR 52.227-19.
  
 Gaussian, Inc.
 340 Quinnipiac St., Bldg. 40, Wallingford CT 06492
  
  
 ---------------------------------------------------------------
 Warning -- This program may not be used in any manner that
 competes with the business of Gaussian, Inc. or will provide
 assistance to any competitor of Gaussian, Inc.  The licensee
 of this program is prohibited from giving any competitor of
 Gaussian, Inc. access to this program.  By using this program,
 the user acknowledges that Gaussian, Inc. is engaged in the
 business of creating and licensing software in the field of
 computational chemistry and represents and warrants to the
 licensee that it is not a competitor of Gaussian, Inc. and that
 it will not use this program in any manner prohibited above.
 ---------------------------------------------------------------
  

 Cite this work as:
 Gaussian 16, Revision C.01,
 M. J. Frisch, G. W. Trucks, H. B. Schlegel, G. E. Scuseria, 
 M. A. Robb, J. R. Cheeseman, G. Scalmani, V. Barone, 
 G. A. Petersson, H. Nakatsuji, X. Li, M. Caricato, A. V. Marenich, 
 J. Bloino, B. G. Janesko, R. Gomperts, B. Mennucci, H. P. Hratchian, 
 J. V. Ortiz, A. F. Izmaylov, J. L. Sonnenberg, D. Williams-Young, 
 F. Ding, F. Lipparini, F. Egidi, J. Goings, B. Peng, A. Petrone, 
 T. Henderson, D. Ranasinghe, V. G. Zakrzewski, J. Gao, N. Rega, 
 G. Zheng, W. Liang, M. Hada, M. Ehara, K. Toyota, R. Fukuda, 
 J. Hasegawa, M. Ishida, T. Nakajima, Y. Honda, O. Kitao, H. Nakai, 
 T. Vreven, K. Throssell, J. A. Montgomery, Jr., J. E. Peralta, 
 F. Ogliaro, M. J. Bearpark, J. J. Heyd, E. N. Brothers, K. N. Kudin, 
 V. N. Staroverov, T. A. Keith, R. Kobayashi, J. Normand, 
 K. Raghavachari, A. P. Rendell, J. C. Burant, S. S. Iyengar, 
 J. Tomasi, M. Cossi, J. M. Millam, M. Klene, C. Adamo, R. Cammi, 
 J. W. Ochterski, R. L. Martin, K. Morokuma, O. Farkas, 
 J. B. Foresman, and D. J. Fox, Gaussian, Inc., Wallingford CT, 2019.
 
 ******************************************
 Gaussian 16:  ES64L-G16RevC.01  3-Jul-2019
                18-Sep-2020 
 ******************************************
 %NprocShared=32
 Will use up to   32 processors via shared memory.
 %Mem=1194000MB
 %chk=CP21_carboxy.DSDPBEP86_AUG-cc-PVTZ.chk
 ----------------------------------------------------------------------
 # DSDPBEP86/AUG-cc-PVTZ SCF=Tight INT(grid=ultrafine) MaxDisk=1400000M
 B
 ----------------------------------------------------------------------
 1/38=1,172=1/1;
 2/12=2,17=6,18=5,40=1/2;
 3/5=16,6=1,7=10,11=9,25=1,30=1,74=-77,75=-5/1,2,3;
 4//1;
 5/5=2,32=2,38=5/2;
 8/10=1/1;
 9/16=-3/6;
 6/7=2,8=2,9=2,10=2/1;
 99/5=1,9=1/99;
 ----------------------------------
 CP21_carboxy.DSDPBEP86_AUG-cc-PVTZ
 ----------------------------------
 Symbolic Z-matrix:
 Charge = -1 Multiplicity = 1
 C                    -6.21115   1.26559   0.27476 
 N                    -5.00891   0.63773   0.11862 
 C                    -3.74      1.22297   0.10461 
 O                    -3.53885   2.4246    0.23357 
 N                    -2.75807   0.31421  -0.06899 
 C                    -1.37589   0.73734  -0.10732 
 C                    -0.47629  -0.46565  -0.3589 
 C                     0.99503  -0.06686  -0.40357 
 C                    -6.37499   2.65776   0.4585 
 C                    -7.64164   3.18738   0.60845 
 C                    -8.75961   2.35075   0.58078 
 C                    -8.61909   0.96904   0.39685 
 C                    -7.36074   0.43502   0.24802 
 H                    -5.06034  -0.39646  -0.00049 
 H                    -2.96481  -0.69283  -0.16435 
 H                    -1.10499   1.22602   0.83695 
 H                    -1.23828   1.4897   -0.89312 
 H                    -0.77337  -0.94424  -1.29652 
 H                    -0.64904  -1.21263   0.42113 
 H                     1.18325   0.66191  -1.19736 
 H                     1.63724  -0.9311   -0.58716 
 H                     1.31042   0.38703   0.54039 
 H                    -5.50284   3.29216   0.48582 
 C                    -10.78335   3.42211  -1.07526 
 H                    -9.49733   0.33377   0.38513 
 H                    -7.21844  -0.63257   0.1136 
 F                    -10.77974   2.31323  -1.80596 
 F                    -11.99695   3.96178  -1.12509 
 F                    -9.91425   4.28015  -1.59779 
 S                    -10.34686   3.0428    0.69967 
 O                    -10.3009   4.34987   1.33075 
 O                    -11.32372   2.04262   1.09161 
 H                    -7.7744    4.25289   0.75907 
 O                    -5.3652   -2.07141  -0.16972 
 O                    -3.16889  -2.45572  -0.34074 
 C                    -4.36396  -2.82188  -0.30786 
 C                    -4.66594  -4.32062  -0.44479 
 C                    -3.4325   -5.19336  -0.62881 
 H                    -5.36051  -4.43288  -1.28302 
 H                    -5.23044  -4.61552   0.44538 
 H                    -2.88022  -4.89851  -1.52263 
 H                    -3.702    -6.25001  -0.71957 
 H                    -2.75001  -5.08053   0.21507 
 
                          Input orientation:                          
 ---------------------------------------------------------------------
 Center     Atomic      Atomic             Coordinates (Angstroms)
 Number     Number       Type             X           Y           Z
 ---------------------------------------------------------------------
      1          6           0       -6.211151    1.265592    0.274763
      2          7           0       -5.008906    0.637733    0.118621
      3          6           0       -3.740000    1.222973    0.104614
      4          8           0       -3.538851    2.424597    0.233571
      5          7           0       -2.758066    0.314211   -0.068989
      6          6           0       -1.375886    0.737344   -0.107321
      7          6           0       -0.476292   -0.465645   -0.358903
      8          6           0        0.995030   -0.066857   -0.403565
      9          6           0       -6.374987    2.657761    0.458496
     10          6           0       -7.641643    3.187376    0.608452
     11          6           0       -8.759615    2.350751    0.580777
     12          6           0       -8.619086    0.969043    0.396848
     13          6           0       -7.360740    0.435017    0.248023
     14          1           0       -5.060343   -0.396463   -0.000489
     15          1           0       -2.964814   -0.692829   -0.164352
     16          1           0       -1.104988    1.226018    0.836950
     17          1           0       -1.238276    1.489703   -0.893122
     18          1           0       -0.773371   -0.944242   -1.296518
     19          1           0       -0.649036   -1.212635    0.421134
     20          1           0        1.183247    0.661912   -1.197356
     21          1           0        1.637244   -0.931100   -0.587163
     22          1           0        1.310419    0.387031    0.540395
     23          1           0       -5.502836    3.292155    0.485821
     24          6           0      -10.783350    3.422111   -1.075263
     25          1           0       -9.497331    0.333772    0.385127
     26          1           0       -7.218442   -0.632571    0.113599
     27          9           0      -10.779743    2.313227   -1.805965
     28          9           0      -11.996954    3.961779   -1.125092
     29          9           0       -9.914248    4.280146   -1.597785
     30         16           0      -10.346862    3.042797    0.699673
     31          8           0      -10.300904    4.349866    1.330748
     32          8           0      -11.323718    2.042617    1.091611
     33          1           0       -7.774400    4.252892    0.759070
     34          8           0       -5.365199   -2.071414   -0.169716
     35          8           0       -3.168885   -2.455719   -0.340743
     36          6           0       -4.363963   -2.821875   -0.307856
     37          6           0       -4.665936   -4.320617   -0.444788
     38          6           0       -3.432499   -5.193361   -0.628806
     39          1           0       -5.360507   -4.432884   -1.283017
     40          1           0       -5.230443   -4.615521    0.445378
     41          1           0       -2.880219   -4.898508   -1.522627
     42          1           0       -3.702004   -6.250011   -0.719570
     43          1           0       -2.750011   -5.080530    0.215065
 ---------------------------------------------------------------------
                    Distance matrix (angstroms):
                    1          2          3          4          5
     1  C    0.000000
     2  N    1.365277   0.000000
     3  C    2.477369   1.397435   0.000000
     4  O    2.913105   2.316713   1.225150   0.000000
     5  N    3.598206   2.281697   1.349140   2.270439   0.000000
     6  C    4.879018   3.641401   2.422764   2.764316   1.446005
     7  C    6.023896   4.689356   3.703791   4.252504   2.428728
     8  C    7.359660   6.067650   4.933803   5.212424   3.787200
     9  C    1.413766   2.462155   3.021094   2.854580   4.341956
    10  C    2.418866   3.697556   4.397221   4.189902   5.706429
    11  C    2.786733   4.149198   5.166735   5.232818   6.370893
    12  C    2.429196   3.636011   4.894422   5.287162   5.915857
    13  C    1.418493   2.364099   3.708261   4.308767   4.615159
    14  H    2.040233   1.042302   2.092110   3.213736   2.410442
    15  H    3.816666   2.455357   2.084119   3.194715   1.032458
    16  H    5.137171   4.012811   2.734888   2.779271   2.093987
    17  H    5.113088   3.995889   2.706519   2.726923   2.090631
    18  H    6.076326   4.737617   3.932032   4.619321   2.651329
    19  H    6.090990   4.745928   3.947965   4.649265   2.649432
    20  H    7.563642   6.330492   5.123307   5.239543   4.114371
    21  H    8.195466   6.865178   5.833809   6.223043   4.597613
    22  H    7.577364   6.338344   5.137649   5.268893   4.114513
    23  H    2.157131   2.724842   2.744891   2.161834   4.087753
    24  C    5.232414   6.520915   7.472423   7.429055   8.664688
    25  H    3.417521   4.506593   5.832343   6.316487   6.754576
    26  H    2.154908   2.548676   3.942421   4.785401   4.563408
    27  F    5.128255   6.309823   7.375429   7.523472   8.447511
    28  F    6.534870   7.837660   8.785814   8.703355   9.988851
    29  F    5.129026   6.346307   7.096888   6.887860   8.323269
    30  S    4.521406   5.883514   6.878698   6.851893   8.100978
    31  O    5.230099   6.576811   7.370640   7.115886   8.668344
    32  O    5.235394   6.541962   7.691473   7.841320   8.815031
    33  H    3.406210   4.596467   5.087741   4.643134   6.431368
    34  O    3.471138   2.747646   3.683682   4.869528   3.535321
    35  O    4.845862   3.628517   3.749305   4.927900   2.813386
    36  C    4.523155   3.544957   4.113424   5.338486   3.531431
    37  C    5.840477   5.002029   5.647175   6.872293   5.026214
    38  C    7.089106   6.086490   6.465431   7.667353   5.576882
    39  H    5.968492   5.272510   6.044855   7.255585   5.548106
    40  H    5.964761   5.268066   6.035358   7.243590   5.538906
    41  H    7.233384   6.154264   6.392157   7.559491   5.412987
    42  H    7.985537   7.060565   7.518392   8.728341   6.663580
    43  H    7.228853   6.149019   6.381726   7.546492   5.402220
                    6          7          8          9         10
     6  C    0.000000
     7  C    1.523072   0.000000
     8  C    2.521060   1.525063   0.000000
     9  C    5.385086   6.724463   7.904672   0.000000
    10  C    6.765700   8.100778   9.284737   1.381086   0.000000
    11  C    7.589203   8.799348  10.097864   2.407417   1.396627
    12  C    7.264421   8.302685   9.702833   2.809190   2.433346
    13  C    6.003011   6.969589   8.396150   2.440614   2.790035
    14  H    3.856443   4.598561   6.077718   3.356671   4.458455
    15  H    2.138537   2.506432   4.016146   4.821169   6.125843
    16  H    1.097194   2.164958   2.760521   5.474122   6.828397
    17  H    1.096570   2.165502   2.765900   5.438477   6.792638
    18  H    2.145914   1.093816   2.166660   6.887133   8.238467
    19  H    2.147090   1.093751   2.167000   6.911430   8.263882
    20  H    2.782630   2.174502   1.093908   7.990754   9.355084
    21  H    3.477486   2.176186   1.092274   8.841333  10.221990
    22  H    2.785407   2.174426   1.093867   8.014261   9.380084
    23  H    4.889845   6.332516   7.368598   1.078819   2.144881
    24  C    9.830832  11.039170  12.302615   4.729727   3.572159
    25  H    8.146364   9.086902  10.529586   3.892986   3.411232
    26  H    6.005075   6.760747   8.249158   3.414184   3.875045
    27  F    9.685108  10.769272  12.094495   4.964712   4.054777
    28  F   11.146296  12.365871  13.621386   5.984540   4.751168
    29  F    9.363576  10.636371  11.804023   4.403044   3.350577
    30  S    9.297567  10.528908  11.812095   3.997775   2.710614
    31  O    9.735210  11.071002  12.252078   4.363127   2.990780
    32  O   10.104480  11.227734  12.587175   5.026845   3.886076
    33  H    7.351917   8.762239   9.844535   2.143163   1.084267
    34  O    4.879306   5.149339   6.672739   4.876414   5.782959
    35  O    3.669467   3.348251   4.800917   6.088148   7.262992
    36  C    4.651544   4.546253   6.026450   5.887098   6.906078
    37  C    6.043284   5.693970   7.081152   7.241170   8.144576
    38  C    6.298799   5.582410   6.777521   8.454619   9.459623
    39  H    6.632550   6.359915   7.760701   7.371518   8.176160
    40  H    6.619384   6.361626   7.756775   7.362796   8.168578
    41  H    6.002412   5.175268   6.294022   8.557771   9.622587
    42  H    7.389777   6.632812   7.771319   9.374491  10.312550
    43  H    5.986636   5.176524   6.288478   8.548734   9.614629
                   11         12         13         14         15
    11  C    0.000000
    12  C    1.400963   0.000000
    13  C    2.395332   1.375052   0.000000
    14  H    4.644316   3.832380   2.458647   0.000000
    15  H    6.587740   5.920097   4.557000   2.122716   0.000000
    16  H    7.741057   7.531361   6.333005   4.356441   2.853687
    17  H    7.712608   7.510757   6.316577   4.354608   2.876715
    18  H    8.840888   8.251265   6.905171   4.511970   2.479401
    19  H    8.860287   8.263292   6.913153   4.505944   2.444549
    20  H   10.240822   9.935871   8.668351   6.444770   4.484287
    21  H   10.964912  10.477171   9.139339   6.744456   4.627578
    22  H   10.259796   9.947583   8.676219   6.441508   4.465466
    23  H    3.391440   3.887902   3.416372   3.746759   4.769107
    24  C    2.825914   3.587297   4.731605   6.963438   8.882117
    25  H    2.156550   1.083984   2.143378   4.513182   6.635482
    26  H    3.390233   2.146439   1.085386   2.173972   4.263125
    27  F    3.127117   3.365658   4.408642   6.581314   8.532548
    28  F    3.998220   4.762642   5.984812   8.268952  10.206270
    29  F    3.130795   4.076691   4.971160   6.926935   8.664863
    30  S    1.735631   2.716131   3.990167   6.345551   8.318418
    31  O    2.633342   3.889814   5.014271   7.194673   9.026756
    32  O    2.632589   2.991704   4.359038   6.809674   8.884333
    33  H    2.149552   3.410039   3.874075   5.436869   6.960243
    34  O    5.625019   4.489226   3.230926   1.710858   2.768099
    35  O    7.430183   6.479021   5.125880   2.816721   1.783407
    36  C    6.845983   5.742276   4.460607   2.542055   2.551676
    37  C    7.894121   6.657045   5.509810   3.968872   4.016629
    38  C    9.314231   8.119598   6.919433   5.104399   4.548543
    39  H    7.813154   6.528483   5.481010   4.245900   4.580258
    40  H    7.810399   6.532427   5.484983   4.245960   4.570815
    41  H    9.567830   8.428946   7.187263   5.228600   4.420386
    42  H   10.061981   8.805614   7.681939   6.051958   5.633293
    43  H    9.564153   8.430683   7.188961   5.227292   4.409310
                   16         17         18         19         20
    16  H    0.000000
    17  H    1.755120   0.000000
    18  H    3.061320   2.510568   0.000000
    19  H    2.515516   3.062206   1.742935   0.000000
    20  H    3.113299   2.577124   2.533361   3.080697   0.000000
    21  H    3.768433   3.771275   2.512851   2.514557   1.765258
    22  H    2.574108   3.125173   3.080376   2.532315   1.763947
    23  H    4.871682   4.830816   6.594818   6.622438   7.379360
    24  C   10.106933   9.740422  10.923080  11.243861  12.281411
    25  H    8.451726   8.436948   8.976008   8.982483  10.802161
    26  H    6.430545   6.424945   6.604885   6.602132   8.601317
    27  F   10.088008   9.620346  10.535564  10.955496  12.091748
    28  F   11.400391  11.041472  12.250193  12.567442  13.587201
    29  F    9.636322   9.140876  10.532835  10.958596  11.679313
    30  S    9.419754   9.376323  10.560917  10.594060  11.925214
    31  O    9.724564   9.759988  11.211779  11.177092  12.323881
    32  O   10.254469  10.293737  11.222045  11.180118  12.789444
    33  H    7.324554   7.286005   8.958239   8.986490   9.846937
    34  O    5.480495   5.498760   4.860564   4.829989   7.170025
    35  O    4.381988   4.427046   2.989407   2.911247   5.421666
    36  C    5.321366   5.357441   4.170769   4.113608   6.610562
    37  C    6.714787   6.760894   5.222778   5.152170   7.720421
    38  C    6.983851   7.039022   5.056858   4.969529   7.477472
    39  H    7.390999   7.226468   5.763039   5.955845   8.293672
    40  H    7.162142   7.416383   6.031416   5.706970   8.466716
    41  H    6.799181   6.625821   4.486219   4.726738   6.894624
    42  H    8.065870   8.124239   6.087770   5.999748   8.477538
    43  H    6.547166   6.832378   4.827097   4.406492   7.102189
                   21         22         23         24         25
    21  H    0.000000
    22  H    1.765126   0.000000
    23  H    8.364682   7.406967   0.000000
    24  C   13.170416  12.573039   5.507968   0.000000
    25  H   11.248289  10.808997   4.971736   3.650263   0.000000
    26  H    8.888383   8.600187   4.299457   5.528328   2.490157
    27  F   12.891574  12.465458   5.835780   1.327992   3.219270
    28  F   14.495550  13.879439   6.724359   1.329119   4.657392
    29  F   12.712805  12.071508   4.977761   1.328379   4.436172
    30  S   12.691201  11.957034   4.855152   1.866762   2.856477
    31  O   13.194179  12.294371   4.985390   2.623428   4.203444
    32  O   13.403275  12.754067   5.984229   2.624947   2.599030
    33  H   10.828904   9.875558   2.481468   3.620602   4.297421
    34  O    7.106953   7.149271   5.405233   7.768861   4.813241
    35  O    5.048174   5.377899   6.258482   9.647201   6.953947
    36  C    6.298216   6.573829   6.269635   8.988037   6.065460
    37  C    7.158154   7.671333   7.714969   9.887877   6.759770
    38  C    6.623511   7.416406   8.805264  11.334051   8.267978
    39  H    7.855903   8.429571   7.926239   9.547321   6.528172
    40  H    7.861693   8.235133   7.912469   9.886893   6.534942
    41  H    6.084644   7.053683   8.831701  11.484438   8.648841
    42  H    7.537633   8.412029   9.785137  11.992579   8.840384
    43  H    6.091744   6.818149   8.817778  11.768364   8.652741
                   26         27         28         29         30
    26  H    0.000000
    27  F    5.004529   0.000000
    28  F    6.743633   2.159378   0.000000
    29  F    5.859266   2.158979   2.159272   0.000000
    30  S    4.861978   2.645351   2.626233   2.645090   0.000000
    31  O    5.983954   3.770432   3.009708   2.954771   1.452170
    32  O    4.996642   2.960589   3.008355   3.771736   1.451973
    33  H    4.959181   4.401567   4.633009   3.183467   2.843486
    34  O    2.363270   7.156792   9.016226   7.942011   7.192215
    35  O    4.464214   9.100267  10.942316   9.615194   9.101620
    36  C    3.621978   8.353193  10.244431   9.105399   8.438280
    37  C    4.519820   9.123559  11.081729  10.141366   9.370303
    38  C    5.973721  10.569605  12.546425  11.519520  10.835478
    39  H    4.454754   8.669002  10.702230   9.836286   9.202206
    40  H    4.463867   9.158101  11.037305  10.258919   9.213699
    41  H    6.300447  10.700087  12.719181  11.564208  11.124464
    42  H    6.679457  11.162602  13.162496  12.257547  11.511936
    43  H    6.305673  11.100846  13.002512  11.926230  11.132629
                   31         32         33         34         35
    31  O    0.000000
    32  O    2.535100   0.000000
    33  H    2.592189   4.194467   0.000000
    34  O    8.236833   7.349839   6.831086   0.000000
    35  O    9.998779   9.422736   8.211323   2.236232   0.000000
    36  C    9.453368   8.605811   7.926017   1.258868   1.250345
    37  C   10.492030   9.336880   9.198744   2.371403   2.393706
    38  C   11.920069  10.843918  10.488566   3.700358   2.765349
    39  H   10.410379   9.117612   9.243360   2.610748   3.098429
    40  H   10.337873   9.048559   9.231406   2.620874   3.087515
    41  H   12.195932  11.238600  10.625784   3.999745   2.728992
    42  H   12.653328  11.407830  11.361416   4.530920   3.850244
    43  H   12.132317  11.181056  10.613821   4.005252   2.715513
                   36         37         38         39         40
    36  C    0.000000
    37  C    1.534980   0.000000
    38  C    2.567992   1.522140   0.000000
    39  H    2.130583   1.094377   2.173369   0.000000
    40  H    2.129627   1.094546   2.172642   1.742878   0.000000
    41  H    2.826583   2.164366   1.091268   2.534965   3.078421
    42  H    3.515653   2.174220   1.094249   2.523897   2.522854
    43  H    2.824856   2.164172   1.091164   3.078699   2.534131
                   41         42         43
    41  H    0.000000
    42  H    1.773920   0.000000
    43  H    1.752045   1.774126   0.000000
 Stoichiometry    C14H18F3N2O5S(1-)
 Framework group  C1[X(C14H18F3N2O5S)]
 Deg. of freedom   123
 Full point group                 C1      NOp   1
 Largest Abelian subgroup         C1      NOp   1
 Largest concise Abelian subgroup C1      NOp   1
                         Standard orientation:                         
 ---------------------------------------------------------------------
 Center     Atomic      Atomic             Coordinates (Angstroms)
 Number     Number       Type             X           Y           Z
 ---------------------------------------------------------------------
      1          6           0        0.013625   -0.416324   -0.343375
      2          7           0        1.370900   -0.463674   -0.203575
      3          6           0        2.177305   -1.601797   -0.118657
      4          8           0        1.748825   -2.748900   -0.158044
      5          7           0        3.484500   -1.295334    0.013631
      6          6           0        4.470398   -2.348353    0.114068
      7          6           0        5.854550   -1.741111    0.301498
      8          6           0        6.929904   -2.817193    0.408631
      9          6           0       -0.826982   -1.549532   -0.432561
     10          6           0       -2.190824   -1.384749   -0.574612
     11          6           0       -2.740233   -0.102012   -0.632094
     12          6           0       -1.925035    1.033825   -0.542524
     13          6           0       -0.566201    0.876918   -0.402106
     14          1           0        1.845168    0.463391   -0.158719
     15          1           0        3.810351   -0.315838    0.033066
     16          1           0        4.446638   -2.974100   -0.786882
     17          1           0        4.225097   -3.009469    0.953841
     18          1           0        5.850502   -1.111466    1.195904
     19          1           0        6.066828   -1.066658   -0.532973
     20          1           0        6.740337   -3.482650    1.255900
     21          1           0        7.920817   -2.378703    0.546037
     22          1           0        6.962065   -3.435118   -0.493411
     23          1           0       -0.389327   -2.534864   -0.394722
     24          6           0       -5.003661    0.104550    1.047195
     25          1           0       -2.367761    2.021824   -0.596128
     26          1           0        0.092751    1.737128   -0.339777
     27          9           0       -4.435301    1.113005    1.698001
     28          9           0       -6.323620    0.248661    1.106332
     29          9           0       -4.672285   -1.032369    1.649021
     30         16           0       -4.462429    0.084988   -0.739278
     31          8           0       -5.085471   -1.112066   -1.275632
     32          8           0       -4.814107    1.407927   -1.223405
     33          1           0       -2.840718   -2.249113   -0.653013
     34          8           0        2.421080    2.073807   -0.114890
     35          8           0        4.517607    1.320654    0.080224
     36          6           0        3.665321    2.231408   -0.006383
     37          6           0        4.155156    3.685934    0.017698
     38          6           0        5.662283    3.836409    0.168810
     39          1           0        3.622287    4.190738    0.829415
     40          1           0        3.800541    4.157878   -0.904012
     41          1           0        6.006389    3.370883    1.093874
     42          1           0        5.958525    4.889749    0.178698
     43          1           0        6.184323    3.336745   -0.648778
 ---------------------------------------------------------------------
 Rotational constants (GHZ):           0.3512686           0.0738898           0.0648490
 Standard basis: Aug-CC-pVTZ (5D, 7F)
 There are  1829 symmetry adapted cartesian basis functions of A   symmetry.
 There are  1568 symmetry adapted basis functions of A   symmetry.
  1568 basis functions,  2328 primitive gaussians,  1829 cartesian basis functions
   100 alpha electrons      100 beta electrons
       nuclear repulsion energy      2437.5034359321 Hartrees.
 NAtoms=   43 NActive=   43 NUniq=   43 SFac= 1.00D+00 NAtFMM=   60 NAOKFM=F Big=F
 Integral buffers will be    131072 words long.
 Regular integral format.
 Two-electron integral symmetry is turned on.
 Nuclear repulsion after empirical dispersion term =     2437.4700459172 Hartrees.
 One-electron integrals computed using PRISM.
 NBasis=  1568 RedAO= T EigKep=  1.40D-06  NBF=  1568
 NBsUse=  1562 1.00D-06 EigRej=  9.09D-07 NBFU=  1562
 ExpMin= 2.53D-02 ExpMax= 3.74D+05 ExpMxC= 1.18D+03 IAcc=3 IRadAn=         5 AccDes= 0.00D+00
 Harris functional with IExCor= 1004 and IRadAn=       5 diagonalized for initial guess.
 HarFok:  IExCor= 1004 AccDes= 0.00D+00 IRadAn=         5 IDoV= 1 UseB2=F ITyADJ=14
 ICtDFT=  3500011 ScaDFX=  1.000000  1.000000  1.000000  1.000000
 FoFCou: FMM=F IPFlag=           0 FMFlag=      100000 FMFlg1=           0
         NFxFlg=           0 DoJE=T BraDBF=F KetDBF=T FulRan=T
         wScrn=  0.000000 ICntrl=       500 IOpCl=  0 I1Cent=   200000004 NGrid=           0
         NMat0=    1 NMatS0=      1 NMatT0=    0 NMatD0=    1 NMtDS0=    0 NMtDT0=    0
 Petite list used in FoFCou.
 Requested convergence on RMS density matrix=1.00D-08 within 128 cycles.
 Requested convergence on MAX density matrix=1.00D-06.
 Requested convergence on             energy=1.00D-06.
 No special actions if energy rises.
 SCF Done:  E(RDSDPBEP86) =  -1723.43371570     A.U. after   14 cycles
            NFock= 14  Conv=0.40D-08     -V/T= 2.0029
 DoSCS=T DFT=T ScalE2(SS,OS)=  0.220000  0.520000
 ExpMin= 2.53D-02 ExpMax= 3.74D+05 ExpMxC= 1.18D+03 IAcc=3 IRadAn=         5 AccDes= 0.00D+00
 HarFok:  IExCor=  205 AccDes= 0.00D+00 IRadAn=         5 IDoV=-2 UseB2=F ITyADJ=14
 ICtDFT= 12500011 ScaDFX=  1.000000  1.000000  1.000000  1.000000
 GSVD:  LWork=       -1073 too small for GESVD, short by        4640 words or        4640 for optimal perf.
 Range of M.O.s used for correlation:    30  1562
 NBasis=  1568 NAE=   100 NBE=   100 NFC=    29 NFV=     0
 NROrb=   1533 NOA=    71 NOB=    71 NVA=  1462 NVB=  1462

 **** Warning!!: The largest alpha MO coefficient is  0.89091113D+02

 DoSCS=T DFT=T ScalE2(SS,OS)=  0.220000  0.520000
 Fully direct method using O(OVN) memory.
 JobTyp=1 Pass  1:  I=   1 to  31 NPSUse= 32 ParTrn=T ParDer=T DoDerP=F.
 JobTyp=1 Pass  2:  I=  32 to  71 NPSUse= 32 ParTrn=T ParDer=T DoDerP=F.
 Spin components of T(2) and E(2):
     alpha-alpha T2 =       0.2516762589D+00 E2=     -0.1593278086D+00
     alpha-beta  T2 =       0.1301782044D+01 E2=     -0.2133774807D+01
     beta-beta   T2 =       0.2516762589D+00 E2=     -0.1593278086D+00
 E2(DSDPBEP86) =    -0.2452430425D+01 E(DSDPBEP86) =    -0.17258861461280D+04

 **********************************************************************

            Population analysis using the SCF Density.

 **********************************************************************

 Orbital symmetries:
       Occupied  (A) (A) (A) (A) (A) (A) (A) (A) (A) (A) (A) (A)
                 (A) (A) (A) (A) (A) (A) (A) (A) (A) (A) (A) (A)
                 (A) (A) (A) (A) (A) (A) (A) (A) (A) (A) (A) (A)
                 (A) (A) (A) (A) (A) (A) (A) (A) (A) (A) (A) (A)
                 (A) (A) (A) (A) (A) (A) (A) (A) (A) (A) (A) (A)
                 (A) (A) (A) (A) (A) (A) (A) (A) (A) (A) (A) (A)
                 (A) (A) (A) (A) (A) (A) (A) (A) (A) (A) (A) (A)
                 (A) (A) (A) (A) (A) (A) (A) (A) (A) (A) (A) (A)
                 (A) (A) (A) (A)
       Virtual   (A) (A) (A) (A) (A) (A) (A) (A) (A) (A) (A) (A)
                 (A) (A) (A) (A) (A) (A) (A) (A) (A) (A) (A) (A)
                 (A) (A) (A) (A) (A) (A) (A) (A) (A) (A) (A) (A)
                 (A) (A) (A) (A) (A) (A) (A) (A) (A) (A) (A) (A)
                 (A) (A) (A) (A) (A) (A) (A) (A) (A) (A) (A) (A)
                 (A) (A) (A) (A) (A) (A) (A) (A) (A) (A) (A) (A)
                 (A) (A) (A) (A) (A) (A) (A) (A) (A) (A) (A) (A)
                 (A) (A) (A) (A) (A) (A) (A) (A) (A) (A) (A) (A)
                 (A) (A) (A) (A) (A) (A) (A) (A) (A) (A) (A) (A)
                 (A) (A) (A) (A) (A) (A) (A) (A) (A) (A) (A) (A)
                 (A) (A) (A) (A) (A) (A) (A) (A) (A) (A) (A) (A)
                 (A) (A) (A) (A) (A) (A) (A) (A) (A) (A) (A) (A)
                 (A) (A) (A) (A) (A) (A) (A) (A) (A) (A) (A) (A)
                 (A) (A) (A) (A) (A) (A) (A) (A) (A) (A) (A) (A)
                 (A) (A) (A) (A) (A) (A) (A) (A) (A) (A) (A) (A)
                 (A) (A) (A) (A) (A) (A) (A) (A) (A) (A) (A) (A)
                 (A) (A) (A) (A) (A) (A) (A) (A) (A) (A) (A) (A)
                 (A) (A) (A) (A) (A) (A) (A) (A) (A) (A) (A) (A)
                 (A) (A) (A) (A) (A) (A) (A) (A) (A) (A) (A) (A)
                 (A) (A) (A) (A) (A) (A) (A) (A) (A) (A) (A) (A)
                 (A) (A) (A) (A) (A) (A) (A) (A) (A) (A) (A) (A)
                 (A) (A) (A) (A) (A) (A) (A) (A) (A) (A) (A) (A)
                 (A) (A) (A) (A) (A) (A) (A) (A) (A) (A) (A) (A)
                 (A) (A) (A) (A) (A) (A) (A) (A) (A) (A) (A) (A)
                 (A) (A) (A) (A) (A) (A) (A) (A) (A) (A) (A) (A)
                 (A) (A) (A) (A) (A) (A) (A) (A) (A) (A) (A) (A)
                 (A) (A) (A) (A) (A) (A) (A) (A) (A) (A) (A) (A)
                 (A) (A) (A) (A) (A) (A) (A) (A) (A) (A) (A) (A)
                 (A) (A) (A) (A) (A) (A) (A) (A) (A) (A) (A) (A)
                 (A) (A) (A) (A) (A) (A) (A) (A) (A) (A) (A) (A)
                 (A) (A) (A) (A) (A) (A) (A) (A) (A) (A) (A) (A)
                 (A) (A) (A) (A) (A) (A) (A) (A) (A) (A) (A) (A)
                 (A) (A) (A) (A) (A) (A) (A) (A) (A) (A) (A) (A)
                 (A) (A) (A) (A) (A) (A) (A) (A) (A) (A) (A) (A)
                 (A) (A) (A) (A) (A) (A) (A) (A) (A) (A) (A) (A)
                 (A) (A) (A) (A) (A) (A) (A) (A) (A) (A) (A) (A)
                 (A) (A) (A) (A) (A) (A) (A) (A) (A) (A) (A) (A)
                 (A) (A) (A) (A) (A) (A) (A) (A) (A) (A) (A) (A)
                 (A) (A) (A) (A) (A) (A) (A) (A) (A) (A) (A) (A)
                 (A) (A) (A) (A) (A) (A) (A) (A) (A) (A) (A) (A)
                 (A) (A) (A) (A) (A) (A) (A) (A) (A) (A) (A) (A)
                 (A) (A) (A) (A) (A) (A) (A) (A) (A) (A) (A) (A)
                 (A) (A) (A) (A) (A) (A) (A) (A) (A) (A) (A) (A)
                 (A) (A) (A) (A) (A) (A) (A) (A) (A) (A) (A) (A)
                 (A) (A) (A) (A) (A) (A) (A) (A) (A) (A) (A) (A)
                 (A) (A) (A) (A) (A) (A) (A) (A) (A) (A) (A) (A)
                 (A) (A) (A) (A) (A) (A) (A) (A) (A) (A) (A) (A)
                 (A) (A) (A) (A) (A) (A) (A) (A) (A) (A) (A) (A)
                 (A) (A) (A) (A) (A) (A) (A) (A) (A) (A) (A) (A)
                 (A) (A) (A) (A) (A) (A) (A) (A) (A) (A) (A) (A)
                 (A) (A) (A) (A) (A) (A) (A) (A) (A) (A) (A) (A)
                 (A) (A) (A) (A) (A) (A) (A) (A) (A) (A) (A) (A)
                 (A) (A) (A) (A) (A) (A) (A) (A) (A) (A) (A) (A)
                 (A) (A) (A) (A) (A) (A) (A) (A) (A) (A) (A) (A)
                 (A) (A) (A) (A) (A) (A) (A) (A) (A) (A) (A) (A)
                 (A) (A) (A) (A) (A) (A) (A) (A) (A) (A) (A) (A)
                 (A) (A) (A) (A) (A) (A) (A) (A) (A) (A) (A) (A)
                 (A) (A) (A) (A) (A) (A) (A) (A) (A) (A) (A) (A)
                 (A) (A) (A) (A) (A) (A) (A) (A) (A) (A) (A) (A)
                 (A) (A) (A) (A) (A) (A) (A) (A) (A) (A) (A) (A)
                 (A) (A) (A) (A) (A) (A) (A) (A) (A) (A) (A) (A)
                 (A) (A) (A) (A) (A) (A) (A) (A) (A) (A) (A) (A)
                 (A) (A) (A) (A) (A) (A) (A) (A) (A) (A) (A) (A)
                 (A) (A) (A) (A) (A) (A) (A) (A) (A) (A) (A) (A)
                 (A) (A) (A) (A) (A) (A) (A) (A) (A) (A) (A) (A)
                 (A) (A) (A) (A) (A) (A) (A) (A) (A) (A) (A) (A)
                 (A) (A) (A) (A) (A) (A) (A) (A) (A) (A) (A) (A)
                 (A) (A) (A) (A) (A) (A) (A) (A) (A) (A) (A) (A)
                 (A) (A) (A) (A) (A) (A) (A) (A) (A) (A) (A) (A)
                 (A) (A) (A) (A) (A) (A) (A) (A) (A) (A) (A) (A)
                 (A) (A) (A) (A) (A) (A) (A) (A) (A) (A) (A) (A)
                 (A) (A) (A) (A) (A) (A) (A) (A) (A) (A) (A) (A)
                 (A) (A) (A) (A) (A) (A) (A) (A) (A) (A) (A) (A)
                 (A) (A) (A) (A) (A) (A) (A) (A) (A) (A) (A) (A)
                 (A) (A) (A) (A) (A) (A) (A) (A) (A) (A) (A) (A)
                 (A) (A) (A) (A) (A) (A) (A) (A) (A) (A) (A) (A)
                 (A) (A) (A) (A) (A) (A) (A) (A) (A) (A) (A) (A)
                 (A) (A) (A) (A) (A) (A) (A) (A) (A) (A) (A) (A)
                 (A) (A) (A) (A) (A) (A) (A) (A) (A) (A) (A) (A)
                 (A) (A) (A) (A) (A) (A) (A) (A) (A) (A) (A) (A)
                 (A) (A) (A) (A) (A) (A) (A) (A) (A) (A) (A) (A)
                 (A) (A) (A) (A) (A) (A) (A) (A) (A) (A) (A) (A)
                 (A) (A) (A) (A) (A) (A) (A) (A) (A) (A) (A) (A)
                 (A) (A) (A) (A) (A) (A) (A) (A) (A) (A) (A) (A)
                 (A) (A) (A) (A) (A) (A) (A) (A) (A) (A) (A) (A)
                 (A) (A) (A) (A) (A) (A) (A) (A) (A) (A) (A) (A)
                 (A) (A) (A) (A) (A) (A) (A) (A) (A) (A) (A) (A)
                 (A) (A) (A) (A) (A) (A) (A) (A) (A) (A) (A) (A)
                 (A) (A) (A) (A) (A) (A) (A) (A) (A) (A) (A) (A)
                 (A) (A) (A) (A) (A) (A) (A) (A) (A) (A) (A) (A)
                 (A) (A) (A) (A) (A) (A) (A) (A) (A) (A) (A) (A)
                 (A) (A) (A) (A) (A) (A) (A) (A) (A) (A) (A) (A)
                 (A) (A) (A) (A) (A) (A) (A) (A) (A) (A) (A) (A)
                 (A) (A) (A) (A) (A) (A) (A) (A) (A) (A) (A) (A)
                 (A) (A) (A) (A) (A) (A) (A) (A) (A) (A) (A) (A)
                 (A) (A) (A) (A) (A) (A) (A) (A) (A) (A) (A) (A)
                 (A) (A) (A) (A) (A) (A) (A) (A) (A) (A) (A) (A)
                 (A) (A) (A) (A) (A) (A) (A) (A) (A) (A) (A) (A)
                 (A) (A) (A) (A) (A) (A) (A) (A) (A) (A) (A) (A)
                 (A) (A) (A) (A) (A) (A) (A) (A) (A) (A) (A) (A)
                 (A) (A) (A) (A) (A) (A) (A) (A) (A) (A) (A) (A)
                 (A) (A) (A) (A) (A) (A) (A) (A) (A) (A) (A) (A)
                 (A) (A) (A) (A) (A) (A) (A) (A) (A) (A) (A) (A)
                 (A) (A) (A) (A) (A) (A) (A) (A) (A) (A) (A) (A)
                 (A) (A) (A) (A) (A) (A) (A) (A) (A) (A) (A) (A)
                 (A) (A) (A) (A) (A) (A) (A) (A) (A) (A) (A) (A)
                 (A) (A) (A) (A) (A) (A) (A) (A) (A) (A) (A) (A)
                 (A) (A) (A) (A) (A) (A) (A) (A) (A) (A) (A) (A)
                 (A) (A) (A) (A) (A) (A) (A) (A) (A) (A) (A) (A)
                 (A) (A) (A) (A) (A) (A) (A) (A) (A) (A) (A) (A)
                 (A) (A) (A) (A) (A) (A) (A) (A) (A) (A) (A) (A)
                 (A) (A) (A) (A) (A) (A) (A) (A) (A) (A) (A) (A)
                 (A) (A) (A) (A) (A) (A) (A) (A) (A) (A) (A) (A)
                 (A) (A) (A) (A) (A) (A) (A) (A) (A) (A) (A) (A)
                 (A) (A) (A) (A) (A) (A) (A) (A) (A) (A) (A) (A)
                 (A) (A) (A) (A) (A) (A) (A) (A) (A) (A) (A) (A)
                 (A) (A) (A) (A) (A) (A) (A) (A) (A) (A) (A) (A)
                 (A) (A) (A) (A) (A) (A) (A) (A) (A) (A) (A) (A)
                 (A) (A) (A) (A) (A) (A) (A) (A) (A) (A) (A) (A)
                 (A) (A) (A) (A) (A) (A) (A) (A) (A) (A) (A) (A)
                 (A) (A) (A) (A) (A) (A) (A) (A) (A) (A) (A) (A)
                 (A) (A) (A) (A) (A) (A) (A) (A) (A) (A)
 The electronic state is 1-A.
 Alpha  occ. eigenvalues --  -90.91086 -25.65451 -25.65445 -25.65424 -19.92571
 Alpha  occ. eigenvalues --  -19.92569 -19.85364 -19.82778 -19.82533 -14.99444
 Alpha  occ. eigenvalues --  -14.97099 -11.02748 -10.84344 -10.79530 -10.79520
 Alpha  occ. eigenvalues --  -10.76298 -10.75865 -10.75756 -10.74381 -10.72939
 Alpha  occ. eigenvalues --  -10.72718 -10.72333 -10.71675 -10.70207 -10.70052
 Alpha  occ. eigenvalues --   -8.68354  -6.47191  -6.47088  -6.47065  -1.52200
 Alpha  occ. eigenvalues --   -1.42777  -1.42727  -1.25160  -1.15724  -1.14406
 Alpha  occ. eigenvalues --   -1.13317  -1.03861  -1.03138  -0.99961  -0.96020
 Alpha  occ. eigenvalues --   -0.87011  -0.85602  -0.84335  -0.82787  -0.82450
 Alpha  occ. eigenvalues --   -0.76053  -0.73441  -0.69132  -0.68386  -0.68223
 Alpha  occ. eigenvalues --   -0.67945  -0.67585  -0.64242  -0.62402  -0.60847
 Alpha  occ. eigenvalues --   -0.56972  -0.56582  -0.56018  -0.55904  -0.54297
 Alpha  occ. eigenvalues --   -0.52264  -0.51958  -0.51397  -0.50682  -0.50111
 Alpha  occ. eigenvalues --   -0.50014  -0.49331  -0.47816  -0.47237  -0.46301
 Alpha  occ. eigenvalues --   -0.45613  -0.45476  -0.44847  -0.44742  -0.43545
 Alpha  occ. eigenvalues --   -0.43011  -0.41134  -0.40729  -0.40410  -0.37964
 Alpha  occ. eigenvalues --   -0.37589  -0.37541  -0.36775  -0.36449  -0.36290
 Alpha  occ. eigenvalues --   -0.35711  -0.34557  -0.34299  -0.33719  -0.33333
 Alpha  occ. eigenvalues --   -0.32185  -0.31768  -0.30647  -0.26876  -0.23847
 Alpha  occ. eigenvalues --   -0.23476  -0.23089  -0.22835  -0.22702  -0.18296
 Alpha virt. eigenvalues --    0.07868   0.08643   0.09617   0.09915   0.10005
 Alpha virt. eigenvalues --    0.10258   0.10832   0.10972   0.11126   0.11782
 Alpha virt. eigenvalues --    0.12167   0.12314   0.12504   0.12978   0.13036
 Alpha virt. eigenvalues --    0.13204   0.13729   0.14056   0.14328   0.14685
 Alpha virt. eigenvalues --    0.15262   0.15538   0.15749   0.15784   0.16092
 Alpha virt. eigenvalues --    0.16857   0.17112   0.17502   0.17989   0.18046
 Alpha virt. eigenvalues --    0.18150   0.18392   0.18584   0.18845   0.19100
 Alpha virt. eigenvalues --    0.19415   0.19627   0.19824   0.19973   0.20187
 Alpha virt. eigenvalues --    0.20631   0.20895   0.20963   0.21171   0.21473
 Alpha virt. eigenvalues --    0.21504   0.22073   0.22391   0.22719   0.22860
 Alpha virt. eigenvalues --    0.23219   0.23428   0.23506   0.23996   0.24190
 Alpha virt. eigenvalues --    0.24560   0.24801   0.24945   0.25018   0.25376
 Alpha virt. eigenvalues --    0.26076   0.26196   0.26388   0.26665   0.26867
 Alpha virt. eigenvalues --    0.27040   0.27433   0.27729   0.27989   0.28324
 Alpha virt. eigenvalues --    0.28523   0.28788   0.29175   0.29450   0.29718
 Alpha virt. eigenvalues --    0.29926   0.30247   0.30365   0.30664   0.30781
 Alpha virt. eigenvalues --    0.30920   0.31194   0.31242   0.31644   0.31767
 Alpha virt. eigenvalues --    0.32273   0.32514   0.32620   0.32762   0.33043
 Alpha virt. eigenvalues --    0.33146   0.33450   0.33762   0.34174   0.34249
 Alpha virt. eigenvalues --    0.34638   0.34678   0.34915   0.35296   0.35651
 Alpha virt. eigenvalues --    0.35727   0.35894   0.36068   0.36213   0.36595
 Alpha virt. eigenvalues --    0.36876   0.37125   0.37187   0.37256   0.37488
 Alpha virt. eigenvalues --    0.37871   0.38103   0.38316   0.38361   0.38603
 Alpha virt. eigenvalues --    0.38769   0.38937   0.39090   0.39155   0.39417
 Alpha virt. eigenvalues --    0.39580   0.39930   0.40370   0.40636   0.40643
 Alpha virt. eigenvalues --    0.40837   0.41149   0.41214   0.41361   0.41453
 Alpha virt. eigenvalues --    0.41832   0.42248   0.42531   0.42699   0.42744
 Alpha virt. eigenvalues --    0.42856   0.43245   0.43259   0.43464   0.43836
 Alpha virt. eigenvalues --    0.43903   0.44090   0.44456   0.44599   0.44691
 Alpha virt. eigenvalues --    0.45196   0.45387   0.45720   0.45865   0.46301
 Alpha virt. eigenvalues --    0.46627   0.46821   0.47015   0.47153   0.47487
 Alpha virt. eigenvalues --    0.47846   0.47911   0.48240   0.48298   0.48588
 Alpha virt. eigenvalues --    0.48763   0.48811   0.48972   0.49261   0.49706
 Alpha virt. eigenvalues --    0.50185   0.50498   0.50755   0.51032   0.51287
 Alpha virt. eigenvalues --    0.51465   0.51655   0.51838   0.51982   0.52182
 Alpha virt. eigenvalues --    0.52363   0.52604   0.52801   0.53024   0.53497
 Alpha virt. eigenvalues --    0.53640   0.53871   0.54020   0.54207   0.54378
 Alpha virt. eigenvalues --    0.54681   0.54737   0.54911   0.55143   0.55306
 Alpha virt. eigenvalues --    0.55401   0.55591   0.55983   0.56118   0.56538
 Alpha virt. eigenvalues --    0.56623   0.56898   0.57099   0.57270   0.57494
 Alpha virt. eigenvalues --    0.57721   0.57852   0.58184   0.58429   0.58481
 Alpha virt. eigenvalues --    0.58884   0.59012   0.59191   0.59318   0.59482
 Alpha virt. eigenvalues --    0.59615   0.60007   0.60369   0.60867   0.61135
 Alpha virt. eigenvalues --    0.61599   0.61673   0.62112   0.62248   0.62438
 Alpha virt. eigenvalues --    0.62785   0.63137   0.63179   0.63614   0.63814
 Alpha virt. eigenvalues --    0.64122   0.64216   0.64368   0.65081   0.65221
 Alpha virt. eigenvalues --    0.65311   0.65975   0.66109   0.66227   0.66654
 Alpha virt. eigenvalues --    0.66692   0.66923   0.67316   0.67510   0.67866
 Alpha virt. eigenvalues --    0.68043   0.68297   0.69131   0.69245   0.69678
 Alpha virt. eigenvalues --    0.70082   0.70135   0.70453   0.71105   0.71363
 Alpha virt. eigenvalues --    0.71828   0.71975   0.72389   0.72548   0.72937
 Alpha virt. eigenvalues --    0.73155   0.73372   0.73673   0.73822   0.74279
 Alpha virt. eigenvalues --    0.74551   0.74929   0.75048   0.75424   0.75678
 Alpha virt. eigenvalues --    0.76099   0.76355   0.76577   0.77021   0.77273
 Alpha virt. eigenvalues --    0.77510   0.78114   0.78445   0.78733   0.79258
 Alpha virt. eigenvalues --    0.79422   0.79969   0.80015   0.80590   0.81334
 Alpha virt. eigenvalues --    0.81622   0.81776   0.82038   0.82411   0.82565
 Alpha virt. eigenvalues --    0.82966   0.83103   0.83709   0.84140   0.84372
 Alpha virt. eigenvalues --    0.84897   0.85267   0.85660   0.85733   0.86171
 Alpha virt. eigenvalues --    0.86311   0.86777   0.86979   0.87147   0.87763
 Alpha virt. eigenvalues --    0.87913   0.88424   0.88537   0.88645   0.89170
 Alpha virt. eigenvalues --    0.89276   0.89638   0.90216   0.90485   0.90750
 Alpha virt. eigenvalues --    0.90913   0.91044   0.91513   0.91849   0.92043
 Alpha virt. eigenvalues --    0.92430   0.92943   0.93042   0.93290   0.93475
 Alpha virt. eigenvalues --    0.93732   0.93832   0.93978   0.94462   0.94724
 Alpha virt. eigenvalues --    0.95046   0.95420   0.95704   0.95841   0.96045
 Alpha virt. eigenvalues --    0.96451   0.96625   0.96739   0.97137   0.97329
 Alpha virt. eigenvalues --    0.97616   0.98021   0.98164   0.98515   0.98701
 Alpha virt. eigenvalues --    0.99017   0.99297   0.99545   0.99714   1.00155
 Alpha virt. eigenvalues --    1.00537   1.00568   1.00863   1.00911   1.01253
 Alpha virt. eigenvalues --    1.01658   1.02072   1.02555   1.02793   1.03229
 Alpha virt. eigenvalues --    1.03617   1.03641   1.03804   1.04038   1.04251
 Alpha virt. eigenvalues --    1.04472   1.04647   1.04946   1.05335   1.05493
 Alpha virt. eigenvalues --    1.05677   1.06007   1.06221   1.06505   1.06706
 Alpha virt. eigenvalues --    1.07099   1.07180   1.07561   1.07884   1.08018
 Alpha virt. eigenvalues --    1.08199   1.08524   1.08939   1.09217   1.09526
 Alpha virt. eigenvalues --    1.09778   1.10093   1.10282   1.10724   1.10903
 Alpha virt. eigenvalues --    1.11421   1.11575   1.11739   1.12407   1.12492
 Alpha virt. eigenvalues --    1.12672   1.13049   1.13355   1.13489   1.13719
 Alpha virt. eigenvalues --    1.14122   1.14260   1.14478   1.14855   1.14945
 Alpha virt. eigenvalues --    1.15153   1.15513   1.15754   1.16070   1.16361
 Alpha virt. eigenvalues --    1.16560   1.16829   1.17236   1.17461   1.17781
 Alpha virt. eigenvalues --    1.17889   1.18204   1.18405   1.18826   1.19048
 Alpha virt. eigenvalues --    1.19496   1.19737   1.19824   1.20096   1.20282
 Alpha virt. eigenvalues --    1.20728   1.20957   1.21127   1.21518   1.21655
 Alpha virt. eigenvalues --    1.22024   1.22605   1.22808   1.23101   1.23247
 Alpha virt. eigenvalues --    1.23480   1.23661   1.23941   1.24121   1.24425
 Alpha virt. eigenvalues --    1.24979   1.25201   1.25560   1.25983   1.26218
 Alpha virt. eigenvalues --    1.26649   1.27015   1.27589   1.27885   1.28100
 Alpha virt. eigenvalues --    1.28583   1.28627   1.28812   1.28935   1.29235
 Alpha virt. eigenvalues --    1.29607   1.29779   1.29805   1.30031   1.30267
 Alpha virt. eigenvalues --    1.30693   1.30836   1.31293   1.31611   1.31957
 Alpha virt. eigenvalues --    1.32558   1.32889   1.32961   1.33578   1.33781
 Alpha virt. eigenvalues --    1.33882   1.34423   1.34889   1.35070   1.35277
 Alpha virt. eigenvalues --    1.35895   1.35979   1.36593   1.36625   1.36948
 Alpha virt. eigenvalues --    1.37260   1.37555   1.37986   1.38196   1.38501
 Alpha virt. eigenvalues --    1.38976   1.39345   1.39939   1.40279   1.40699
 Alpha virt. eigenvalues --    1.40834   1.41214   1.41340   1.41594   1.42308
 Alpha virt. eigenvalues --    1.42466   1.43007   1.43267   1.43556   1.44127
 Alpha virt. eigenvalues --    1.44679   1.44961   1.45076   1.45444   1.45719
 Alpha virt. eigenvalues --    1.46051   1.46193   1.46600   1.46819   1.47197
 Alpha virt. eigenvalues --    1.47587   1.48312   1.48542   1.48571   1.49163
 Alpha virt. eigenvalues --    1.49713   1.50023   1.50333   1.50667   1.50897
 Alpha virt. eigenvalues --    1.51561   1.52026   1.52277   1.52559   1.52971
 Alpha virt. eigenvalues --    1.53391   1.53618   1.54015   1.54396   1.54860
 Alpha virt. eigenvalues --    1.55617   1.55719   1.56114   1.56643   1.56886
 Alpha virt. eigenvalues --    1.57202   1.57673   1.57828   1.58226   1.58822
 Alpha virt. eigenvalues --    1.58894   1.59055   1.59542   1.59998   1.60627
 Alpha virt. eigenvalues --    1.60942   1.61046   1.61661   1.61859   1.62450
 Alpha virt. eigenvalues --    1.62708   1.62994   1.63094   1.63734   1.63911
 Alpha virt. eigenvalues --    1.64456   1.64744   1.65339   1.65593   1.65893
 Alpha virt. eigenvalues --    1.66584   1.66700   1.67261   1.67741   1.67833
 Alpha virt. eigenvalues --    1.68392   1.68516   1.68847   1.69205   1.69385
 Alpha virt. eigenvalues --    1.69433   1.69883   1.70601   1.70885   1.71429
 Alpha virt. eigenvalues --    1.71602   1.71838   1.72171   1.72359   1.72692
 Alpha virt. eigenvalues --    1.73228   1.73290   1.73780   1.73866   1.73918
 Alpha virt. eigenvalues --    1.74191   1.74615   1.74670   1.75660   1.76100
 Alpha virt. eigenvalues --    1.76234   1.76453   1.76686   1.76793   1.76900
 Alpha virt. eigenvalues --    1.77517   1.77711   1.78899   1.79155   1.79855
 Alpha virt. eigenvalues --    1.79869   1.80242   1.80497   1.81243   1.81505
 Alpha virt. eigenvalues --    1.82036   1.82136   1.82787   1.83090   1.83233
 Alpha virt. eigenvalues --    1.83629   1.84517   1.84583   1.84845   1.85017
 Alpha virt. eigenvalues --    1.85163   1.85349   1.85922   1.86352   1.86935
 Alpha virt. eigenvalues --    1.86975   1.87329   1.87542   1.88511   1.88765
 Alpha virt. eigenvalues --    1.89348   1.89680   1.90075   1.90310   1.90966
 Alpha virt. eigenvalues --    1.91036   1.91680   1.92250   1.92529   1.92756
 Alpha virt. eigenvalues --    1.93646   1.93798   1.93974   1.94339   1.94757
 Alpha virt. eigenvalues --    1.95201   1.95391   1.95664   1.96424   1.96780
 Alpha virt. eigenvalues --    1.97188   1.97711   1.98161   1.98267   1.98515
 Alpha virt. eigenvalues --    1.98938   1.99415   2.00218   2.00460   2.00701
 Alpha virt. eigenvalues --    2.01342   2.02001   2.02228   2.02592   2.03162
 Alpha virt. eigenvalues --    2.03498   2.03555   2.03924   2.04708   2.05031
 Alpha virt. eigenvalues --    2.05854   2.06055   2.06187   2.06493   2.07463
 Alpha virt. eigenvalues --    2.07714   2.07978   2.08655   2.09189   2.09396
 Alpha virt. eigenvalues --    2.09992   2.10361   2.10400   2.11161   2.11696
 Alpha virt. eigenvalues --    2.12580   2.13291   2.13408   2.14039   2.14247
 Alpha virt. eigenvalues --    2.14733   2.14885   2.15670   2.16264   2.17142
 Alpha virt. eigenvalues --    2.17464   2.18509   2.19016   2.19789   2.20300
 Alpha virt. eigenvalues --    2.20801   2.21181   2.21499   2.21636   2.21946
 Alpha virt. eigenvalues --    2.22637   2.23223   2.23558   2.23745   2.24015
 Alpha virt. eigenvalues --    2.24739   2.25190   2.25551   2.25991   2.26399
 Alpha virt. eigenvalues --    2.27056   2.27970   2.28348   2.28982   2.29803
 Alpha virt. eigenvalues --    2.30013   2.30225   2.30473   2.31321   2.31510
 Alpha virt. eigenvalues --    2.31992   2.32982   2.33734   2.34241   2.34681
 Alpha virt. eigenvalues --    2.35327   2.35723   2.36031   2.36959   2.36992
 Alpha virt. eigenvalues --    2.37810   2.38522   2.38940   2.39249   2.40032
 Alpha virt. eigenvalues --    2.40431   2.40984   2.41419   2.41797   2.42173
 Alpha virt. eigenvalues --    2.42874   2.43303   2.43971   2.44040   2.45124
 Alpha virt. eigenvalues --    2.45405   2.45739   2.46018   2.46245   2.47042
 Alpha virt. eigenvalues --    2.47190   2.47912   2.48458   2.48670   2.49812
 Alpha virt. eigenvalues --    2.49978   2.50274   2.50968   2.51236   2.52085
 Alpha virt. eigenvalues --    2.52515   2.52947   2.53370   2.53545   2.54140
 Alpha virt. eigenvalues --    2.54511   2.54900   2.55323   2.56076   2.56732
 Alpha virt. eigenvalues --    2.56884   2.57799   2.58651   2.58913   2.59606
 Alpha virt. eigenvalues --    2.60035   2.61230   2.61695   2.62332   2.63019
 Alpha virt. eigenvalues --    2.63181   2.64206   2.64393   2.65046   2.65759
 Alpha virt. eigenvalues --    2.66383   2.68116   2.68586   2.69358   2.69911
 Alpha virt. eigenvalues --    2.70859   2.71004   2.71882   2.72363   2.72429
 Alpha virt. eigenvalues --    2.73285   2.73563   2.73865   2.74858   2.74899
 Alpha virt. eigenvalues --    2.75890   2.75920   2.76490   2.76772   2.77889
 Alpha virt. eigenvalues --    2.78488   2.78888   2.80377   2.81038   2.81484
 Alpha virt. eigenvalues --    2.81778   2.82180   2.82572   2.83253   2.83614
 Alpha virt. eigenvalues --    2.84768   2.84833   2.85291   2.86105   2.86817
 Alpha virt. eigenvalues --    2.88468   2.88566   2.89175   2.89697   2.89995
 Alpha virt. eigenvalues --    2.90087   2.91333   2.91819   2.92261   2.92734
 Alpha virt. eigenvalues --    2.93802   2.94511   2.94794   2.95475   2.95951
 Alpha virt. eigenvalues --    2.96263   2.96953   2.97467   2.98030   2.98599
 Alpha virt. eigenvalues --    2.99766   3.00668   3.01103   3.02426   3.03134
 Alpha virt. eigenvalues --    3.04289   3.05087   3.05594   3.06133   3.06435
 Alpha virt. eigenvalues --    3.06918   3.07872   3.09360   3.09746   3.10394
 Alpha virt. eigenvalues --    3.12014   3.12396   3.12447   3.12683   3.14438
 Alpha virt. eigenvalues --    3.14623   3.15346   3.15780   3.16239   3.17127
 Alpha virt. eigenvalues --    3.17901   3.18359   3.19852   3.20189   3.20541
 Alpha virt. eigenvalues --    3.20860   3.21918   3.22396   3.22737   3.24413
 Alpha virt. eigenvalues --    3.24583   3.24924   3.25715   3.27596   3.27910
 Alpha virt. eigenvalues --    3.28115   3.28641   3.30167   3.30738   3.30877
 Alpha virt. eigenvalues --    3.32455   3.33395   3.34363   3.34711   3.35205
 Alpha virt. eigenvalues --    3.36033   3.36392   3.36823   3.37838   3.39013
 Alpha virt. eigenvalues --    3.39513   3.39837   3.40567   3.40881   3.41066
 Alpha virt. eigenvalues --    3.41255   3.41511   3.42829   3.43229   3.43302
 Alpha virt. eigenvalues --    3.44107   3.44601   3.45276   3.45788   3.46304
 Alpha virt. eigenvalues --    3.47133   3.47703   3.48187   3.48897   3.49117
 Alpha virt. eigenvalues --    3.49253   3.49953   3.50826   3.51118   3.51435
 Alpha virt. eigenvalues --    3.51844   3.51953   3.52791   3.54033   3.54384
 Alpha virt. eigenvalues --    3.54758   3.55458   3.56171   3.56333   3.57072
 Alpha virt. eigenvalues --    3.57474   3.58515   3.59138   3.59616   3.60300
 Alpha virt. eigenvalues --    3.60550   3.60649   3.60940   3.61903   3.62099
 Alpha virt. eigenvalues --    3.62655   3.62902   3.64609   3.65019   3.65280
 Alpha virt. eigenvalues --    3.65848   3.65960   3.66616   3.67176   3.67216
 Alpha virt. eigenvalues --    3.67841   3.69036   3.69833   3.70453   3.70656
 Alpha virt. eigenvalues --    3.71482   3.71672   3.71927   3.72173   3.72775
 Alpha virt. eigenvalues --    3.73415   3.74141   3.74787   3.75432   3.75551
 Alpha virt. eigenvalues --    3.76103   3.76591   3.77287   3.77893   3.78209
 Alpha virt. eigenvalues --    3.79156   3.79702   3.80379   3.80883   3.81266
 Alpha virt. eigenvalues --    3.82056   3.82159   3.82415   3.82896   3.83684
 Alpha virt. eigenvalues --    3.84297   3.84535   3.84962   3.85033   3.85772
 Alpha virt. eigenvalues --    3.86137   3.86296   3.86806   3.87363   3.87764
 Alpha virt. eigenvalues --    3.87911   3.88502   3.88678   3.89346   3.89853
 Alpha virt. eigenvalues --    3.90480   3.90818   3.91875   3.92235   3.92341
 Alpha virt. eigenvalues --    3.92772   3.92840   3.93461   3.93900   3.94014
 Alpha virt. eigenvalues --    3.95312   3.95647   3.95752   3.96955   3.97162
 Alpha virt. eigenvalues --    3.97666   3.98156   3.98451   3.99220   3.99636
 Alpha virt. eigenvalues --    4.00040   4.00185   4.00969   4.01248   4.02095
 Alpha virt. eigenvalues --    4.02517   4.02998   4.03155   4.03926   4.04163
 Alpha virt. eigenvalues --    4.04271   4.05470   4.06564   4.06986   4.07504
 Alpha virt. eigenvalues --    4.07599   4.09334   4.10143   4.11106   4.11242
 Alpha virt. eigenvalues --    4.12093   4.13119   4.13507   4.14176   4.14564
 Alpha virt. eigenvalues --    4.15249   4.15325   4.15815   4.16419   4.17398
 Alpha virt. eigenvalues --    4.17962   4.18465   4.18805   4.19035   4.19244
 Alpha virt. eigenvalues --    4.19361   4.19816   4.20533   4.20939   4.21084
 Alpha virt. eigenvalues --    4.21652   4.22538   4.22613   4.22922   4.23711
 Alpha virt. eigenvalues --    4.25763   4.25911   4.26441   4.26774   4.26969
 Alpha virt. eigenvalues --    4.27854   4.28295   4.28567   4.28705   4.29613
 Alpha virt. eigenvalues --    4.30068   4.30843   4.31011   4.31695   4.32247
 Alpha virt. eigenvalues --    4.33155   4.34048   4.34492   4.35105   4.35523
 Alpha virt. eigenvalues --    4.36189   4.36391   4.37156   4.37938   4.38404
 Alpha virt. eigenvalues --    4.40118   4.40470   4.41202   4.41860   4.42106
 Alpha virt. eigenvalues --    4.42986   4.43154   4.44017   4.45200   4.45471
 Alpha virt. eigenvalues --    4.46893   4.47732   4.48122   4.48572   4.49385
 Alpha virt. eigenvalues --    4.49865   4.50842   4.50983   4.52557   4.52914
 Alpha virt. eigenvalues --    4.53287   4.54349   4.55128   4.55216   4.55939
 Alpha virt. eigenvalues --    4.56340   4.57572   4.58415   4.58734   4.59574
 Alpha virt. eigenvalues --    4.59932   4.61309   4.62080   4.62447   4.63141
 Alpha virt. eigenvalues --    4.63874   4.64361   4.65087   4.65584   4.65986
 Alpha virt. eigenvalues --    4.66013   4.67385   4.67860   4.68401   4.68758
 Alpha virt. eigenvalues --    4.70079   4.70553   4.71966   4.72002   4.72552
 Alpha virt. eigenvalues --    4.72987   4.73732   4.74207   4.74942   4.75912
 Alpha virt. eigenvalues --    4.76532   4.77042   4.77921   4.78555   4.79237
 Alpha virt. eigenvalues --    4.80130   4.81048   4.81841   4.82343   4.82477
 Alpha virt. eigenvalues --    4.82785   4.83115   4.84012   4.84769   4.85117
 Alpha virt. eigenvalues --    4.85991   4.86746   4.88032   4.88570   4.89732
 Alpha virt. eigenvalues --    4.90404   4.92091   4.92714   4.93484   4.94002
 Alpha virt. eigenvalues --    4.94434   4.95040   4.96103   4.96671   4.97275
 Alpha virt. eigenvalues --    4.97533   4.97722   4.98545   4.98995   4.99782
 Alpha virt. eigenvalues --    5.00579   5.01145   5.02691   5.03425   5.04328
 Alpha virt. eigenvalues --    5.05324   5.05583   5.06329   5.06951   5.07202
 Alpha virt. eigenvalues --    5.08915   5.09587   5.10098   5.10500   5.11085
 Alpha virt. eigenvalues --    5.11622   5.12165   5.12811   5.14587   5.15269
 Alpha virt. eigenvalues --    5.15763   5.16252   5.17037   5.17338   5.18221
 Alpha virt. eigenvalues --    5.19528   5.20735   5.21067   5.22046   5.22239
 Alpha virt. eigenvalues --    5.22617   5.23276   5.24407   5.24511   5.25412
 Alpha virt. eigenvalues --    5.25733   5.26305   5.27509   5.28735   5.29470
 Alpha virt. eigenvalues --    5.29809   5.30804   5.31621   5.33789   5.34052
 Alpha virt. eigenvalues --    5.34441   5.35090   5.36087   5.36773   5.38992
 Alpha virt. eigenvalues --    5.40124   5.40694   5.41075   5.41769   5.43361
 Alpha virt. eigenvalues --    5.45086   5.45554   5.46538   5.47512   5.48593
 Alpha virt. eigenvalues --    5.50394   5.51341   5.51839   5.52503   5.54141
 Alpha virt. eigenvalues --    5.54417   5.56425   5.57148   5.57646   5.58086
 Alpha virt. eigenvalues --    5.58267   5.60484   5.62555   5.62678   5.62995
 Alpha virt. eigenvalues --    5.63530   5.64600   5.65483   5.67178   5.67427
 Alpha virt. eigenvalues --    5.67780   5.68101   5.71312   5.72152   5.73071
 Alpha virt. eigenvalues --    5.73861   5.74774   5.75681   5.76887   5.78528
 Alpha virt. eigenvalues --    5.78865   5.79974   5.81532   5.81770   5.81862
 Alpha virt. eigenvalues --    5.82277   5.82778   5.83807   5.84374   5.85445
 Alpha virt. eigenvalues --    5.86207   5.87133   5.89570   5.90375   5.92331
 Alpha virt. eigenvalues --    5.95213   5.97805   5.97891   5.98686   5.99167
 Alpha virt. eigenvalues --    6.00301   6.02503   6.04865   6.05339   6.05970
 Alpha virt. eigenvalues --    6.07322   6.10035   6.10426   6.11628   6.13072
 Alpha virt. eigenvalues --    6.15103   6.15835   6.15923   6.17195   6.17423
 Alpha virt. eigenvalues --    6.19048   6.20021   6.22825   6.23202   6.24478
 Alpha virt. eigenvalues --    6.28181   6.32776   6.33742   6.34164   6.36197
 Alpha virt. eigenvalues --    6.37348   6.39269   6.41157   6.42946   6.45106
 Alpha virt. eigenvalues --    6.46411   6.48047   6.51468   6.52831   6.57463
 Alpha virt. eigenvalues --    6.59444   6.59953   6.65442   6.65857   6.66327
 Alpha virt. eigenvalues --    6.68869   6.69631   6.70377   6.72149   6.75732
 Alpha virt. eigenvalues --    6.77340   6.77582   6.77831   6.78331   6.78656
 Alpha virt. eigenvalues --    6.80696   6.82087   6.82156   6.82984   6.85018
 Alpha virt. eigenvalues --    6.85419   6.86412   6.87489   6.89379   6.89532
 Alpha virt. eigenvalues --    6.91254   6.91494   6.93218   6.93590   6.93857
 Alpha virt. eigenvalues --    6.95245   6.96556   6.96788   6.98231   6.98884
 Alpha virt. eigenvalues --    7.01356   7.01953   7.03530   7.06496   7.07399
 Alpha virt. eigenvalues --    7.09602   7.12713   7.14761   7.16057   7.16542
 Alpha virt. eigenvalues --    7.17363   7.17695   7.19532   7.21705   7.22391
 Alpha virt. eigenvalues --    7.23444   7.23976   7.25424   7.28813   7.30504
 Alpha virt. eigenvalues --    7.35587   7.36026   7.37327   7.37906   7.38820
 Alpha virt. eigenvalues --    7.42099   7.46605   7.47529   7.49205   7.52405
 Alpha virt. eigenvalues --    7.59685   7.60437   7.63641   7.65128   7.65886
 Alpha virt. eigenvalues --    7.66716   7.67353   7.68841   7.69389   7.71191
 Alpha virt. eigenvalues --    7.76483   7.79124   7.88671   7.95163   7.98951
 Alpha virt. eigenvalues --    8.02179   8.08633   8.09946   8.13194   8.34651
 Alpha virt. eigenvalues --    8.46854   8.79900   8.80316   8.83274   8.84273
 Alpha virt. eigenvalues --    8.85480   8.85915   8.96866   8.98542   9.12663
 Alpha virt. eigenvalues --    9.15105   9.15500   9.18764   9.19348   9.20477
 Alpha virt. eigenvalues --    9.21926   9.27744   9.28231   9.30308   9.30648
 Alpha virt. eigenvalues --    9.32781   9.34073   9.36194   9.37175   9.39579
 Alpha virt. eigenvalues --    9.41768   9.42900   9.46417   9.52139   9.53589
 Alpha virt. eigenvalues --    9.55223   9.55448   9.63901   9.76736   9.79904
 Alpha virt. eigenvalues --    9.97658   9.99752  12.88707  13.22151  13.85739
 Alpha virt. eigenvalues --   15.31726  15.60965  15.68770  15.71859  15.80419
 Alpha virt. eigenvalues --   16.04839  16.43305  16.89039  17.44307  17.70776
 Alpha virt. eigenvalues --   17.83494  18.31175  18.45733  18.64473  19.06007
 Alpha virt. eigenvalues --   19.30460  19.57567  19.82347  20.82295  21.13601
 Alpha virt. eigenvalues --   21.73034  22.21424
          Condensed to atoms (all electrons):
               1          2          3          4          5          6
     1  C    9.506860  -0.525457  -0.934048   0.072831   0.152240   0.000051
     2  N   -0.525457   9.214317   0.839142  -0.240197  -0.851928  -0.126714
     3  C   -0.934048   0.839142   7.396951   0.373956  -0.176719  -0.579918
     4  O    0.072831  -0.240197   0.373956   9.186813  -0.177598   0.016068
     5  N    0.152240  -0.851928  -0.176719  -0.177598   8.719635   0.439070
     6  C    0.000051  -0.126714  -0.579918   0.016068   0.439070   6.727461
     7  C   -0.003451  -0.020825   0.059301  -0.009868   0.036546  -0.179438
     8  C    0.004048  -0.003105   0.011510   0.000838  -0.054007   0.019994
     9  C   -0.740773  -0.382637   0.000779  -0.112887  -0.082627  -0.054132
    10  C   -0.177571   0.158196   0.000900   0.023231  -0.009461   0.007945
    11  C   -0.302804  -0.008915  -0.056835  -0.009178   0.039059  -0.004243
    12  C   -0.144968   0.092078  -0.081111   0.009491  -0.001976  -0.012114
    13  C   -1.241883  -0.271282   0.030451  -0.011843  -0.022656   0.002839
    14  H   -0.461925  -0.668506  -0.435106   0.000596   0.313993  -0.042958
    15  H   -0.166413   0.263129  -0.108716  -0.088682  -0.807510  -0.459547
    16  H    0.000374   0.005039  -0.061161   0.007200  -0.050829   0.418616
    17  H    0.000815   0.009447  -0.065501  -0.000557  -0.061260   0.399634
    18  H   -0.001271  -0.003109   0.015631  -0.000945  -0.020857  -0.002266
    19  H   -0.001618  -0.000351   0.014257  -0.002435  -0.021017  -0.000555
    20  H    0.000604  -0.000534   0.003007   0.000170   0.000664  -0.006525
    21  H   -0.000039   0.000053   0.000317   0.000057  -0.000312  -0.008720
    22  H    0.000506  -0.000450   0.002932   0.000087   0.001300  -0.008743
    23  H    0.243667   0.026454  -0.047296  -0.035112  -0.028940  -0.014937
    24  C   -0.000146   0.003854  -0.003953  -0.000126   0.000437  -0.000116
    25  H   -0.011264   0.000126  -0.001770   0.000166  -0.000189  -0.000526
    26  H   -0.120290  -0.011586   0.043030  -0.001270  -0.010082   0.005836
    27  F   -0.005263  -0.000781   0.000755  -0.000007  -0.000003   0.000010
    28  F    0.002349  -0.000036   0.000091  -0.000000  -0.000001   0.000001
    29  F   -0.010368  -0.002211   0.000485  -0.000006  -0.000065  -0.000021
    30  S   -0.180596   0.001386  -0.009871   0.000159   0.001849  -0.000290
    31  O    0.025038   0.001064   0.000959   0.000147  -0.000030   0.000033
    32  O    0.013832  -0.000497  -0.000459  -0.000030  -0.000048  -0.000009
    33  H   -0.051004   0.008176   0.011629  -0.002721   0.002235   0.000945
    34  O    0.021170  -0.066038  -0.017454  -0.002371  -0.029406  -0.011970
    35  O    0.017718   0.032185  -0.016364  -0.006819  -0.048789  -0.062666
    36  C   -0.063205  -0.037634   0.018933  -0.006138  -0.032470   0.003656
    37  C    0.005851  -0.027334  -0.018057  -0.001177   0.009870   0.008028
    38  C   -0.001264  -0.003240  -0.001241   0.000008   0.001935  -0.000206
    39  H    0.001168  -0.004021  -0.000955  -0.000053   0.003622   0.000289
    40  H    0.000625  -0.003751  -0.000947  -0.000046   0.003785   0.000160
    41  H   -0.000530  -0.000036   0.000240   0.000003  -0.000452  -0.000096
    42  H   -0.000046   0.000175   0.000052   0.000001  -0.000252  -0.000307
    43  H   -0.000233  -0.000076   0.000229   0.000003  -0.000723   0.000156
               7          8          9         10         11         12
     1  C   -0.003451   0.004048  -0.740773  -0.177571  -0.302804  -0.144968
     2  N   -0.020825  -0.003105  -0.382637   0.158196  -0.008915   0.092078
     3  C    0.059301   0.011510   0.000779   0.000900  -0.056835  -0.081111
     4  O   -0.009868   0.000838  -0.112887   0.023231  -0.009178   0.009491
     5  N    0.036546  -0.054007  -0.082627  -0.009461   0.039059  -0.001976
     6  C   -0.179438   0.019994  -0.054132   0.007945  -0.004243  -0.012114
     7  C    5.784369  -0.007895  -0.001676   0.000556   0.000185   0.000622
     8  C   -0.007895   6.001547  -0.000261   0.000111  -0.000055   0.000020
     9  C   -0.001676  -0.000261   9.223360  -0.964199   0.138419  -0.107188
    10  C    0.000556   0.000111  -0.964199   9.019309  -0.992106   0.209900
    11  C    0.000185  -0.000055   0.138419  -0.992106   7.837267  -0.905241
    12  C    0.000622   0.000020  -0.107188   0.209900  -0.905241   8.535559
    13  C   -0.001501  -0.000410   0.023051  -0.112233   0.153402  -0.524449
    14  H    0.019176   0.005377  -0.084515  -0.031007   0.059723  -0.109845
    15  H    0.003408  -0.004800   0.035729  -0.004153  -0.004455  -0.002056
    16  H   -0.022848  -0.010576   0.001049  -0.000345   0.000128  -0.000590
    17  H   -0.032300  -0.011319   0.000445   0.000273  -0.000284  -0.000487
    18  H    0.374583  -0.038387  -0.000632   0.000160   0.000021  -0.000158
    19  H    0.352334  -0.038493  -0.000966   0.000456  -0.000208   0.000027
    20  H    0.011148   0.392050  -0.000105   0.000034   0.000001   0.000020
    21  H   -0.004549   0.442136   0.000026  -0.000009  -0.000004  -0.000006
    22  H    0.013090   0.388925   0.000006  -0.000007   0.000021   0.000013
    23  H   -0.000338  -0.000091   0.151931  -0.225392  -0.032825   0.008563
    24  C    0.000006  -0.000000  -0.029294  -0.015861   0.108327  -0.043256
    25  H    0.000004   0.000004   0.013505   0.076989  -0.238681   0.031077
    26  H   -0.001842  -0.000206   0.006994   0.019814  -0.069112  -0.029861
    27  F   -0.000001  -0.000000   0.007332   0.002205  -0.055062  -0.006487
    28  F    0.000000   0.000000  -0.002163  -0.001444   0.003875  -0.001383
    29  F   -0.000001   0.000000   0.029462  -0.027146  -0.049729   0.006727
    30  S   -0.000002  -0.000001   0.173234  -0.521416  -0.174649  -0.424934
    31  O   -0.000001  -0.000000  -0.045748  -0.021437   0.135128  -0.027647
    32  O    0.000000   0.000000  -0.013163  -0.016787   0.140203  -0.037667
    33  H   -0.000054   0.000002  -0.244217   0.113452  -0.180155   0.053571
    34  O   -0.002417   0.000924  -0.005754   0.006355  -0.011046   0.052221
    35  O   -0.027768  -0.013710   0.001983   0.000643   0.001038   0.001105
    36  C    0.000065   0.000102   0.000018   0.004238  -0.008437   0.025824
    37  C    0.001177   0.000531  -0.001705   0.001142   0.000223   0.001175
    38  C    0.005248  -0.000880  -0.000148   0.000074   0.000208  -0.000614
    39  H   -0.000513  -0.000091  -0.000154   0.000064  -0.000230   0.001712
    40  H   -0.000252  -0.000082  -0.000182   0.000118  -0.000079   0.001304
    41  H   -0.000155   0.000172   0.000017   0.000012   0.000015  -0.000083
    42  H    0.000323  -0.000083  -0.000014   0.000001   0.000008  -0.000023
    43  H   -0.000196   0.000290   0.000010  -0.000015   0.000055  -0.000172
              13         14         15         16         17         18
     1  C   -1.241883  -0.461925  -0.166413   0.000374   0.000815  -0.001271
     2  N   -0.271282  -0.668506   0.263129   0.005039   0.009447  -0.003109
     3  C    0.030451  -0.435106  -0.108716  -0.061161  -0.065501   0.015631
     4  O   -0.011843   0.000596  -0.088682   0.007200  -0.000557  -0.000945
     5  N   -0.022656   0.313993  -0.807510  -0.050829  -0.061260  -0.020857
     6  C    0.002839  -0.042958  -0.459547   0.418616   0.399634  -0.002266
     7  C   -0.001501   0.019176   0.003408  -0.022848  -0.032300   0.374583
     8  C   -0.000410   0.005377  -0.004800  -0.010576  -0.011319  -0.038387
     9  C    0.023051  -0.084515   0.035729   0.001049   0.000445  -0.000632
    10  C   -0.112233  -0.031007  -0.004153  -0.000345   0.000273   0.000160
    11  C    0.153402   0.059723  -0.004455   0.000128  -0.000284   0.000021
    12  C   -0.524449  -0.109845  -0.002056  -0.000590  -0.000487  -0.000158
    13  C    9.058971  -0.087116   0.020071   0.000314   0.000104  -0.000983
    14  H   -0.087116   2.044171  -0.193967   0.000351  -0.000388   0.003869
    15  H    0.020071  -0.193967   1.762247   0.003595   0.026737  -0.007206
    16  H    0.000314   0.000351   0.003595   0.415730   0.035092   0.013723
    17  H    0.000104  -0.000388   0.026737   0.035092   0.420274  -0.012356
    18  H   -0.000983   0.003869  -0.007206   0.013723  -0.012356   0.429845
    19  H   -0.000688   0.003208   0.004154  -0.010827   0.012708   0.015354
    20  H   -0.000014   0.000199  -0.000871  -0.006878  -0.009640   0.001546
    21  H    0.000049  -0.000462   0.001868  -0.001203  -0.001401  -0.012115
    22  H   -0.000047   0.000074  -0.000068  -0.009958  -0.007075   0.000551
    23  H   -0.077019  -0.034538   0.001856  -0.001342  -0.001016  -0.000115
    24  C   -0.009737   0.001559  -0.000178  -0.000006  -0.000009   0.000000
    25  H   -0.152111  -0.017324   0.001286  -0.000034  -0.000026  -0.000014
    26  H    0.114842   0.011442   0.016432   0.000332   0.000365  -0.000291
    27  F    0.009120  -0.000605   0.000060   0.000001   0.000002  -0.000001
    28  F   -0.001444   0.000049  -0.000003   0.000000   0.000000   0.000000
    29  F    0.004619  -0.000707   0.000104  -0.000001  -0.000002  -0.000001
    30  S    0.051493  -0.005750   0.000456  -0.000022  -0.000015  -0.000007
    31  O   -0.008148   0.000697  -0.000060   0.000002   0.000000   0.000000
    32  O   -0.018232  -0.000337   0.000032  -0.000001  -0.000000  -0.000000
    33  H    0.017378   0.001026  -0.000196   0.000082   0.000105  -0.000002
    34  O    0.067537  -0.180865  -0.056979  -0.000431  -0.000397  -0.000775
    35  O    0.017187  -0.004783  -0.134606   0.002365   0.003205   0.002397
    36  C   -0.036850   0.033946  -0.012374   0.000758   0.001068   0.000579
    37  C   -0.022054   0.018924   0.011288   0.000565   0.000528   0.001342
    38  C    0.001232   0.006225  -0.007059   0.000120   0.000068  -0.000029
    39  H   -0.010386   0.002421   0.003720   0.000052   0.000017   0.000247
    40  H   -0.009939   0.003431   0.002687  -0.000003   0.000059   0.000264
    41  H    0.000276   0.001781  -0.002057  -0.000042   0.000018  -0.000088
    42  H    0.000649  -0.001346   0.002461   0.000002  -0.000001  -0.000162
    43  H    0.000170   0.002160  -0.002926   0.000021  -0.000028   0.000203
              19         20         21         22         23         24
     1  C   -0.001618   0.000604  -0.000039   0.000506   0.243667  -0.000146
     2  N   -0.000351  -0.000534   0.000053  -0.000450   0.026454   0.003854
     3  C    0.014257   0.003007   0.000317   0.002932  -0.047296  -0.003953
     4  O   -0.002435   0.000170   0.000057   0.000087  -0.035112  -0.000126
     5  N   -0.021017   0.000664  -0.000312   0.001300  -0.028940   0.000437
     6  C   -0.000555  -0.006525  -0.008720  -0.008743  -0.014937  -0.000116
     7  C    0.352334   0.011148  -0.004549   0.013090  -0.000338   0.000006
     8  C   -0.038493   0.392050   0.442136   0.388925  -0.000091  -0.000000
     9  C   -0.000966  -0.000105   0.000026   0.000006   0.151931  -0.029294
    10  C    0.000456   0.000034  -0.000009  -0.000007  -0.225392  -0.015861
    11  C   -0.000208   0.000001  -0.000004   0.000021  -0.032825   0.108327
    12  C    0.000027   0.000020  -0.000006   0.000013   0.008563  -0.043256
    13  C   -0.000688  -0.000014   0.000049  -0.000047  -0.077019  -0.009737
    14  H    0.003208   0.000199  -0.000462   0.000074  -0.034538   0.001559
    15  H    0.004154  -0.000871   0.001868  -0.000068   0.001856  -0.000178
    16  H   -0.010827  -0.006878  -0.001203  -0.009958  -0.001342  -0.000006
    17  H    0.012708  -0.009640  -0.001401  -0.007075  -0.001016  -0.000009
    18  H    0.015354   0.001546  -0.012115   0.000551  -0.000115   0.000000
    19  H    0.427082   0.000762  -0.014771   0.002825  -0.000050  -0.000000
    20  H    0.000762   0.325397  -0.003550   0.020798   0.000024  -0.000000
    21  H   -0.014771  -0.003550   0.336982  -0.005095   0.000016  -0.000000
    22  H    0.002825   0.020798  -0.005095   0.327314   0.000039   0.000000
    23  H   -0.000050   0.000024   0.000016   0.000039   0.653305  -0.001650
    24  C   -0.000000  -0.000000  -0.000000   0.000000  -0.001650   4.356555
    25  H   -0.000009   0.000001  -0.000000   0.000001   0.005039  -0.011320
    26  H   -0.000214  -0.000016  -0.000004  -0.000016  -0.007990  -0.001078
    27  F    0.000000   0.000000  -0.000000  -0.000000  -0.000064   0.160957
    28  F    0.000000   0.000000   0.000000  -0.000000  -0.000094   0.162492
    29  F   -0.000001  -0.000000   0.000000   0.000000   0.001353   0.159911
    30  S   -0.000013   0.000001  -0.000000   0.000001  -0.001985   0.137589
    31  O    0.000001   0.000000  -0.000000  -0.000000  -0.000243   0.017984
    32  O   -0.000000  -0.000000   0.000000  -0.000000  -0.000274   0.016632
    33  H    0.000013  -0.000000  -0.000001  -0.000004  -0.088661  -0.006602
    34  O   -0.001373   0.000035   0.000206   0.000023  -0.002396  -0.000186
    35  O    0.003497  -0.000957   0.000215  -0.000908   0.001153   0.000008
    36  C    0.000887  -0.000118  -0.000381  -0.000116  -0.003149  -0.000044
    37  C    0.001935   0.000014  -0.000222  -0.000013  -0.000250   0.000025
    38  C   -0.000182  -0.000040   0.000073  -0.000040  -0.000025   0.000001
    39  H    0.000290  -0.000007  -0.000030  -0.000011  -0.000038  -0.000005
    40  H    0.000373  -0.000007  -0.000034  -0.000009  -0.000046   0.000002
    41  H    0.000313   0.000014  -0.000020   0.000012  -0.000010   0.000001
    42  H   -0.000230  -0.000007   0.000031  -0.000007   0.000005   0.000000
    43  H   -0.000102   0.000021  -0.000022   0.000024  -0.000007  -0.000000
              25         26         27         28         29         30
     1  C   -0.011264  -0.120290  -0.005263   0.002349  -0.010368  -0.180596
     2  N    0.000126  -0.011586  -0.000781  -0.000036  -0.002211   0.001386
     3  C   -0.001770   0.043030   0.000755   0.000091   0.000485  -0.009871
     4  O    0.000166  -0.001270  -0.000007  -0.000000  -0.000006   0.000159
     5  N   -0.000189  -0.010082  -0.000003  -0.000001  -0.000065   0.001849
     6  C   -0.000526   0.005836   0.000010   0.000001  -0.000021  -0.000290
     7  C    0.000004  -0.001842  -0.000001   0.000000  -0.000001  -0.000002
     8  C    0.000004  -0.000206  -0.000000   0.000000   0.000000  -0.000001
     9  C    0.013505   0.006994   0.007332  -0.002163   0.029462   0.173234
    10  C    0.076989   0.019814   0.002205  -0.001444  -0.027146  -0.521416
    11  C   -0.238681  -0.069112  -0.055062   0.003875  -0.049729  -0.174649
    12  C    0.031077  -0.029861  -0.006487  -0.001383   0.006727  -0.424934
    13  C   -0.152111   0.114842   0.009120  -0.001444   0.004619   0.051493
    14  H   -0.017324   0.011442  -0.000605   0.000049  -0.000707  -0.005750
    15  H    0.001286   0.016432   0.000060  -0.000003   0.000104   0.000456
    16  H   -0.000034   0.000332   0.000001   0.000000  -0.000001  -0.000022
    17  H   -0.000026   0.000365   0.000002   0.000000  -0.000002  -0.000015
    18  H   -0.000014  -0.000291  -0.000001   0.000000  -0.000001  -0.000007
    19  H   -0.000009  -0.000214   0.000000   0.000000  -0.000001  -0.000013
    20  H    0.000001  -0.000016   0.000000   0.000000  -0.000000   0.000001
    21  H   -0.000000  -0.000004  -0.000000   0.000000   0.000000  -0.000000
    22  H    0.000001  -0.000016  -0.000000  -0.000000   0.000000   0.000001
    23  H    0.005039  -0.007990  -0.000064  -0.000094   0.001353  -0.001985
    24  C   -0.011320  -0.001078   0.160957   0.162492   0.159911   0.137589
    25  H    0.877375  -0.008637   0.003400  -0.001318   0.003966  -0.038217
    26  H   -0.008637   0.548711   0.001438  -0.000183   0.000405  -0.015083
    27  F    0.003400   0.001438   9.281416  -0.037876  -0.032661   0.059079
    28  F   -0.001318  -0.000183  -0.037876   9.256735  -0.036101   0.027542
    29  F    0.003966   0.000405  -0.032661  -0.036101   9.283697   0.056453
    30  S   -0.038217  -0.015083   0.059079   0.027542   0.056453  14.852011
    31  O    0.003901  -0.000405   0.003299   0.005696   0.006881   0.081585
    32  O    0.028372   0.003094   0.006487   0.006426   0.003530   0.066124
    33  H   -0.014264   0.002631   0.003358  -0.001251   0.003615  -0.069802
    34  O   -0.002452  -0.085436   0.000059   0.000002  -0.000007   0.001643
    35  O    0.000205  -0.006892  -0.000001   0.000000  -0.000000  -0.000005
    36  C   -0.001064   0.031120   0.000073   0.000000  -0.000019   0.000172
    37  C   -0.000680  -0.006134  -0.000000  -0.000000  -0.000003  -0.000077
    38  C    0.000051  -0.001004   0.000000   0.000000  -0.000000  -0.000011
    39  H   -0.000157   0.002790   0.000004   0.000000  -0.000000  -0.000002
    40  H   -0.000168   0.002314  -0.000002  -0.000000  -0.000000  -0.000004
    41  H   -0.000008  -0.000108   0.000000  -0.000000  -0.000000  -0.000001
    42  H    0.000010   0.000079   0.000000   0.000000  -0.000000  -0.000001
    43  H   -0.000002  -0.000204  -0.000000   0.000000  -0.000000   0.000000
              31         32         33         34         35         36
     1  C    0.025038   0.013832  -0.051004   0.021170   0.017718  -0.063205
     2  N    0.001064  -0.000497   0.008176  -0.066038   0.032185  -0.037634
     3  C    0.000959  -0.000459   0.011629  -0.017454  -0.016364   0.018933
     4  O    0.000147  -0.000030  -0.002721  -0.002371  -0.006819  -0.006138
     5  N   -0.000030  -0.000048   0.002235  -0.029406  -0.048789  -0.032470
     6  C    0.000033  -0.000009   0.000945  -0.011970  -0.062666   0.003656
     7  C   -0.000001   0.000000  -0.000054  -0.002417  -0.027768   0.000065
     8  C   -0.000000   0.000000   0.000002   0.000924  -0.013710   0.000102
     9  C   -0.045748  -0.013163  -0.244217  -0.005754   0.001983   0.000018
    10  C   -0.021437  -0.016787   0.113452   0.006355   0.000643   0.004238
    11  C    0.135128   0.140203  -0.180155  -0.011046   0.001038  -0.008437
    12  C   -0.027647  -0.037667   0.053571   0.052221   0.001105   0.025824
    13  C   -0.008148  -0.018232   0.017378   0.067537   0.017187  -0.036850
    14  H    0.000697  -0.000337   0.001026  -0.180865  -0.004783   0.033946
    15  H   -0.000060   0.000032  -0.000196  -0.056979  -0.134606  -0.012374
    16  H    0.000002  -0.000001   0.000082  -0.000431   0.002365   0.000758
    17  H    0.000000  -0.000000   0.000105  -0.000397   0.003205   0.001068
    18  H    0.000000  -0.000000  -0.000002  -0.000775   0.002397   0.000579
    19  H    0.000001  -0.000000   0.000013  -0.001373   0.003497   0.000887
    20  H    0.000000  -0.000000  -0.000000   0.000035  -0.000957  -0.000118
    21  H   -0.000000   0.000000  -0.000001   0.000206   0.000215  -0.000381
    22  H   -0.000000  -0.000000  -0.000004   0.000023  -0.000908  -0.000116
    23  H   -0.000243  -0.000274  -0.088661  -0.002396   0.001153  -0.003149
    24  C    0.017984   0.016632  -0.006602  -0.000186   0.000008  -0.000044
    25  H    0.003901   0.028372  -0.014264  -0.002452   0.000205  -0.001064
    26  H   -0.000405   0.003094   0.002631  -0.085436  -0.006892   0.031120
    27  F    0.003299   0.006487   0.003358   0.000059  -0.000001   0.000073
    28  F    0.005696   0.006426  -0.001251   0.000002   0.000000   0.000000
    29  F    0.006881   0.003530   0.003615  -0.000007  -0.000000  -0.000019
    30  S    0.081585   0.066124  -0.069802   0.001643  -0.000005   0.000172
    31  O    8.899029  -0.080109   0.033691  -0.000055  -0.000000   0.000025
    32  O   -0.080109   8.907250   0.007380   0.000160  -0.000000   0.000096
    33  H    0.033691   0.007380   0.967540   0.000584   0.000008   0.000685
    34  O   -0.000055   0.000160   0.000584   9.286646  -0.006688   0.391698
    35  O   -0.000000  -0.000000   0.000008  -0.006688   8.930240   0.288699
    36  C    0.000025   0.000096   0.000685   0.391698   0.288699   5.296816
    37  C    0.000004  -0.000036   0.000032  -0.308053  -0.116325  -0.458147
    38  C    0.000000  -0.000001   0.000002  -0.009293  -0.030652   0.016134
    39  H    0.000001  -0.000002   0.000012  -0.064273  -0.031174  -0.049691
    40  H    0.000001  -0.000004   0.000010  -0.061920  -0.029908  -0.049306
    41  H    0.000000  -0.000000   0.000000   0.001450   0.012706  -0.014132
    42  H    0.000000  -0.000000   0.000000   0.004411  -0.010406   0.025316
    43  H    0.000000  -0.000000  -0.000000   0.002455   0.011183  -0.011601
              37         38         39         40         41         42
     1  C    0.005851  -0.001264   0.001168   0.000625  -0.000530  -0.000046
     2  N   -0.027334  -0.003240  -0.004021  -0.003751  -0.000036   0.000175
     3  C   -0.018057  -0.001241  -0.000955  -0.000947   0.000240   0.000052
     4  O   -0.001177   0.000008  -0.000053  -0.000046   0.000003   0.000001
     5  N    0.009870   0.001935   0.003622   0.003785  -0.000452  -0.000252
     6  C    0.008028  -0.000206   0.000289   0.000160  -0.000096  -0.000307
     7  C    0.001177   0.005248  -0.000513  -0.000252  -0.000155   0.000323
     8  C    0.000531  -0.000880  -0.000091  -0.000082   0.000172  -0.000083
     9  C   -0.001705  -0.000148  -0.000154  -0.000182   0.000017  -0.000014
    10  C    0.001142   0.000074   0.000064   0.000118   0.000012   0.000001
    11  C    0.000223   0.000208  -0.000230  -0.000079   0.000015   0.000008
    12  C    0.001175  -0.000614   0.001712   0.001304  -0.000083  -0.000023
    13  C   -0.022054   0.001232  -0.010386  -0.009939   0.000276   0.000649
    14  H    0.018924   0.006225   0.002421   0.003431   0.001781  -0.001346
    15  H    0.011288  -0.007059   0.003720   0.002687  -0.002057   0.002461
    16  H    0.000565   0.000120   0.000052  -0.000003  -0.000042   0.000002
    17  H    0.000528   0.000068   0.000017   0.000059   0.000018  -0.000001
    18  H    0.001342  -0.000029   0.000247   0.000264  -0.000088  -0.000162
    19  H    0.001935  -0.000182   0.000290   0.000373   0.000313  -0.000230
    20  H    0.000014  -0.000040  -0.000007  -0.000007   0.000014  -0.000007
    21  H   -0.000222   0.000073  -0.000030  -0.000034  -0.000020   0.000031
    22  H   -0.000013  -0.000040  -0.000011  -0.000009   0.000012  -0.000007
    23  H   -0.000250  -0.000025  -0.000038  -0.000046  -0.000010   0.000005
    24  C    0.000025   0.000001  -0.000005   0.000002   0.000001   0.000000
    25  H   -0.000680   0.000051  -0.000157  -0.000168  -0.000008   0.000010
    26  H   -0.006134  -0.001004   0.002790   0.002314  -0.000108   0.000079
    27  F   -0.000000   0.000000   0.000004  -0.000002   0.000000   0.000000
    28  F   -0.000000   0.000000   0.000000  -0.000000  -0.000000   0.000000
    29  F   -0.000003  -0.000000  -0.000000  -0.000000  -0.000000  -0.000000
    30  S   -0.000077  -0.000011  -0.000002  -0.000004  -0.000001  -0.000001
    31  O    0.000004   0.000000   0.000001   0.000001   0.000000   0.000000
    32  O   -0.000036  -0.000001  -0.000002  -0.000004  -0.000000  -0.000000
    33  H    0.000032   0.000002   0.000012   0.000010   0.000000   0.000000
    34  O   -0.308053  -0.009293  -0.064273  -0.061920   0.001450   0.004411
    35  O   -0.116325  -0.030652  -0.031174  -0.029908   0.012706  -0.010406
    36  C   -0.458147   0.016134  -0.049691  -0.049306  -0.014132   0.025316
    37  C    6.090025   0.083659   0.509750   0.507688   0.037569  -0.063943
    38  C    0.083659   5.778200  -0.045179  -0.043948   0.367891   0.451754
    39  H    0.509750  -0.045179   0.441285   0.062016  -0.000842  -0.016309
    40  H    0.507688  -0.043948   0.062016   0.437969   0.000871  -0.016354
    41  H    0.037569   0.367891  -0.000842   0.000871   0.328945  -0.008207
    42  H   -0.063943   0.451754  -0.016309  -0.016354  -0.008207   0.366962
    43  H    0.036848   0.366021   0.000361  -0.000981   0.023887  -0.008413
              43
     1  C   -0.000233
     2  N   -0.000076
     3  C    0.000229
     4  O    0.000003
     5  N   -0.000723
     6  C    0.000156
     7  C   -0.000196
     8  C    0.000290
     9  C    0.000010
    10  C   -0.000015
    11  C    0.000055
    12  C   -0.000172
    13  C    0.000170
    14  H    0.002160
    15  H   -0.002926
    16  H    0.000021
    17  H   -0.000028
    18  H    0.000203
    19  H   -0.000102
    20  H    0.000021
    21  H   -0.000022
    22  H    0.000024
    23  H   -0.000007
    24  C   -0.000000
    25  H   -0.000002
    26  H   -0.000204
    27  F   -0.000000
    28  F    0.000000
    29  F   -0.000000
    30  S    0.000000
    31  O    0.000000
    32  O   -0.000000
    33  H   -0.000000
    34  O    0.002455
    35  O    0.011183
    36  C   -0.011601
    37  C    0.036848
    38  C    0.366021
    39  H    0.000361
    40  H   -0.000981
    41  H    0.023887
    42  H   -0.008413
    43  H    0.330498
 Mulliken charges:
               1
     1  C    1.076682
     2  N   -0.393571
     3  C   -0.208054
     4  O   -0.981760
     5  N   -0.236034
     6  C   -0.473777
     7  C   -0.344250
     8  C   -1.084129
     9  C   -0.932209
    10  C   -0.525589
    11  C    0.487027
    12  C   -0.568692
    13  C   -0.952730
    14  H    0.827655
    15  H    0.903559
    16  H    0.271586
    17  H    0.293099
    18  H    0.241453
    19  H    0.253625
    20  H    0.272761
    21  H    0.270924
    22  H    0.274021
    23  H    0.512490
    24  C    0.997226
    25  H    0.454756
    26  H    0.566273
    27  F   -0.400241
    28  F   -0.381962
    29  F   -0.402160
    30  S    1.931975
    31  O   -1.031284
    32  O   -1.031961
    33  H    0.430772
    34  O   -0.909547
    35  O   -0.778321
    36  C    0.643971
    37  C   -0.303982
    38  C   -0.933851
    39  H    0.194302
    40  H    0.194294
    41  H    0.250673
    42  H    0.273869
    43  H    0.251111
 Sum of Mulliken charges =  -1.00000
 Mulliken charges with hydrogens summed into heavy atoms:
               1
     1  C    1.076682
     2  N    0.434084
     3  C   -0.208054
     4  O   -0.981760
     5  N    0.667526
     6  C    0.090907
     7  C    0.150828
     8  C   -0.266423
     9  C   -0.419718
    10  C   -0.094817
    11  C    0.487027
    12  C   -0.113936
    13  C   -0.386457
    24  C    0.997226
    27  F   -0.400241
    28  F   -0.381962
    29  F   -0.402160
    30  S    1.931975
    31  O   -1.031284
    32  O   -1.031961
    34  O   -0.909547
    35  O   -0.778321
    36  C    0.643971
    37  C    0.084614
    38  C   -0.158198
 Electronic spatial extent (au):  <R**2>=          15712.5519
 Charge=             -1.0000 electrons
 Dipole moment (field-independent basis, Debye):
    X=             -1.2873    Y=             -0.5774    Z=              2.0137  Tot=              2.4588
 Quadrupole moment (field-independent basis, Debye-Ang):
   XX=           -248.2578   YY=           -181.1420   ZZ=           -162.2914
   XY=             -5.8557   XZ=            -11.1167   YZ=             -0.1327
 Traceless Quadrupole moment (field-independent basis, Debye-Ang):
   XX=            -51.0274   YY=             16.0884   ZZ=             34.9390
   XY=             -5.8557   XZ=            -11.1167   YZ=             -0.1327
 Octapole moment (field-independent basis, Debye-Ang**2):
  XXX=            -40.7020  YYY=             20.7883  ZZZ=             31.4618  XYY=            -82.2950
  XXY=            -52.2142  XXZ=             59.3382  XZZ=             -7.6819  YZZ=              1.1848
  YYZ=             13.6643  XYZ=             -2.9525
 Hexadecapole moment (field-independent basis, Debye-Ang**3):
 XXXX=         -18895.4174 YYYY=          -3656.3324 ZZZZ=           -659.3725 XXXY=           -229.9968
 XXXZ=           -480.1768 YYYX=             10.7328 YYYZ=              1.7092 ZZZX=           -147.6346
 ZZZY=              1.2249 XXYY=          -3660.3947 XXZZ=          -2907.1601 YYZZ=           -689.2777
 XXYZ=              1.5575 YYXZ=            -73.7047 ZZXY=             -5.2746
 N-N= 2.437470045917D+03 E-N=-8.959420071478D+03  KE= 1.718424992009D+03
 Unable to Open any file for archive entry.
 1\1\GINC-GADI-HMEM-CLX-0016\SP\RDSDPBEP86-FC\Aug-CC-pVTZ\C14H18F3N2O5S
 1(1-)\HIO507\18-Sep-2020\0\\# DSDPBEP86/AUG-cc-PVTZ SCF=Tight INT(grid
 =ultrafine) MaxDisk=1400000MB\\CP21_carboxy.DSDPBEP86_AUG-cc-PVTZ\\-1,
 1\C,0,-6.2111510061,1.2655915861,0.274763426\N,0,-5.0089055481,0.63773
 27268,0.118620779\C,0,-3.739999627,1.2229725967,0.1046140125\O,0,-3.53
 88506456,2.4245969976,0.2335706033\N,0,-2.7580657853,0.3142114586,-0.0
 689893863\C,0,-1.375886293,0.7373441687,-0.1073208982\C,0,-0.476291956
 3,-0.4656452619,-0.3589029925\C,0,0.9950303821,-0.0668567671,-0.403565
 0831\C,0,-6.3749869184,2.6577605213,0.4584962807\C,0,-7.641643255,3.18
 73758279,0.6084522172\C,0,-8.7596146385,2.350751332,0.5807772481\C,0,-
 8.619085744,0.9690427994,0.3968479523\C,0,-7.3607396056,0.4350166965,0
 .2480231969\H,0,-5.0603425704,-0.3964629496,-0.0004888682\H,0,-2.96481
 38409,-0.6928289369,-0.1643515687\H,0,-1.1049877491,1.2260175329,0.836
 9496994\H,0,-1.2382758599,1.4897033637,-0.8931223909\H,0,-0.773371268,
 -0.944241925,-1.2965178762\H,0,-0.6490359732,-1.2126348652,0.421133896
 9\H,0,1.1832468171,0.6619123421,-1.1973560003\H,0,1.6372436764,-0.9311
 000571,-0.5871626689\H,0,1.3104191076,0.3870311539,0.5403948769\H,0,-5
 .5028356761,3.292155232,0.4858206587\C,0,-10.7833503618,3.4221110137,-
 1.0752633692\H,0,-9.4973310897,0.333772249,0.385126746\H,0,-7.21844167
 84,-0.6325710544,0.1135994658\F,0,-10.7797427144,2.3132265112,-1.80596
 46194\F,0,-11.9969535127,3.9617787054,-1.1250917129\F,0,-9.9142483282,
 4.2801455676,-1.5977852137\S,0,-10.3468615008,3.0427973379,0.699673145
 5\O,0,-10.3009043195,4.3498664472,1.3307481234\O,0,-11.3237176235,2.04
 26168594,1.0916112944\H,0,-7.7744000241,4.252892008,0.7590703389\O,0,-
 5.36519877,-2.0714137723,-0.1697155453\O,0,-3.1688853926,-2.4557192076
 ,-0.3407430429\C,0,-4.3639633474,-2.8218754669,-0.3078563609\C,0,-4.66
 59355863,-4.3206173784,-0.4447881101\C,0,-3.43249862,-5.1933613683,-0.
 6288064061\H,0,-5.360506735,-4.4328836734,-1.2830174966\H,0,-5.2304425
 585,-4.6155205401,0.445378173\H,0,-2.8802192913,-4.8985084135,-1.52262
 72984\H,0,-3.7020038121,-6.2500114971,-0.7195703161\H,0,-2.7500107568,
 -5.0805299012,0.2150650903\\Version=ES64L-G16RevC.01\State=1-A\HF=-172
 3.4337157\MP2=-1725.8861461\RMSD=4.035e-09\PG=C01 [X(C14H18F3N2O5S1)]\
 \@
 The archive entry for this job was punched.


 WHEN A MATHEMATICIAN ENGAGED IN INVESTIGATING
 PHYSICAL ACTIONS AND RESULTS HAS ARRIVED AT HIS
 CONCLUSIONS, MAY THEY NOT BE EXPRESSED IN COMMON
 LANGUAGE AS FULLY, CLEARLY, AND DEFINITELY AS IN
 MATHEMATICAL FORMULAE?
           - LETTER FROM M. FARADAY TO J.C. MAXWELL, 1857.
 Job cpu time:       9 days 13 hours  9 minutes 11.3 seconds.
 Elapsed time:       0 days  7 hours 18 minutes 31.7 seconds.
 File lengths (MBytes):  RWF=   1265 Int=      0 D2E=      0 Chk=    160 Scr=      1
 Normal termination of Gaussian 16 at Fri Sep 18 18:20:40 2020.
