 Entering Gaussian System, Link 0=/apps/gaussian/g16c01/g16/g16
 Initial command:
 /apps/gaussian/g16c01/g16/l1.exe "/jobfs/11546669.gadi-pbs/Gau-484715.inp" -scrdir="/jobfs/11546669.gadi-pbs/"
 Entering Link 1 = /apps/gaussian/g16c01/g16/l1.exe PID=    484716.
  
 Copyright (c) 1988-2019, Gaussian, Inc.  All Rights Reserved.
  
 This is part of the Gaussian(R) 16 program.  It is based on
 the Gaussian(R) 09 system (copyright 2009, Gaussian, Inc.),
 the Gaussian(R) 03 system (copyright 2003, Gaussian, Inc.),
 the Gaussian(R) 98 system (copyright 1998, Gaussian, Inc.),
 the Gaussian(R) 94 system (copyright 1995, Gaussian, Inc.),
 the Gaussian 92(TM) system (copyright 1992, Gaussian, Inc.),
 the Gaussian 90(TM) system (copyright 1990, Gaussian, Inc.),
 the Gaussian 88(TM) system (copyright 1988, Gaussian, Inc.),
 the Gaussian 86(TM) system (copyright 1986, Carnegie Mellon
 University), and the Gaussian 82(TM) system (copyright 1983,
 Carnegie Mellon University). Gaussian is a federally registered
 trademark of Gaussian, Inc.
  
 This software contains proprietary and confidential information,
 including trade secrets, belonging to Gaussian, Inc.
  
 This software is provided under written license and may be
 used, copied, transmitted, or stored only in accord with that
 written license.
  
 The following legend is applicable only to US Government
 contracts under FAR:
  
                    RESTRICTED RIGHTS LEGEND
  
 Use, reproduction and disclosure by the US Government is
 subject to restrictions as set forth in subparagraphs (a)
 and (c) of the Commercial Computer Software - Restricted
 Rights clause in FAR 52.227-19.
  
 Gaussian, Inc.
 340 Quinnipiac St., Bldg. 40, Wallingford CT 06492
  
  
 ---------------------------------------------------------------
 Warning -- This program may not be used in any manner that
 competes with the business of Gaussian, Inc. or will provide
 assistance to any competitor of Gaussian, Inc.  The licensee
 of this program is prohibited from giving any competitor of
 Gaussian, Inc. access to this program.  By using this program,
 the user acknowledges that Gaussian, Inc. is engaged in the
 business of creating and licensing software in the field of
 computational chemistry and represents and warrants to the
 licensee that it is not a competitor of Gaussian, Inc. and that
 it will not use this program in any manner prohibited above.
 ---------------------------------------------------------------
  

 Cite this work as:
 Gaussian 16, Revision C.01,
 M. J. Frisch, G. W. Trucks, H. B. Schlegel, G. E. Scuseria, 
 M. A. Robb, J. R. Cheeseman, G. Scalmani, V. Barone, 
 G. A. Petersson, H. Nakatsuji, X. Li, M. Caricato, A. V. Marenich, 
 J. Bloino, B. G. Janesko, R. Gomperts, B. Mennucci, H. P. Hratchian, 
 J. V. Ortiz, A. F. Izmaylov, J. L. Sonnenberg, D. Williams-Young, 
 F. Ding, F. Lipparini, F. Egidi, J. Goings, B. Peng, A. Petrone, 
 T. Henderson, D. Ranasinghe, V. G. Zakrzewski, J. Gao, N. Rega, 
 G. Zheng, W. Liang, M. Hada, M. Ehara, K. Toyota, R. Fukuda, 
 J. Hasegawa, M. Ishida, T. Nakajima, Y. Honda, O. Kitao, H. Nakai, 
 T. Vreven, K. Throssell, J. A. Montgomery, Jr., J. E. Peralta, 
 F. Ogliaro, M. J. Bearpark, J. J. Heyd, E. N. Brothers, K. N. Kudin, 
 V. N. Staroverov, T. A. Keith, R. Kobayashi, J. Normand, 
 K. Raghavachari, A. P. Rendell, J. C. Burant, S. S. Iyengar, 
 J. Tomasi, M. Cossi, J. M. Millam, M. Klene, C. Adamo, R. Cammi, 
 J. W. Ochterski, R. L. Martin, K. Morokuma, O. Farkas, 
 J. B. Foresman, and D. J. Fox, Gaussian, Inc., Wallingford CT, 2019.
 
 ******************************************
 Gaussian 16:  ES64L-G16RevC.01  3-Jul-2019
                21-Sep-2020 
 ******************************************
 %NprocShared=6
 Will use up to    6 processors via shared memory.
 %Mem=1194000MB
 %chk=NM3_c2.DSDPBEP86_AUG-cc-PVTZ.chk
 ----------------------------------------------------------------------
 # DSDPBEP86/AUG-cc-PVTZ SCF=Tight INT(grid=ultrafine) MaxDisk=1400000M
 B
 ----------------------------------------------------------------------
 1/38=1,172=1/1;
 2/12=2,17=6,18=5,40=1/2;
 3/5=16,6=1,7=10,11=9,25=1,30=1,74=-77,75=-5/1,2,3;
 4//1;
 5/5=2,32=2,38=5/2;
 8/10=1/1;
 9/16=-3/6;
 6/7=2,8=2,9=2,10=2/1;
 99/5=1,9=1/99;
 ----------------------------
 NM3_c2.DSDPBEP86_AUG-cc-PVTZ
 ----------------------------
 Symbolic Z-matrix:
 Charge =  0 Multiplicity = 1
 C                    -5.99176   1.40374   0.21975 
 N                    -4.75785   0.74606   0.193 
 C                    -3.50008   1.31934   0.02907 
 O                    -3.31611   2.50386  -0.14456 
 N                    -2.48202   0.39953   0.05436 
 C                    -1.10369   0.87202   0.01244 
 C                    -0.14688  -0.29685  -0.16994 
 C                     1.30396   0.17117  -0.22423 
 C                    -7.14075   0.60545   0.22784 
 C                    -8.39346   1.19376   0.27137 
 C                    -8.54814   2.57368   0.30996 
 C                    -7.39635   3.34575   0.30116 
 C                    -6.1226    2.79581   0.25695 
 H                    -4.80937  -0.2597    0.13332 
 H                    -2.64103  -0.47544   0.53283 
 H                    -0.85948   1.43235   0.92272 
 H                    -1.01995   1.57041  -0.82168 
 H                    -0.40808  -0.83125  -1.08809 
 H                    -0.2716   -1.00667   0.65655 
 H                     1.46182   0.86224  -1.05551 
 H                     1.98613  -0.66981  -0.35655 
 H                     1.58687   0.68817   0.69579 
 H                    -7.05539  -0.4754    0.19322 
 Cl                   -7.55001   5.07889   0.34255 
 H                    -5.25113   3.43167   0.24018 
 C                    -9.61116   0.31617   0.34245 
 H                    -9.52743   3.03301   0.3369 
 F                    -9.94284   0.03639   1.61405 
 F                    -10.67996   0.89299  -0.21922 
 F                    -9.41932  -0.86031  -0.2726 
 
                          Input orientation:                          
 ---------------------------------------------------------------------
 Center     Atomic      Atomic             Coordinates (Angstroms)
 Number     Number       Type             X           Y           Z
 ---------------------------------------------------------------------
      1          6           0       -5.991756    1.403744    0.219746
      2          7           0       -4.757854    0.746065    0.192997
      3          6           0       -3.500083    1.319336    0.029072
      4          8           0       -3.316108    2.503865   -0.144556
      5          7           0       -2.482023    0.399530    0.054365
      6          6           0       -1.103694    0.872024    0.012444
      7          6           0       -0.146882   -0.296846   -0.169936
      8          6           0        1.303961    0.171166   -0.224226
      9          6           0       -7.140750    0.605455    0.227838
     10          6           0       -8.393462    1.193758    0.271367
     11          6           0       -8.548143    2.573676    0.309961
     12          6           0       -7.396353    3.345747    0.301156
     13          6           0       -6.122599    2.795806    0.256951
     14          1           0       -4.809374   -0.259700    0.133324
     15          1           0       -2.641025   -0.475443    0.532826
     16          1           0       -0.859478    1.432352    0.922720
     17          1           0       -1.019951    1.570410   -0.821677
     18          1           0       -0.408083   -0.831251   -1.088091
     19          1           0       -0.271604   -1.006671    0.656547
     20          1           0        1.461817    0.862239   -1.055507
     21          1           0        1.986128   -0.669812   -0.356546
     22          1           0        1.586869    0.688174    0.695785
     23          1           0       -7.055390   -0.475399    0.193225
     24         17           0       -7.550013    5.078889    0.342553
     25          1           0       -5.251129    3.431665    0.240184
     26          6           0       -9.611161    0.316173    0.342448
     27          1           0       -9.527427    3.033012    0.336904
     28          9           0       -9.942844    0.036386    1.614052
     29          9           0      -10.679963    0.892994   -0.219224
     30          9           0       -9.419318   -0.860314   -0.272602
 ---------------------------------------------------------------------
                    Distance matrix (angstroms):
                    1          2          3          4          5
     1  C    0.000000
     2  N    1.398489   0.000000
     3  C    2.500383   1.391940   0.000000
     4  O    2.915832   2.298355   1.211240   0.000000
     5  N    3.654315   2.306233   1.372271   2.272331   0.000000
     6  C    4.921265   3.660786   2.437836   2.753603   1.457669
     7  C    6.099706   4.741355   3.727681   4.229494   2.447067
     8  C    7.412412   6.103293   4.945836   5.176183   3.803083
     9  C    1.399114   2.387295   3.715318   4.286085   4.666501
    10  C    2.411421   3.663907   4.900982   5.260123   5.968500
    11  C    2.812827   4.209529   5.209143   5.252204   6.449035
    12  C    2.398102   3.705634   4.400147   4.189967   5.735132
    13  C    1.398692   2.463343   3.018192   2.850058   4.363137
    14  H    2.042681   1.008850   2.053890   3.153467   2.420202
    15  H    3.854447   2.467495   2.052555   3.129035   1.009844
    16  H    5.180276   4.025024   2.790013   2.884830   2.110311
    17  H    5.082439   3.959928   2.633984   2.569468   2.067865
    18  H    6.154921   4.801002   3.928555   4.524364   2.668568
    19  H    6.222623   4.838740   4.028289   4.715361   2.688118
    20  H    7.581244   6.344807   5.099579   5.133550   4.123081
    21  H    8.263074   6.912887   5.848412   6.183112   4.612669
    22  H    7.627202   6.364877   5.169135   5.295478   4.129240
    23  H    2.159445   2.602046   3.986004   4.792947   4.658376
    24  Cl   3.993736   5.156731   5.534838   4.979355   6.903909
    25  H    2.159030   2.730933   2.751847   2.180171   4.110513
    26  C    3.781264   4.874600   6.200791   6.682130   7.135442
    27  H    3.894767   5.291471   6.273780   6.252383   7.526803
    28  F    4.407364   5.422837   6.757758   7.286617   7.630750
    29  F    4.736333   5.938257   7.196811   7.538358   8.217334
    30  F    4.137216   4.952422   6.315000   6.970171   7.058341
                    6          7          8          9         10
     6  C    0.000000
     7  C    1.521516   0.000000
     8  C    2.518734   1.525427   0.000000
     9  C    6.046776   7.063042   8.467947   0.000000
    10  C    7.301456   8.391825   9.763776   1.384659   0.000000
    11  C    7.642248   8.891085  10.154869   2.421032   1.389097
    12  C    6.767586   8.126823   9.276285   2.753164   2.371955
    13  C    5.380532   6.742101   7.891392   2.415599   2.779134
    14  H    3.876529   4.672492   6.138921   2.488522   3.870050
    15  H    2.109468   2.597407   4.068679   4.637767   5.995425
    16  H    1.096455   2.166061   2.754369   6.373460   7.565850
    17  H    1.091106   2.161865   2.777661   6.284649   7.463597
    18  H    2.143875   1.093994   2.163839   7.008894   8.349554
    19  H    2.153309   1.096578   2.155335   7.068798   8.423469
    20  H    2.778932   2.171549   1.092487   8.701556   9.949725
    21  H    3.472811   2.173398   1.090919   9.234052  10.564235
    22  H    2.782065   2.173852   1.092591   8.740547  10.002138
    23  H    6.104991   6.920351   8.394705   1.084772   2.140707
    24  Cl   7.704655   9.163379  10.139025   4.493581   3.976269
    25  H    4.879021   6.334298   7.335921   3.399748   3.857908
    26  C    8.531990   9.497942  10.930784   2.489929   1.502664
    27  H    8.702553   9.966919  11.217130   3.406047   2.161719
    28  F    9.021863   9.962657  11.396844   3.177603   2.354336
    29  F    9.579094  10.600187  12.005645   3.578907   2.357802
    30  F    8.498933   9.290109  10.772884   2.755139   2.359554
                   11         12         13         14         15
    11  C    0.000000
    12  C    1.386647   0.000000
    13  C    2.436271   1.388106   0.000000
    14  H    4.694424   4.440707   3.328057   0.000000
    15  H    6.651379   6.104778   4.785241   2.215374   0.000000
    16  H    7.797029   6.839456   5.477471   4.368966   2.639244
    17  H    7.678595   6.713500   5.357429   4.315212   2.940761
    18  H    8.933569   8.259131   6.900752   4.603247   2.782086
    19  H    9.024417   8.356548   6.989467   4.628508   2.431392
    20  H   10.246601   9.299222   7.936284   6.480733   4.598425
    21  H   11.042433  10.226839   8.839589   6.825468   4.715857
    22  H   10.316126   9.376391   8.004411   6.490513   4.388126
    23  H    3.396881   3.837846   3.402197   2.257145   4.427408
    24  Cl   2.696927   1.740432   2.693938   6.004616   7.415185
    25  H    3.407538   2.147810   1.078915   3.719240   4.707842
    26  C    2.495472   3.753051   4.280882   4.840715   7.017527
    27  H    1.081995   2.154195   3.414017   5.757033   7.731117
    28  F    3.175482   4.377235   4.904120   5.350957   7.399161
    29  F    2.765753   4.131451   4.961553   5.993064   8.189184
    30  F    3.590350   4.702397   4.951363   4.666594   6.836820
                   16         17         18         19         20
    16  H    0.000000
    17  H    1.757195   0.000000
    18  H    3.061213   2.492657   0.000000
    19  H    2.522951   3.063743   1.758739   0.000000
    20  H    3.102713   2.591401   2.522994   3.070620   0.000000
    21  H    3.762060   3.777758   2.508679   2.497436   1.763697
    22  H    2.567084   3.142697   3.077451   2.515544   1.764358
    23  H    6.523879   6.453053   6.779018   6.820313   8.711569
    24  Cl   7.641797   7.503770   9.379960   9.492516  10.047278
    25  H    4.873366   4.742856   6.587250   6.683402   7.303726
    26  C    8.841635   8.759976   9.384011   9.438003  11.174225
    27  H    8.833947   8.709688  10.006277  10.104033  11.287806
    28  F    9.215975   9.375715   9.948168   9.774337  11.742014
    29  F    9.901357   9.702458  10.451769  10.616480  12.170586
    30  F    8.941811   8.761238   9.048106   9.195946  11.044422
                   21         22         23         24         25
    21  H    0.000000
    22  H    1.763784   0.000000
    23  H    9.060303   8.734707   0.000000
    24  Cl  11.156804  10.143262   5.578267   0.000000
    25  H    8.340029   7.381906   4.303802   2.829963   0.000000
    26  C   11.660097  11.209777   2.679705   5.189585   5.359722
    27  H   12.114195  11.364623   4.294247   2.845314   4.295929
    28  F   12.111249  11.584573   3.258537   5.724438   5.952111
    29  F   12.762880  12.302617   3.896171   5.256796   6.010670
    30  F   11.407346  11.156691   2.439941   6.256744   6.004818
                   26         27         28         29         30
    26  C    0.000000
    27  H    2.718134   0.000000
    28  F    1.343604   3.283816   0.000000
    29  F    1.338110   2.493450   2.153607   0.000000
    30  F    1.341347   3.942229   2.153512   2.160131   0.000000
 Stoichiometry    C11H12ClF3N2O
 Framework group  C1[X(C11H12ClF3N2O)]
 Deg. of freedom    84
 Full point group                 C1      NOp   1
 Largest Abelian subgroup         C1      NOp   1
 Largest concise Abelian subgroup C1      NOp   1
                         Standard orientation:                         
 ---------------------------------------------------------------------
 Center     Atomic      Atomic             Coordinates (Angstroms)
 Number     Number       Type             X           Y           Z
 ---------------------------------------------------------------------
      1          6           0       -0.136200   -0.056761    0.030045
      2          7           0        1.163368   -0.571491    0.074173
      3          6           0        2.355755    0.138752   -0.031971
      4          8           0        2.414557    1.335406   -0.209911
      5          7           0        3.467815   -0.660422    0.056181
      6          6           0        4.784775   -0.036014    0.079224
      7          6           0        5.874810   -1.090799   -0.040208
      8          6           0        7.264874   -0.462754   -0.025756
      9          6           0       -1.187292   -0.979270   -0.011215
     10          6           0       -2.498622   -0.535492   -0.038731
     11          6           0       -2.808849    0.818444   -0.024361
     12          6           0       -1.752006    1.715212    0.016641
     13          6           0       -0.424061    1.311916    0.044104
     14          1           0        1.228124   -1.576999    0.023801
     15          1           0        3.383196   -1.544866    0.536164
     16          1           0        4.916837    0.553662    0.994131
     17          1           0        4.833054    0.662375   -0.757695
     18          1           0        5.723397   -1.656677   -0.964156
     19          1           0        5.787547   -1.805214    0.787125
     20          1           0        7.387370    0.236729   -0.855964
     21          1           0        8.042997   -1.222359   -0.113103
     22          1           0        7.439681    0.088292    0.901361
     23          1           0       -0.979594   -2.043829   -0.028679
     24         17           0       -2.100969    3.420251    0.029700
     25          1           0        0.370301    2.041734    0.064426
     26          6           0       -3.612284   -1.544150   -0.019668
     27          1           0       -3.833525    1.164761   -0.052939
     28          9           0       -3.976342   -1.851916    1.236522
     29          9           0       -4.708279   -1.094684   -0.642012
     30          9           0       -3.257940   -2.695205   -0.610198
 ---------------------------------------------------------------------
 Rotational constants (GHZ):           0.5801258           0.1449030           0.1186651
 Standard basis: Aug-CC-pVTZ (5D, 7F)
 There are  1294 symmetry adapted cartesian basis functions of A   symmetry.
 There are  1108 symmetry adapted basis functions of A   symmetry.
  1108 basis functions,  1662 primitive gaussians,  1294 cartesian basis functions
    72 alpha electrons       72 beta electrons
       nuclear repulsion energy      1411.6979067843 Hartrees.
 NAtoms=   30 NActive=   30 NUniq=   30 SFac= 1.00D+00 NAtFMM=   60 NAOKFM=F Big=F
 Integral buffers will be    131072 words long.
 Regular integral format.
 Two-electron integral symmetry is turned on.
 Nuclear repulsion after empirical dispersion term =     1411.6753263468 Hartrees.
 One-electron integrals computed using PRISM.
 NBasis=  1108 RedAO= T EigKep=  1.19D-06  NBF=  1108
 NBsUse=  1106 1.00D-06 EigRej=  6.27D-07 NBFU=  1106
 ExpMin= 2.53D-02 ExpMax= 4.56D+05 ExpMxC= 1.44D+03 IAcc=3 IRadAn=         5 AccDes= 0.00D+00
 Harris functional with IExCor= 1004 and IRadAn=       5 diagonalized for initial guess.
 HarFok:  IExCor= 1004 AccDes= 0.00D+00 IRadAn=         5 IDoV= 1 UseB2=F ITyADJ=14
 ICtDFT=  3500011 ScaDFX=  1.000000  1.000000  1.000000  1.000000
 FoFCou: FMM=F IPFlag=           0 FMFlag=      100000 FMFlg1=           0
         NFxFlg=           0 DoJE=T BraDBF=F KetDBF=T FulRan=T
         wScrn=  0.000000 ICntrl=       500 IOpCl=  0 I1Cent=   200000004 NGrid=           0
         NMat0=    1 NMatS0=      1 NMatT0=    0 NMatD0=    1 NMtDS0=    0 NMtDT0=    0
 Petite list used in FoFCou.
 Requested convergence on RMS density matrix=1.00D-08 within 128 cycles.
 Requested convergence on MAX density matrix=1.00D-06.
 Requested convergence on             energy=1.00D-06.
 No special actions if energy rises.
 SCF Done:  E(RDSDPBEP86) =  -1367.77179244     A.U. after   13 cycles
            NFock= 13  Conv=0.74D-08     -V/T= 2.0025
 DoSCS=T DFT=T ScalE2(SS,OS)=  0.220000  0.520000
 ExpMin= 2.53D-02 ExpMax= 4.56D+05 ExpMxC= 1.44D+03 IAcc=3 IRadAn=         5 AccDes= 0.00D+00
 HarFok:  IExCor=  205 AccDes= 0.00D+00 IRadAn=         5 IDoV=-2 UseB2=F ITyADJ=14
 ICtDFT= 12500011 ScaDFX=  1.000000  1.000000  1.000000  1.000000
 GSVD:  LWork=        -660 too small for GESVD, short by        2750 words or        2750 for optimal perf.
 Range of M.O.s used for correlation:    23  1106
 NBasis=  1108 NAE=    72 NBE=    72 NFC=    22 NFV=     0
 NROrb=   1084 NOA=    50 NOB=    50 NVA=  1034 NVB=  1034

 **** Warning!!: The largest alpha MO coefficient is  0.14624970D+03

 DoSCS=T DFT=T ScalE2(SS,OS)=  0.220000  0.520000
 Fully direct method using O(OVN) memory.
 JobTyp=1 Pass  1:  I=   1 to  50 NPSUse=  6 ParTrn=T ParDer=T DoDerP=F.
 Spin components of T(2) and E(2):
     alpha-alpha T2 =       0.1749183387D+00 E2=     -0.1096527885D+00
     alpha-beta  T2 =       0.9075862112D+00 E2=     -0.1475771366D+01
     beta-beta   T2 =       0.1749183387D+00 E2=     -0.1096527885D+00
 E2(DSDPBEP86) =    -0.1695076943D+01 E(DSDPBEP86) =    -0.13694668693826D+04

 **********************************************************************

            Population analysis using the SCF Density.

 **********************************************************************

 Orbital symmetries:
       Occupied  (A) (A) (A) (A) (A) (A) (A) (A) (A) (A) (A) (A)
                 (A) (A) (A) (A) (A) (A) (A) (A) (A) (A) (A) (A)
                 (A) (A) (A) (A) (A) (A) (A) (A) (A) (A) (A) (A)
                 (A) (A) (A) (A) (A) (A) (A) (A) (A) (A) (A) (A)
                 (A) (A) (A) (A) (A) (A) (A) (A) (A) (A) (A) (A)
                 (A) (A) (A) (A) (A) (A) (A) (A) (A) (A) (A) (A)
       Virtual   (A) (A) (A) (A) (A) (A) (A) (A) (A) (A) (A) (A)
                 (A) (A) (A) (A) (A) (A) (A) (A) (A) (A) (A) (A)
                 (A) (A) (A) (A) (A) (A) (A) (A) (A) (A) (A) (A)
                 (A) (A) (A) (A) (A) (A) (A) (A) (A) (A) (A) (A)
                 (A) (A) (A) (A) (A) (A) (A) (A) (A) (A) (A) (A)
                 (A) (A) (A) (A) (A) (A) (A) (A) (A) (A) (A) (A)
                 (A) (A) (A) (A) (A) (A) (A) (A) (A) (A) (A) (A)
                 (A) (A) (A) (A) (A) (A) (A) (A) (A) (A) (A) (A)
                 (A) (A) (A) (A) (A) (A) (A) (A) (A) (A) (A) (A)
                 (A) (A) (A) (A) (A) (A) (A) (A) (A) (A) (A) (A)
                 (A) (A) (A) (A) (A) (A) (A) (A) (A) (A) (A) (A)
                 (A) (A) (A) (A) (A) (A) (A) (A) (A) (A) (A) (A)
                 (A) (A) (A) (A) (A) (A) (A) (A) (A) (A) (A) (A)
                 (A) (A) (A) (A) (A) (A) (A) (A) (A) (A) (A) (A)
                 (A) (A) (A) (A) (A) (A) (A) (A) (A) (A) (A) (A)
                 (A) (A) (A) (A) (A) (A) (A) (A) (A) (A) (A) (A)
                 (A) (A) (A) (A) (A) (A) (A) (A) (A) (A) (A) (A)
                 (A) (A) (A) (A) (A) (A) (A) (A) (A) (A) (A) (A)
                 (A) (A) (A) (A) (A) (A) (A) (A) (A) (A) (A) (A)
                 (A) (A) (A) (A) (A) (A) (A) (A) (A) (A) (A) (A)
                 (A) (A) (A) (A) (A) (A) (A) (A) (A) (A) (A) (A)
                 (A) (A) (A) (A) (A) (A) (A) (A) (A) (A) (A) (A)
                 (A) (A) (A) (A) (A) (A) (A) (A) (A) (A) (A) (A)
                 (A) (A) (A) (A) (A) (A) (A) (A) (A) (A) (A) (A)
                 (A) (A) (A) (A) (A) (A) (A) (A) (A) (A) (A) (A)
                 (A) (A) (A) (A) (A) (A) (A) (A) (A) (A) (A) (A)
                 (A) (A) (A) (A) (A) (A) (A) (A) (A) (A) (A) (A)
                 (A) (A) (A) (A) (A) (A) (A) (A) (A) (A) (A) (A)
                 (A) (A) (A) (A) (A) (A) (A) (A) (A) (A) (A) (A)
                 (A) (A) (A) (A) (A) (A) (A) (A) (A) (A) (A) (A)
                 (A) (A) (A) (A) (A) (A) (A) (A) (A) (A) (A) (A)
                 (A) (A) (A) (A) (A) (A) (A) (A) (A) (A) (A) (A)
                 (A) (A) (A) (A) (A) (A) (A) (A) (A) (A) (A) (A)
                 (A) (A) (A) (A) (A) (A) (A) (A) (A) (A) (A) (A)
                 (A) (A) (A) (A) (A) (A) (A) (A) (A) (A) (A) (A)
                 (A) (A) (A) (A) (A) (A) (A) (A) (A) (A) (A) (A)
                 (A) (A) (A) (A) (A) (A) (A) (A) (A) (A) (A) (A)
                 (A) (A) (A) (A) (A) (A) (A) (A) (A) (A) (A) (A)
                 (A) (A) (A) (A) (A) (A) (A) (A) (A) (A) (A) (A)
                 (A) (A) (A) (A) (A) (A) (A) (A) (A) (A) (A) (A)
                 (A) (A) (A) (A) (A) (A) (A) (A) (A) (A) (A) (A)
                 (A) (A) (A) (A) (A) (A) (A) (A) (A) (A) (A) (A)
                 (A) (A) (A) (A) (A) (A) (A) (A) (A) (A) (A) (A)
                 (A) (A) (A) (A) (A) (A) (A) (A) (A) (A) (A) (A)
                 (A) (A) (A) (A) (A) (A) (A) (A) (A) (A) (A) (A)
                 (A) (A) (A) (A) (A) (A) (A) (A) (A) (A) (A) (A)
                 (A) (A) (A) (A) (A) (A) (A) (A) (A) (A) (A) (A)
                 (A) (A) (A) (A) (A) (A) (A) (A) (A) (A) (A) (A)
                 (A) (A) (A) (A) (A) (A) (A) (A) (A) (A) (A) (A)
                 (A) (A) (A) (A) (A) (A) (A) (A) (A) (A) (A) (A)
                 (A) (A) (A) (A) (A) (A) (A) (A) (A) (A) (A) (A)
                 (A) (A) (A) (A) (A) (A) (A) (A) (A) (A) (A) (A)
                 (A) (A) (A) (A) (A) (A) (A) (A) (A) (A) (A) (A)
                 (A) (A) (A) (A) (A) (A) (A) (A) (A) (A) (A) (A)
                 (A) (A) (A) (A) (A) (A) (A) (A) (A) (A) (A) (A)
                 (A) (A) (A) (A) (A) (A) (A) (A) (A) (A) (A) (A)
                 (A) (A) (A) (A) (A) (A) (A) (A) (A) (A) (A) (A)
                 (A) (A) (A) (A) (A) (A) (A) (A) (A) (A) (A) (A)
                 (A) (A) (A) (A) (A) (A) (A) (A) (A) (A) (A) (A)
                 (A) (A) (A) (A) (A) (A) (A) (A) (A) (A) (A) (A)
                 (A) (A) (A) (A) (A) (A) (A) (A) (A) (A) (A) (A)
                 (A) (A) (A) (A) (A) (A) (A) (A) (A) (A) (A) (A)
                 (A) (A) (A) (A) (A) (A) (A) (A) (A) (A) (A) (A)
                 (A) (A) (A) (A) (A) (A) (A) (A) (A) (A) (A) (A)
                 (A) (A) (A) (A) (A) (A) (A) (A) (A) (A) (A) (A)
                 (A) (A) (A) (A) (A) (A) (A) (A) (A) (A) (A) (A)
                 (A) (A) (A) (A) (A) (A) (A) (A) (A) (A) (A) (A)
                 (A) (A) (A) (A) (A) (A) (A) (A) (A) (A) (A) (A)
                 (A) (A) (A) (A) (A) (A) (A) (A) (A) (A) (A) (A)
                 (A) (A) (A) (A) (A) (A) (A) (A) (A) (A) (A) (A)
                 (A) (A) (A) (A) (A) (A) (A) (A) (A) (A) (A) (A)
                 (A) (A) (A) (A) (A) (A) (A) (A) (A) (A) (A) (A)
                 (A) (A) (A) (A) (A) (A) (A) (A) (A) (A) (A) (A)
                 (A) (A) (A) (A) (A) (A) (A) (A) (A) (A) (A) (A)
                 (A) (A) (A) (A) (A) (A) (A) (A) (A) (A) (A) (A)
                 (A) (A) (A) (A) (A) (A) (A) (A) (A) (A) (A) (A)
                 (A) (A) (A) (A) (A) (A) (A) (A) (A) (A) (A) (A)
                 (A) (A) (A) (A) (A) (A) (A) (A) (A) (A) (A) (A)
                 (A) (A) (A) (A) (A) (A) (A) (A) (A) (A) (A) (A)
                 (A) (A) (A) (A) (A) (A) (A) (A) (A) (A) (A) (A)
                 (A) (A) (A) (A) (A) (A) (A) (A) (A) (A) (A) (A)
                 (A) (A) (A) (A) (A) (A) (A) (A) (A) (A) (A) (A)
                 (A) (A) (A) (A) (A) (A) (A) (A) (A) (A) (A) (A)
                 (A) (A) (A) (A) (A) (A) (A) (A) (A) (A) (A) (A)
                 (A) (A) (A) (A) (A) (A) (A) (A) (A) (A) (A) (A)
                 (A) (A) (A) (A) (A) (A) (A) (A) (A) (A) (A) (A)
                 (A) (A)
 The electronic state is 1-A.
 Alpha  occ. eigenvalues -- -103.57529 -25.71604 -25.71513 -25.71102 -19.98210
 Alpha  occ. eigenvalues --  -15.13804 -15.11617 -11.09126 -10.97590 -10.90376
 Alpha  occ. eigenvalues --  -10.90319 -10.86735 -10.85973 -10.85168 -10.84745
 Alpha  occ. eigenvalues --  -10.84130 -10.83079 -10.81717 -10.15027  -7.72706
 Alpha  occ. eigenvalues --   -7.72235  -7.72218  -1.58052  -1.48788  -1.48305
 Alpha  occ. eigenvalues --   -1.29169  -1.16724  -1.13080  -1.09073  -1.03480
 Alpha  occ. eigenvalues --   -0.97752  -0.95842  -0.92239  -0.87937  -0.85749
 Alpha  occ. eigenvalues --   -0.80176  -0.78184  -0.75349  -0.74876  -0.74155
 Alpha  occ. eigenvalues --   -0.73868  -0.70582  -0.68729  -0.64346  -0.64026
 Alpha  occ. eigenvalues --   -0.62621  -0.62162  -0.61076  -0.59973  -0.58415
 Alpha  occ. eigenvalues --   -0.58065  -0.57752  -0.56914  -0.56269  -0.55807
 Alpha  occ. eigenvalues --   -0.54882  -0.53062  -0.52608  -0.51224  -0.49854
 Alpha  occ. eigenvalues --   -0.49789  -0.47587  -0.47034  -0.45538  -0.44743
 Alpha  occ. eigenvalues --   -0.44066  -0.41025  -0.40887  -0.39629  -0.36558
 Alpha  occ. eigenvalues --   -0.32925  -0.30080
 Alpha virt. eigenvalues --    0.00275   0.01567   0.02425   0.02581   0.02944
 Alpha virt. eigenvalues --    0.03252   0.03518   0.04074   0.04587   0.04674
 Alpha virt. eigenvalues --    0.04950   0.05123   0.06003   0.06543   0.06621
 Alpha virt. eigenvalues --    0.06948   0.07233   0.07989   0.08440   0.08739
 Alpha virt. eigenvalues --    0.09093   0.09316   0.09460   0.09976   0.10366
 Alpha virt. eigenvalues --    0.10595   0.10897   0.11192   0.11416   0.11694
 Alpha virt. eigenvalues --    0.12043   0.12433   0.12637   0.12762   0.13026
 Alpha virt. eigenvalues --    0.13321   0.13650   0.13902   0.14259   0.14685
 Alpha virt. eigenvalues --    0.14819   0.15022   0.15402   0.15444   0.16092
 Alpha virt. eigenvalues --    0.16855   0.17013   0.17313   0.17652   0.17738
 Alpha virt. eigenvalues --    0.18122   0.18584   0.18812   0.19074   0.19355
 Alpha virt. eigenvalues --    0.19702   0.20101   0.20373   0.20814   0.21381
 Alpha virt. eigenvalues --    0.21557   0.22393   0.22641   0.22865   0.23239
 Alpha virt. eigenvalues --    0.23462   0.23570   0.23823   0.23932   0.24607
 Alpha virt. eigenvalues --    0.24898   0.25123   0.25514   0.25604   0.25846
 Alpha virt. eigenvalues --    0.26340   0.26430   0.26924   0.27244   0.27770
 Alpha virt. eigenvalues --    0.27965   0.28094   0.28286   0.28810   0.29354
 Alpha virt. eigenvalues --    0.29431   0.29587   0.29856   0.30106   0.30654
 Alpha virt. eigenvalues --    0.30745   0.31016   0.31323   0.31415   0.31872
 Alpha virt. eigenvalues --    0.32150   0.32366   0.32503   0.32727   0.33004
 Alpha virt. eigenvalues --    0.33273   0.33459   0.34097   0.34269   0.34596
 Alpha virt. eigenvalues --    0.34907   0.35389   0.35561   0.35835   0.35990
 Alpha virt. eigenvalues --    0.36425   0.36825   0.37048   0.37103   0.37523
 Alpha virt. eigenvalues --    0.37830   0.38047   0.38426   0.38560   0.38739
 Alpha virt. eigenvalues --    0.38924   0.39713   0.39759   0.40007   0.40540
 Alpha virt. eigenvalues --    0.40710   0.40904   0.41167   0.41547   0.41639
 Alpha virt. eigenvalues --    0.42252   0.42690   0.42933   0.43114   0.43373
 Alpha virt. eigenvalues --    0.43560   0.44121   0.44416   0.44625   0.45023
 Alpha virt. eigenvalues --    0.45277   0.45531   0.45861   0.46374   0.46513
 Alpha virt. eigenvalues --    0.46800   0.46975   0.47518   0.47629   0.47730
 Alpha virt. eigenvalues --    0.47975   0.48142   0.48650   0.48831   0.49089
 Alpha virt. eigenvalues --    0.49439   0.49927   0.50122   0.50413   0.50545
 Alpha virt. eigenvalues --    0.51125   0.51634   0.51668   0.51949   0.52076
 Alpha virt. eigenvalues --    0.52721   0.53202   0.53294   0.53904   0.54166
 Alpha virt. eigenvalues --    0.54713   0.55346   0.55703   0.55808   0.56210
 Alpha virt. eigenvalues --    0.56786   0.56993   0.57467   0.57728   0.58257
 Alpha virt. eigenvalues --    0.58635   0.59027   0.59684   0.59856   0.60880
 Alpha virt. eigenvalues --    0.61308   0.61448   0.61863   0.61937   0.62673
 Alpha virt. eigenvalues --    0.63662   0.64071   0.64347   0.64530   0.64800
 Alpha virt. eigenvalues --    0.65390   0.65741   0.66293   0.66672   0.66861
 Alpha virt. eigenvalues --    0.67624   0.67805   0.68085   0.68501   0.68961
 Alpha virt. eigenvalues --    0.69324   0.70365   0.71099   0.71685   0.72043
 Alpha virt. eigenvalues --    0.72172   0.72463   0.72868   0.73080   0.73525
 Alpha virt. eigenvalues --    0.74098   0.74698   0.75070   0.75576   0.76277
 Alpha virt. eigenvalues --    0.76795   0.77364   0.77901   0.78156   0.78285
 Alpha virt. eigenvalues --    0.78642   0.79234   0.80009   0.80327   0.81027
 Alpha virt. eigenvalues --    0.81184   0.81411   0.81478   0.82489   0.82620
 Alpha virt. eigenvalues --    0.82993   0.83114   0.83591   0.83629   0.83825
 Alpha virt. eigenvalues --    0.84057   0.84676   0.84913   0.85042   0.85722
 Alpha virt. eigenvalues --    0.85815   0.86279   0.86413   0.87231   0.87364
 Alpha virt. eigenvalues --    0.87768   0.88093   0.88498   0.88623   0.89116
 Alpha virt. eigenvalues --    0.89483   0.89847   0.90470   0.90588   0.90781
 Alpha virt. eigenvalues --    0.91141   0.91900   0.92227   0.92587   0.92969
 Alpha virt. eigenvalues --    0.93266   0.93661   0.93941   0.95192   0.95394
 Alpha virt. eigenvalues --    0.95597   0.96289   0.96613   0.96939   0.97099
 Alpha virt. eigenvalues --    0.97554   0.97632   0.98548   0.98617   0.98898
 Alpha virt. eigenvalues --    0.99374   0.99812   1.00395   1.00427   1.01001
 Alpha virt. eigenvalues --    1.01298   1.01478   1.01832   1.02583   1.02781
 Alpha virt. eigenvalues --    1.03196   1.03366   1.04000   1.04563   1.04606
 Alpha virt. eigenvalues --    1.05475   1.05513   1.06018   1.06517   1.06839
 Alpha virt. eigenvalues --    1.07033   1.07380   1.07602   1.08469   1.08480
 Alpha virt. eigenvalues --    1.08902   1.09249   1.09383   1.09816   1.10173
 Alpha virt. eigenvalues --    1.10306   1.10887   1.11504   1.11704   1.12008
 Alpha virt. eigenvalues --    1.12651   1.13069   1.13194   1.13605   1.14398
 Alpha virt. eigenvalues --    1.15034   1.15136   1.15659   1.16196   1.16279
 Alpha virt. eigenvalues --    1.16495   1.16970   1.17481   1.17717   1.18267
 Alpha virt. eigenvalues --    1.18866   1.19374   1.19540   1.20040   1.20399
 Alpha virt. eigenvalues --    1.20627   1.21239   1.21352   1.22024   1.22258
 Alpha virt. eigenvalues --    1.22996   1.23582   1.24134   1.24232   1.24764
 Alpha virt. eigenvalues --    1.25060   1.25613   1.25905   1.26351   1.26664
 Alpha virt. eigenvalues --    1.27083   1.27846   1.28050   1.28828   1.29256
 Alpha virt. eigenvalues --    1.29443   1.30757   1.31276   1.31398   1.31712
 Alpha virt. eigenvalues --    1.32390   1.32584   1.32839   1.33632   1.33825
 Alpha virt. eigenvalues --    1.34390   1.35180   1.35795   1.36397   1.36984
 Alpha virt. eigenvalues --    1.37184   1.37631   1.38296   1.38419   1.38931
 Alpha virt. eigenvalues --    1.39562   1.40454   1.41046   1.41142   1.41852
 Alpha virt. eigenvalues --    1.42497   1.42795   1.43648   1.44201   1.44389
 Alpha virt. eigenvalues --    1.44761   1.45492   1.45819   1.46491   1.46714
 Alpha virt. eigenvalues --    1.47634   1.47883   1.48465   1.48771   1.49569
 Alpha virt. eigenvalues --    1.49894   1.50677   1.51225   1.52005   1.52826
 Alpha virt. eigenvalues --    1.52979   1.53761   1.54174   1.54549   1.55084
 Alpha virt. eigenvalues --    1.56057   1.56177   1.56534   1.57022   1.57774
 Alpha virt. eigenvalues --    1.58271   1.58934   1.59173   1.59890   1.60170
 Alpha virt. eigenvalues --    1.60641   1.60939   1.61618   1.61935   1.62735
 Alpha virt. eigenvalues --    1.63044   1.63429   1.63717   1.64350   1.64641
 Alpha virt. eigenvalues --    1.65382   1.65676   1.66023   1.66829   1.67299
 Alpha virt. eigenvalues --    1.67596   1.67967   1.68073   1.68976   1.69689
 Alpha virt. eigenvalues --    1.70164   1.70340   1.71034   1.71180   1.72017
 Alpha virt. eigenvalues --    1.72266   1.72538   1.73635   1.74066   1.74919
 Alpha virt. eigenvalues --    1.75549   1.75896   1.76625   1.77084   1.77272
 Alpha virt. eigenvalues --    1.77495   1.78396   1.78635   1.79352   1.79588
 Alpha virt. eigenvalues --    1.80371   1.80991   1.81265   1.81873   1.82083
 Alpha virt. eigenvalues --    1.83001   1.83684   1.84273   1.85167   1.85368
 Alpha virt. eigenvalues --    1.86046   1.86379   1.86680   1.87320   1.88029
 Alpha virt. eigenvalues --    1.88583   1.88982   1.89395   1.90693   1.91124
 Alpha virt. eigenvalues --    1.91547   1.92245   1.92938   1.93549   1.94624
 Alpha virt. eigenvalues --    1.94777   1.95222   1.95711   1.96933   1.97602
 Alpha virt. eigenvalues --    1.98267   1.98683   1.98991   1.99619   2.00284
 Alpha virt. eigenvalues --    2.00574   2.01953   2.02351   2.02988   2.03139
 Alpha virt. eigenvalues --    2.04287   2.04921   2.05355   2.06041   2.06455
 Alpha virt. eigenvalues --    2.07456   2.07960   2.09014   2.10006   2.10920
 Alpha virt. eigenvalues --    2.11185   2.12497   2.13451   2.14101   2.15060
 Alpha virt. eigenvalues --    2.15335   2.16021   2.16830   2.17913   2.18634
 Alpha virt. eigenvalues --    2.19348   2.20041   2.20297   2.21291   2.22177
 Alpha virt. eigenvalues --    2.22585   2.22950   2.24117   2.25106   2.26683
 Alpha virt. eigenvalues --    2.26876   2.27260   2.28326   2.28932   2.29894
 Alpha virt. eigenvalues --    2.30914   2.31694   2.32648   2.33096   2.33437
 Alpha virt. eigenvalues --    2.34251   2.34842   2.35187   2.36856   2.37444
 Alpha virt. eigenvalues --    2.38523   2.39420   2.39939   2.40244   2.41917
 Alpha virt. eigenvalues --    2.42321   2.42637   2.43812   2.44660   2.45960
 Alpha virt. eigenvalues --    2.47133   2.47915   2.48842   2.49699   2.50112
 Alpha virt. eigenvalues --    2.50985   2.51559   2.51831   2.53436   2.55691
 Alpha virt. eigenvalues --    2.56016   2.56222   2.57169   2.58762   2.60199
 Alpha virt. eigenvalues --    2.61051   2.61334   2.61837   2.62701   2.64478
 Alpha virt. eigenvalues --    2.64968   2.66010   2.67021   2.67512   2.67875
 Alpha virt. eigenvalues --    2.69377   2.70849   2.71229   2.72330   2.73577
 Alpha virt. eigenvalues --    2.74117   2.75904   2.76464   2.77596   2.79380
 Alpha virt. eigenvalues --    2.79902   2.80888   2.81648   2.83111   2.84296
 Alpha virt. eigenvalues --    2.85087   2.85550   2.88035   2.88872   2.89157
 Alpha virt. eigenvalues --    2.89748   2.90917   2.91708   2.92444   2.93675
 Alpha virt. eigenvalues --    2.94692   2.95792   2.95935   2.96863   2.97605
 Alpha virt. eigenvalues --    2.98835   2.99164   3.00373   3.01758   3.02159
 Alpha virt. eigenvalues --    3.03285   3.04632   3.04787   3.06201   3.07287
 Alpha virt. eigenvalues --    3.08458   3.09345   3.10503   3.10643   3.11217
 Alpha virt. eigenvalues --    3.12076   3.13204   3.13782   3.14848   3.15751
 Alpha virt. eigenvalues --    3.16703   3.18423   3.19260   3.20185   3.20726
 Alpha virt. eigenvalues --    3.21323   3.22595   3.22995   3.23648   3.24070
 Alpha virt. eigenvalues --    3.25572   3.26684   3.27519   3.28749   3.28917
 Alpha virt. eigenvalues --    3.30159   3.30831   3.31417   3.32515   3.33639
 Alpha virt. eigenvalues --    3.34030   3.34217   3.34744   3.35782   3.36453
 Alpha virt. eigenvalues --    3.37183   3.37371   3.37828   3.38470   3.38848
 Alpha virt. eigenvalues --    3.39928   3.40058   3.41075   3.42422   3.43215
 Alpha virt. eigenvalues --    3.43610   3.44672   3.45438   3.46862   3.47506
 Alpha virt. eigenvalues --    3.48235   3.48555   3.48893   3.49605   3.50465
 Alpha virt. eigenvalues --    3.51160   3.52420   3.52645   3.54128   3.54937
 Alpha virt. eigenvalues --    3.55422   3.55706   3.56268   3.57621   3.58106
 Alpha virt. eigenvalues --    3.58591   3.59980   3.60134   3.61105   3.61730
 Alpha virt. eigenvalues --    3.62598   3.63142   3.63676   3.63903   3.64262
 Alpha virt. eigenvalues --    3.64913   3.66419   3.66880   3.66944   3.67295
 Alpha virt. eigenvalues --    3.69429   3.70251   3.71039   3.71883   3.72089
 Alpha virt. eigenvalues --    3.73535   3.73744   3.74222   3.74536   3.74998
 Alpha virt. eigenvalues --    3.75322   3.77138   3.77796   3.78534   3.78905
 Alpha virt. eigenvalues --    3.79948   3.80843   3.81420   3.81674   3.82746
 Alpha virt. eigenvalues --    3.83445   3.83716   3.84514   3.84888   3.85006
 Alpha virt. eigenvalues --    3.85711   3.86186   3.86871   3.87073   3.87807
 Alpha virt. eigenvalues --    3.88475   3.90214   3.90527   3.91075   3.92633
 Alpha virt. eigenvalues --    3.93568   3.93903   3.94388   3.96278   3.96502
 Alpha virt. eigenvalues --    3.96824   3.97763   3.98109   3.99667   4.00226
 Alpha virt. eigenvalues --    4.01383   4.02295   4.02965   4.04156   4.04807
 Alpha virt. eigenvalues --    4.05187   4.06410   4.07305   4.07684   4.08605
 Alpha virt. eigenvalues --    4.09032   4.09817   4.09960   4.10557   4.11725
 Alpha virt. eigenvalues --    4.12193   4.13196   4.13962   4.14410   4.14580
 Alpha virt. eigenvalues --    4.15369   4.16089   4.16840   4.17574   4.18141
 Alpha virt. eigenvalues --    4.19481   4.19882   4.21223   4.21821   4.22137
 Alpha virt. eigenvalues --    4.23329   4.23670   4.23954   4.25521   4.26747
 Alpha virt. eigenvalues --    4.27651   4.28091   4.28896   4.29565   4.30038
 Alpha virt. eigenvalues --    4.30795   4.32418   4.32912   4.33687   4.34525
 Alpha virt. eigenvalues --    4.35568   4.36437   4.37164   4.37234   4.38146
 Alpha virt. eigenvalues --    4.39348   4.40543   4.41153   4.41598   4.42255
 Alpha virt. eigenvalues --    4.43071   4.44809   4.45902   4.47015   4.48317
 Alpha virt. eigenvalues --    4.49793   4.51073   4.51403   4.52312   4.53045
 Alpha virt. eigenvalues --    4.53819   4.53982   4.55397   4.56196   4.56885
 Alpha virt. eigenvalues --    4.57441   4.58754   4.60547   4.61649   4.62072
 Alpha virt. eigenvalues --    4.62847   4.63563   4.63991   4.66220   4.66373
 Alpha virt. eigenvalues --    4.67442   4.67711   4.69164   4.69767   4.71205
 Alpha virt. eigenvalues --    4.72303   4.72987   4.73656   4.75221   4.75837
 Alpha virt. eigenvalues --    4.76110   4.76745   4.78222   4.79427   4.80988
 Alpha virt. eigenvalues --    4.81681   4.82085   4.83701   4.84228   4.86046
 Alpha virt. eigenvalues --    4.86997   4.87981   4.89026   4.91398   4.91681
 Alpha virt. eigenvalues --    4.92305   4.93579   4.94451   4.95145   4.95352
 Alpha virt. eigenvalues --    4.97164   4.98744   4.99054   4.99845   5.00995
 Alpha virt. eigenvalues --    5.01630   5.02887   5.04401   5.05579   5.06087
 Alpha virt. eigenvalues --    5.08114   5.08706   5.09300   5.10721   5.12365
 Alpha virt. eigenvalues --    5.12499   5.12843   5.14210   5.14372   5.15269
 Alpha virt. eigenvalues --    5.16242   5.17174   5.17914   5.20031   5.21906
 Alpha virt. eigenvalues --    5.23010   5.23128   5.25130   5.27993   5.29957
 Alpha virt. eigenvalues --    5.31390   5.32610   5.34082   5.34877   5.37175
 Alpha virt. eigenvalues --    5.38130   5.40197   5.41357   5.43297   5.44631
 Alpha virt. eigenvalues --    5.45189   5.46284   5.48011   5.49363   5.50084
 Alpha virt. eigenvalues --    5.51611   5.53777   5.55050   5.57622   5.58180
 Alpha virt. eigenvalues --    5.58594   5.58803   5.59942   5.61091   5.62165
 Alpha virt. eigenvalues --    5.64333   5.65831   5.67492   5.68862   5.70293
 Alpha virt. eigenvalues --    5.70990   5.71565   5.71923   5.73186   5.75567
 Alpha virt. eigenvalues --    5.77205   5.78742   5.82594   5.85079   5.86032
 Alpha virt. eigenvalues --    5.86875   5.87294   5.92066   5.95031   5.96786
 Alpha virt. eigenvalues --    5.97939   5.98911   6.00281   6.02105   6.02648
 Alpha virt. eigenvalues --    6.04738   6.06017   6.09091   6.11102   6.12428
 Alpha virt. eigenvalues --    6.13473   6.18644   6.20511   6.23132   6.24545
 Alpha virt. eigenvalues --    6.25260   6.25441   6.29810   6.37733   6.41060
 Alpha virt. eigenvalues --    6.47914   6.51094   6.55158   6.56864   6.58827
 Alpha virt. eigenvalues --    6.60559   6.62499   6.63737   6.66538   6.67102
 Alpha virt. eigenvalues --    6.68152   6.71170   6.76270   6.81245   6.82487
 Alpha virt. eigenvalues --    6.85350   6.88788   6.89851   6.93771   6.96903
 Alpha virt. eigenvalues --    7.03187   7.09912   7.11580   7.16432   7.19704
 Alpha virt. eigenvalues --    7.23310   7.26292   7.32883   7.44884   7.52318
 Alpha virt. eigenvalues --    7.54281   7.60897   7.78518   7.81219   7.94292
 Alpha virt. eigenvalues --    8.41890   8.73216   8.75629   8.78406   8.79654
 Alpha virt. eigenvalues --    8.80971   8.85208   8.94656   8.95977   9.07853
 Alpha virt. eigenvalues --    9.09173   9.09754   9.13607   9.14474   9.16374
 Alpha virt. eigenvalues --    9.18249   9.22326   9.23313   9.24159   9.27539
 Alpha virt. eigenvalues --    9.28166   9.28587   9.29938   9.32353   9.35788
 Alpha virt. eigenvalues --    9.39657   9.40390   9.43240   9.48146   9.49946
 Alpha virt. eigenvalues --    9.51502   9.56214   9.69365   9.71392   9.78421
 Alpha virt. eigenvalues --    9.95152   9.95519  15.73968  15.85503  16.00203
 Alpha virt. eigenvalues --   16.10409  16.45218  16.57591  17.23399  17.36337
 Alpha virt. eigenvalues --   17.65562  18.05647  18.33762  18.94500  19.38328
 Alpha virt. eigenvalues --   19.69227  20.70336  20.92230  21.41758
          Condensed to atoms (all electrons):
               1          2          3          4          5          6
     1  C    9.259066  -0.309991  -1.055802   0.159251  -0.112299  -0.134451
     2  N   -0.309991   8.535341   0.336491  -0.059390  -0.412836  -0.160067
     3  C   -1.055802   0.336491   6.505084   0.256705   0.261626  -0.206674
     4  O    0.159251  -0.059390   0.256705   8.884338  -0.194673  -0.050388
     5  N   -0.112299  -0.412836   0.261626  -0.194673   7.433235   0.181741
     6  C   -0.134451  -0.160067  -0.206674  -0.050388   0.181741   5.734787
     7  C   -0.023593  -0.045912   0.041994  -0.015464  -0.109669   0.066896
     8  C   -0.000112   0.004880  -0.007272   0.000287  -0.009792  -0.023268
     9  C   -0.773135  -0.465542  -0.140623   0.040278  -0.164701  -0.022542
    10  C   -0.075681   0.189068   0.055378  -0.001190   0.015837   0.004310
    11  C   -0.385091  -0.001928  -0.037085   0.004210  -0.001462  -0.004911
    12  C   -0.157478   0.130401   0.146316   0.003396   0.037491   0.015819
    13  C   -0.519867  -0.318560   0.048040  -0.151157   0.056837   0.011853
    14  H    0.109234   0.163113  -0.119090   0.011231   0.144209  -0.003181
    15  H   -0.039959   0.076179  -0.054104   0.001249   0.206128   0.021261
    16  H   -0.022281   0.005276   0.017594   0.010235  -0.079146   0.317774
    17  H   -0.003323  -0.010605  -0.073107  -0.002335  -0.022446   0.439618
    18  H   -0.005458  -0.004372   0.022163   0.002887  -0.055036  -0.023042
    19  H   -0.002837  -0.010200   0.001689  -0.000053  -0.011035   0.025098
    20  H    0.000371   0.000801   0.002987   0.000264   0.004565  -0.007983
    21  H   -0.000140  -0.000498   0.001062  -0.000138  -0.000773  -0.002768
    22  H    0.000813   0.000426   0.002312  -0.000139   0.004148  -0.006467
    23  H   -0.359252  -0.170474  -0.080882   0.004772  -0.053752  -0.008044
    24  Cl  -0.052908  -0.012254  -0.000899  -0.004948   0.000788  -0.000838
    25  H   -0.202899  -0.118193  -0.091884  -0.113991   0.004946  -0.031115
    26  C    0.008837  -0.014933  -0.007128  -0.000237  -0.001628  -0.000501
    27  H    0.033369   0.017753   0.007267   0.000071   0.000385   0.000024
    28  F    0.013689   0.003177   0.002245   0.000016   0.000233   0.000091
    29  F   -0.016861   0.002792  -0.000679  -0.000024   0.000058  -0.000021
    30  F   -0.022850   0.001123  -0.002513  -0.000019   0.000118  -0.000074
               7          8          9         10         11         12
     1  C   -0.023593  -0.000112  -0.773135  -0.075681  -0.385091  -0.157478
     2  N   -0.045912   0.004880  -0.465542   0.189068  -0.001928   0.130401
     3  C    0.041994  -0.007272  -0.140623   0.055378  -0.037085   0.146316
     4  O   -0.015464   0.000287   0.040278  -0.001190   0.004210   0.003396
     5  N   -0.109669  -0.009792  -0.164701   0.015837  -0.001462   0.037491
     6  C    0.066896  -0.023268  -0.022542   0.004310  -0.004911   0.015819
     7  C    5.527087   0.123355  -0.000231   0.000135  -0.000096   0.001050
     8  C    0.123355   5.751867   0.000310  -0.000037   0.000001  -0.000030
     9  C   -0.000231   0.000310   9.570140  -1.352386   0.386812  -0.448624
    10  C    0.000135  -0.000037  -1.352386   8.221979  -1.077192   0.186918
    11  C   -0.000096   0.000001   0.386812  -1.077192   8.350185  -0.412661
    12  C    0.001050  -0.000030  -0.448624   0.186918  -0.412661   6.933067
    13  C   -0.000789  -0.000032  -0.138266  -0.290462   0.026713  -0.220191
    14  H    0.002047  -0.000595  -0.049452  -0.015101  -0.000507  -0.005000
    15  H   -0.019647   0.004503   0.006875   0.001608  -0.000205   0.001952
    16  H    0.003195  -0.005597  -0.000057   0.000019  -0.000283   0.000167
    17  H   -0.013843  -0.007065  -0.001699   0.000343  -0.000241   0.000431
    18  H    0.420048  -0.021399   0.000373   0.000098  -0.000051   0.000166
    19  H    0.430703  -0.024251   0.000090  -0.000062  -0.000023  -0.000010
    20  H    0.028333   0.374558   0.000064  -0.000019   0.000004  -0.000027
    21  H   -0.030597   0.447290  -0.000049   0.000005   0.000000   0.000010
    22  H    0.031462   0.372479   0.000030   0.000007   0.000002   0.000010
    23  H   -0.000950   0.000008   0.472209  -0.276741   0.019819   0.013240
    24  Cl   0.000006  -0.000004   0.057997  -0.062177  -0.075549  -0.107142
    25  H   -0.001060  -0.000316   0.092777  -0.009583   0.070752  -0.471537
    26  C   -0.000054  -0.000001  -0.152732  -0.387235  -0.077123  -0.017042
    27  H   -0.000004  -0.000000  -0.082811   0.069481   0.062728  -0.159840
    28  F    0.000004   0.000000  -0.011664  -0.020658  -0.003408   0.008882
    29  F    0.000000  -0.000000   0.006915   0.028128   0.040240  -0.012421
    30  F   -0.000005  -0.000000   0.054544   0.006602   0.001739  -0.010885
              13         14         15         16         17         18
     1  C   -0.519867   0.109234  -0.039959  -0.022281  -0.003323  -0.005458
     2  N   -0.318560   0.163113   0.076179   0.005276  -0.010605  -0.004372
     3  C    0.048040  -0.119090  -0.054104   0.017594  -0.073107   0.022163
     4  O   -0.151157   0.011231   0.001249   0.010235  -0.002335   0.002887
     5  N    0.056837   0.144209   0.206128  -0.079146  -0.022446  -0.055036
     6  C    0.011853  -0.003181   0.021261   0.317774   0.439618  -0.023042
     7  C   -0.000789   0.002047  -0.019647   0.003195  -0.013843   0.420048
     8  C   -0.000032  -0.000595   0.004503  -0.005597  -0.007065  -0.021399
     9  C   -0.138266  -0.049452   0.006875  -0.000057  -0.001699   0.000373
    10  C   -0.290462  -0.015101   0.001608   0.000019   0.000343   0.000098
    11  C    0.026713  -0.000507  -0.000205  -0.000283  -0.000241  -0.000051
    12  C   -0.220191  -0.005000   0.001952   0.000167   0.000431   0.000166
    13  C    8.169002   0.004589   0.003271   0.006728   0.000323   0.000732
    14  H    0.004589   0.831566  -0.037511  -0.000833  -0.000081  -0.000549
    15  H    0.003271  -0.037511   0.762084   0.027910  -0.009084   0.013150
    16  H    0.006728  -0.000833   0.027910   0.414772   0.028886   0.014748
    17  H    0.000323  -0.000081  -0.009084   0.028886   0.394820  -0.013190
    18  H    0.000732  -0.000549   0.013150   0.014748  -0.013190   0.398359
    19  H    0.000233  -0.000559  -0.008268  -0.006817   0.004050   0.001909
    20  H    0.000051  -0.000009  -0.000217  -0.007385  -0.009227  -0.001155
    21  H    0.000048   0.000002   0.000506   0.000806   0.000633   0.001360
    22  H   -0.000190   0.000006  -0.000147  -0.011746  -0.006900  -0.002845
    23  H   -0.091321  -0.063666  -0.003407  -0.000603  -0.000227  -0.000023
    24  Cl   0.126615   0.000683  -0.000137   0.000018  -0.000018  -0.000006
    25  H    0.047160   0.006190  -0.002355  -0.000158  -0.003479  -0.000174
    26  C    0.020186  -0.003611  -0.000037  -0.000028  -0.000012  -0.000004
    27  H   -0.046443  -0.001068   0.000103   0.000004  -0.000002   0.000004
    28  F   -0.006288   0.000083   0.000016   0.000003   0.000005  -0.000002
    29  F    0.005203   0.000581  -0.000031  -0.000000  -0.000000  -0.000000
    30  F    0.009740   0.000754  -0.000177  -0.000001  -0.000004  -0.000003
              19         20         21         22         23         24
     1  C   -0.002837   0.000371  -0.000140   0.000813  -0.359252  -0.052908
     2  N   -0.010200   0.000801  -0.000498   0.000426  -0.170474  -0.012254
     3  C    0.001689   0.002987   0.001062   0.002312  -0.080882  -0.000899
     4  O   -0.000053   0.000264  -0.000138  -0.000139   0.004772  -0.004948
     5  N   -0.011035   0.004565  -0.000773   0.004148  -0.053752   0.000788
     6  C    0.025098  -0.007983  -0.002768  -0.006467  -0.008044  -0.000838
     7  C    0.430703   0.028333  -0.030597   0.031462  -0.000950   0.000006
     8  C   -0.024251   0.374558   0.447290   0.372479   0.000008  -0.000004
     9  C    0.000090   0.000064  -0.000049   0.000030   0.472209   0.057997
    10  C   -0.000062  -0.000019   0.000005   0.000007  -0.276741  -0.062177
    11  C   -0.000023   0.000004   0.000000   0.000002   0.019819  -0.075549
    12  C   -0.000010  -0.000027   0.000010   0.000010   0.013240  -0.107142
    13  C    0.000233   0.000051   0.000048  -0.000190  -0.091321   0.126615
    14  H   -0.000559  -0.000009   0.000002   0.000006  -0.063666   0.000683
    15  H   -0.008268  -0.000217   0.000506  -0.000147  -0.003407  -0.000137
    16  H   -0.006817  -0.007385   0.000806  -0.011746  -0.000603   0.000018
    17  H    0.004050  -0.009227   0.000633  -0.006900  -0.000227  -0.000018
    18  H    0.001909  -0.001155   0.001360  -0.002845  -0.000023  -0.000006
    19  H    0.368365   0.000384  -0.003816   0.003090  -0.000043   0.000004
    20  H    0.000384   0.312727  -0.000477   0.023339  -0.000000   0.000000
    21  H   -0.003816  -0.000477   0.312398  -0.001744  -0.000012  -0.000000
    22  H    0.003090   0.023339  -0.001744   0.317295   0.000023  -0.000003
    23  H   -0.000043  -0.000000  -0.000012   0.000023   1.316395  -0.000114
    24  Cl   0.000004   0.000000  -0.000000  -0.000003  -0.000114  17.605999
    25  H    0.000048   0.000088  -0.000016  -0.000021   0.009789   0.012543
    26  C   -0.000001  -0.000000  -0.000000   0.000000  -0.050064   0.002258
    27  H   -0.000003  -0.000000   0.000000   0.000000  -0.011698  -0.066020
    28  F    0.000002   0.000000   0.000000  -0.000000   0.000100  -0.000344
    29  F    0.000000  -0.000000  -0.000000  -0.000000  -0.000426   0.000604
    30  F    0.000001  -0.000000  -0.000000  -0.000000   0.004549   0.000168
              25         26         27         28         29         30
     1  C   -0.202899   0.008837   0.033369   0.013689  -0.016861  -0.022850
     2  N   -0.118193  -0.014933   0.017753   0.003177   0.002792   0.001123
     3  C   -0.091884  -0.007128   0.007267   0.002245  -0.000679  -0.002513
     4  O   -0.113991  -0.000237   0.000071   0.000016  -0.000024  -0.000019
     5  N    0.004946  -0.001628   0.000385   0.000233   0.000058   0.000118
     6  C   -0.031115  -0.000501   0.000024   0.000091  -0.000021  -0.000074
     7  C   -0.001060  -0.000054  -0.000004   0.000004   0.000000  -0.000005
     8  C   -0.000316  -0.000001  -0.000000   0.000000  -0.000000  -0.000000
     9  C    0.092777  -0.152732  -0.082811  -0.011664   0.006915   0.054544
    10  C   -0.009583  -0.387235   0.069481  -0.020658   0.028128   0.006602
    11  C    0.070752  -0.077123   0.062728  -0.003408   0.040240   0.001739
    12  C   -0.471537  -0.017042  -0.159840   0.008882  -0.012421  -0.010885
    13  C    0.047160   0.020186  -0.046443  -0.006288   0.005203   0.009740
    14  H    0.006190  -0.003611  -0.001068   0.000083   0.000581   0.000754
    15  H   -0.002355  -0.000037   0.000103   0.000016  -0.000031  -0.000177
    16  H   -0.000158  -0.000028   0.000004   0.000003  -0.000000  -0.000001
    17  H   -0.003479  -0.000012  -0.000002   0.000005  -0.000000  -0.000004
    18  H   -0.000174  -0.000004   0.000004  -0.000002  -0.000000  -0.000003
    19  H    0.000048  -0.000001  -0.000003   0.000002   0.000000   0.000001
    20  H    0.000088  -0.000000  -0.000000   0.000000  -0.000000  -0.000000
    21  H   -0.000016  -0.000000   0.000000   0.000000  -0.000000  -0.000000
    22  H   -0.000021   0.000000   0.000000  -0.000000  -0.000000  -0.000000
    23  H    0.009789  -0.050064  -0.011698   0.000100  -0.000426   0.004549
    24  Cl   0.012543   0.002258  -0.066020  -0.000344   0.000604   0.000168
    25  H    1.144652   0.005943  -0.014549  -0.000473   0.000434   0.000634
    26  C    0.005943   4.954971  -0.035328   0.167391   0.148421   0.160972
    27  H   -0.014549  -0.035328   0.753677   0.011692  -0.002811  -0.000640
    28  F   -0.000473   0.167391   0.011692   9.301675  -0.036339  -0.038752
    29  F    0.000434   0.148421  -0.002811  -0.036339   9.283414  -0.053769
    30  F    0.000634   0.160972  -0.000640  -0.038752  -0.053769   9.284782
 Mulliken charges:
               1
     1  C    0.691637
     2  N   -0.351063
     3  C    0.168789
     4  O   -0.785042
     5  N   -0.123096
     6  C   -0.132935
     7  C   -0.414400
     8  C   -0.979764
     9  C   -0.884901
    10  C    0.788609
    11  C   -0.885389
    12  C    0.543574
    13  C   -0.753757
    14  H    0.026524
    15  H    0.048492
    16  H    0.286801
    17  H    0.307779
    18  H    0.251314
    19  H    0.232312
    20  H    0.277964
    21  H    0.276908
    22  H    0.274760
    23  H    0.330793
    24  Cl  -0.424321
    25  H    0.665849
    26  C    1.278720
    27  H    0.464660
    28  F   -0.391377
    29  F   -0.393407
    30  F   -0.396033
 Sum of Mulliken charges =  -0.00000
 Mulliken charges with hydrogens summed into heavy atoms:
               1
     1  C    0.691637
     2  N   -0.324539
     3  C    0.168789
     4  O   -0.785042
     5  N   -0.074605
     6  C    0.461644
     7  C    0.069225
     8  C   -0.150132
     9  C   -0.554108
    10  C    0.788609
    11  C   -0.420728
    12  C    0.543574
    13  C   -0.087907
    24  Cl  -0.424321
    26  C    1.278720
    28  F   -0.391377
    29  F   -0.393407
    30  F   -0.396033
 Electronic spatial extent (au):  <R**2>=           8435.0851
 Charge=              0.0000 electrons
 Dipole moment (field-independent basis, Debye):
    X=              4.4919    Y=             -3.5380    Z=              0.7804  Tot=              5.7709
 Quadrupole moment (field-independent basis, Debye-Ang):
   XX=           -105.2954   YY=           -115.2644   ZZ=           -113.9437
   XY=            -13.3523   XZ=              3.0599   YZ=             -0.4921
 Traceless Quadrupole moment (field-independent basis, Debye-Ang):
   XX=              6.2058   YY=             -3.7632   ZZ=             -2.4425
   XY=            -13.3523   XZ=              3.0599   YZ=             -0.4921
 Octapole moment (field-independent basis, Debye-Ang**2):
  XXX=             64.0991  YYY=            -41.6705  ZZZ=             -1.6181  XYY=             -1.9035
  XXY=            -11.8627  XXZ=              6.2384  XZZ=            -10.6246  YZZ=             -7.5508
  YYZ=              3.4446  XYZ=             -3.3811
 Hexadecapole moment (field-independent basis, Debye-Ang**3):
 XXXX=          -8186.7035 YYYY=          -1878.1231 ZZZZ=           -206.5056 XXXY=            -82.3894
 XXXZ=             11.7622 YYYX=             74.8442 YYYZ=             -7.4315 ZZZX=              5.9739
 ZZZY=              1.4995 XXYY=          -1785.5712 XXZZ=          -1469.6006 YYZZ=           -356.6457
 XXYZ=             -7.1066 YYXZ=              9.2158 ZZXY=             37.9793
 N-N= 1.411675326347D+03 E-N=-6.051098526307D+03  KE= 1.364302758853D+03
 Unable to Open any file for archive entry.
 1\1\GINC-GADI-HMEM-CLX-0010\SP\RDSDPBEP86-FC\Aug-CC-pVTZ\C11H12Cl1F3N2
 O1\HIO507\21-Sep-2020\0\\# DSDPBEP86/AUG-cc-PVTZ SCF=Tight INT(grid=ul
 trafine) MaxDisk=1400000MB\\NM3_c2.DSDPBEP86_AUG-cc-PVTZ\\0,1\C,0,-5.9
 917559386,1.4037444778,0.2197461216\N,0,-4.7578541047,0.746064925,0.19
 2996692\C,0,-3.5000833009,1.3193357281,0.029071913\O,0,-3.3161077663,2
 .5038648612,-0.1445555856\N,0,-2.4820232695,0.3995303926,0.0543648044\
 C,0,-1.1036940264,0.8720243334,0.0124436774\C,0,-0.1468817783,-0.29684
 59547,-0.1699363588\C,0,1.3039613389,0.1711661647,-0.2242261859\C,0,-7
 .1407501578,0.6054546668,0.2278383191\C,0,-8.3934617065,1.1937580325,0
 .2713665937\C,0,-8.5481429311,2.5736763387,0.3099607182\C,0,-7.3963530
 177,3.3457470451,0.301156277\C,0,-6.122598847,2.7958059618,0.256950721
 7\H,0,-4.8093737332,-0.2597002838,0.1333240809\H,0,-2.6410250895,-0.47
 54431068,0.532826437\H,0,-0.8594783864,1.4323522679,0.9227204852\H,0,-
 1.0199507232,1.5704103892,-0.8216766227\H,0,-0.4080831431,-0.831251348
 4,-1.0880913194\H,0,-0.2716039058,-1.0066713193,0.6565473139\H,0,1.461
 8174936,0.8622386861,-1.0555069384\H,0,1.9861282691,-0.6698117832,-0.3
 565457817\H,0,1.5868694205,0.6881737164,0.6957852285\H,0,-7.0553898977
 ,-0.475399172,0.1932248511\Cl,0,-7.550012515,5.078888651,0.342553498\H
 ,0,-5.2511287529,3.4316651731,0.2401841042\C,0,-9.6111606094,0.3161733
 621,0.3424479825\H,0,-9.5274270832,3.0330119416,0.3369036994\F,0,-9.94
 28440247,0.036385849,1.6140519724\F,0,-10.6799633219,0.892994054,-0.21
 9224432\F,0,-9.4193184912,-0.8603140499,-0.2726022666\\Version=ES64L-G
 16RevC.01\State=1-A\HF=-1367.7717924\MP2=-1369.4668694\RMSD=7.442e-09\
 PG=C01 [X(C11H12Cl1F3N2O1)]\\@
 The archive entry for this job was punched.


 THIS CURIOUS WORLD WHICH WE INHABIT IS MORE WONDERFUL THAN IT IS CONVENIENT;
 MORE BEAUTIFUL THAN IT IS USEFUL;
 IT IS MORE TO BE ADMIRED THAN IT IS TO BE USED.

                                                                 -- THOREAU
 Job cpu time:       1 days  3 hours 28 minutes  2.0 seconds.
 Elapsed time:       0 days  4 hours 34 minutes 50.2 seconds.
 File lengths (MBytes):  RWF=    635 Int=      0 D2E=      0 Chk=     81 Scr=      1
 Normal termination of Gaussian 16 at Mon Sep 21 20:53:10 2020.
