 Entering Gaussian System, Link 0=/apps/gaussian/g16c01/g16/g16
 Initial command:
 /apps/gaussian/g16c01/g16/l1.exe "/jobfs/11271697.gadi-pbs/Gau-1129501.inp" -scrdir="/jobfs/11271697.gadi-pbs/"
 Entering Link 1 = /apps/gaussian/g16c01/g16/l1.exe PID=   1129502.
  
 Copyright (c) 1988-2019, Gaussian, Inc.  All Rights Reserved.
  
 This is part of the Gaussian(R) 16 program.  It is based on
 the Gaussian(R) 09 system (copyright 2009, Gaussian, Inc.),
 the Gaussian(R) 03 system (copyright 2003, Gaussian, Inc.),
 the Gaussian(R) 98 system (copyright 1998, Gaussian, Inc.),
 the Gaussian(R) 94 system (copyright 1995, Gaussian, Inc.),
 the Gaussian 92(TM) system (copyright 1992, Gaussian, Inc.),
 the Gaussian 90(TM) system (copyright 1990, Gaussian, Inc.),
 the Gaussian 88(TM) system (copyright 1988, Gaussian, Inc.),
 the Gaussian 86(TM) system (copyright 1986, Carnegie Mellon
 University), and the Gaussian 82(TM) system (copyright 1983,
 Carnegie Mellon University). Gaussian is a federally registered
 trademark of Gaussian, Inc.
  
 This software contains proprietary and confidential information,
 including trade secrets, belonging to Gaussian, Inc.
  
 This software is provided under written license and may be
 used, copied, transmitted, or stored only in accord with that
 written license.
  
 The following legend is applicable only to US Government
 contracts under FAR:
  
                    RESTRICTED RIGHTS LEGEND
  
 Use, reproduction and disclosure by the US Government is
 subject to restrictions as set forth in subparagraphs (a)
 and (c) of the Commercial Computer Software - Restricted
 Rights clause in FAR 52.227-19.
  
 Gaussian, Inc.
 340 Quinnipiac St., Bldg. 40, Wallingford CT 06492
  
  
 ---------------------------------------------------------------
 Warning -- This program may not be used in any manner that
 competes with the business of Gaussian, Inc. or will provide
 assistance to any competitor of Gaussian, Inc.  The licensee
 of this program is prohibited from giving any competitor of
 Gaussian, Inc. access to this program.  By using this program,
 the user acknowledges that Gaussian, Inc. is engaged in the
 business of creating and licensing software in the field of
 computational chemistry and represents and warrants to the
 licensee that it is not a competitor of Gaussian, Inc. and that
 it will not use this program in any manner prohibited above.
 ---------------------------------------------------------------
  

 Cite this work as:
 Gaussian 16, Revision C.01,
 M. J. Frisch, G. W. Trucks, H. B. Schlegel, G. E. Scuseria, 
 M. A. Robb, J. R. Cheeseman, G. Scalmani, V. Barone, 
 G. A. Petersson, H. Nakatsuji, X. Li, M. Caricato, A. V. Marenich, 
 J. Bloino, B. G. Janesko, R. Gomperts, B. Mennucci, H. P. Hratchian, 
 J. V. Ortiz, A. F. Izmaylov, J. L. Sonnenberg, D. Williams-Young, 
 F. Ding, F. Lipparini, F. Egidi, J. Goings, B. Peng, A. Petrone, 
 T. Henderson, D. Ranasinghe, V. G. Zakrzewski, J. Gao, N. Rega, 
 G. Zheng, W. Liang, M. Hada, M. Ehara, K. Toyota, R. Fukuda, 
 J. Hasegawa, M. Ishida, T. Nakajima, Y. Honda, O. Kitao, H. Nakai, 
 T. Vreven, K. Throssell, J. A. Montgomery, Jr., J. E. Peralta, 
 F. Ogliaro, M. J. Bearpark, J. J. Heyd, E. N. Brothers, K. N. Kudin, 
 V. N. Staroverov, T. A. Keith, R. Kobayashi, J. Normand, 
 K. Raghavachari, A. P. Rendell, J. C. Burant, S. S. Iyengar, 
 J. Tomasi, M. Cossi, J. M. Millam, M. Klene, C. Adamo, R. Cammi, 
 J. W. Ochterski, R. L. Martin, K. Morokuma, O. Farkas, 
 J. B. Foresman, and D. J. Fox, Gaussian, Inc., Wallingford CT, 2019.
 
 ******************************************
 Gaussian 16:  ES64L-G16RevC.01  3-Jul-2019
                15-Sep-2020 
 ******************************************
 %NprocShared=6
 Will use up to    6 processors via shared memory.
 %Mem=16000MB
 %chk=NM3.M062X_6-311pGd_opt_GD3.chk
 ----------------------------------------------------------------------
 # M062X/6-311+G* SCF=Tight INT(grid=ultrafine) OPT IOP(2/17=4) Empiric
 alDispersion=GD3 MaxDisk=10000MB
 ----------------------------------------------------------------------
 1/18=20,19=15,26=4,38=1/1,3;
 2/9=110,12=2,17=4,18=5,40=1/2;
 3/5=4,6=6,7=11,11=2,25=1,30=1,71=1,74=-55,75=-5,124=31/1,2,3;
 4//1;
 5/5=2,32=2,38=5/2;
 6/7=2,8=2,9=2,10=2,28=1/1;
 7//1,2,3,16;
 1/18=20,19=15,26=4/3(2);
 2/9=110,17=4/2;
 99//99;
 2/9=110,17=4/2;
 3/5=4,6=6,7=11,11=2,25=1,30=1,71=1,74=-55,75=-5,124=31/1,2,3;
 4/5=5,16=3,69=1/1;
 5/5=2,32=2,38=5/2;
 7//1,2,3,16;
 1/18=20,19=15,26=4/3(-5);
 2/9=110,17=4/2;
 6/7=2,8=2,9=2,10=2,19=2,28=1/1;
 99/9=1/99;
 --------------------------
 NM3.M062X_6-311pGd_opt_GD3
 --------------------------
 Symbolic Z-matrix:
 Charge =  0 Multiplicity = 1
 C                    -6.0172    1.18721   0.1984 
 N                    -4.75876   0.59305   0.05799 
 C                    -3.51925   1.22164   0.14958 
 O                    -3.37594   2.39751   0.39955 
 N                    -2.46615   0.3623   -0.04398 
 C                    -1.11508   0.90789  -0.09391 
 C                    -0.08817  -0.21476  -0.09915 
 C                     1.33573   0.33049  -0.14621 
 C                    -6.21781   2.57356   0.2139 
 C                    -7.51185   3.05708   0.32682 
 C                    -8.62112   2.2231    0.42461 
 C                    -8.39697   0.85741   0.40666 
 C                    -7.11872   0.33284   0.29707 
 H                    -4.75508  -0.4158    0.06526 
 H                    -2.63001  -0.47381  -0.58632 
 H                    -0.98413   1.54361   0.78309 
 H                    -0.98972   1.54994  -0.97387 
 H                    -0.25937  -0.86597  -0.96468 
 H                    -0.22974  -0.83123   0.79343 
 H                     1.49986   0.92927  -1.04525 
 H                     2.06899  -0.47725  -0.1459 
 H                     1.54034   0.96656   0.71813 
 H                    -5.37835   3.24768   0.14937 
 Cl                   -9.74632  -0.23556   0.5257 
 H                    -6.98511  -0.74356   0.28818 
 C                    -7.76168   4.54111   0.3421 
 H                    -9.62372   2.62263   0.51257 
 F                    -8.55117   4.91272  -0.67964 
 F                    -8.3916    4.91928   1.46621 
 F                    -6.63761   5.25552   0.25548 
 

 GradGradGradGradGradGradGradGradGradGradGradGradGradGradGradGradGradGrad
 Berny optimization.
 Initialization pass.
                           ----------------------------
                           !    Initial Parameters    !
                           ! (Angstroms and Degrees)  !
 --------------------------                            --------------------------
 ! Name  Definition              Value          Derivative Info.                !
 --------------------------------------------------------------------------------
 ! R1    R(1,2)                  1.3987         estimate D2E/DX2                !
 ! R2    R(1,9)                  1.4009         estimate D2E/DX2                !
 ! R3    R(1,13)                 1.3975         estimate D2E/DX2                !
 ! R4    R(2,3)                  1.3928         estimate D2E/DX2                !
 ! R5    R(2,14)                 1.0089         estimate D2E/DX2                !
 ! R6    R(3,4)                  1.2107         estimate D2E/DX2                !
 ! R7    R(3,5)                  1.3729         estimate D2E/DX2                !
 ! R8    R(5,6)                  1.4579         estimate D2E/DX2                !
 ! R9    R(5,15)                 1.01           estimate D2E/DX2                !
 ! R10   R(6,7)                  1.5215         estimate D2E/DX2                !
 ! R11   R(6,16)                 1.0911         estimate D2E/DX2                !
 ! R12   R(6,17)                 1.0965         estimate D2E/DX2                !
 ! R13   R(7,8)                  1.5255         estimate D2E/DX2                !
 ! R14   R(7,18)                 1.0966         estimate D2E/DX2                !
 ! R15   R(7,19)                 1.094          estimate D2E/DX2                !
 ! R16   R(8,20)                 1.0926         estimate D2E/DX2                !
 ! R17   R(8,21)                 1.0909         estimate D2E/DX2                !
 ! R18   R(8,22)                 1.0925         estimate D2E/DX2                !
 ! R19   R(9,10)                 1.386          estimate D2E/DX2                !
 ! R20   R(9,23)                 1.0786         estimate D2E/DX2                !
 ! R21   R(10,11)                1.3912         estimate D2E/DX2                !
 ! R22   R(10,26)                1.505          estimate D2E/DX2                !
 ! R23   R(11,12)                1.3841         estimate D2E/DX2                !
 ! R24   R(11,27)                1.0829         estimate D2E/DX2                !
 ! R25   R(12,13)                1.386          estimate D2E/DX2                !
 ! R26   R(12,24)                1.7406         estimate D2E/DX2                !
 ! R27   R(13,25)                1.0847         estimate D2E/DX2                !
 ! R28   R(26,28)                1.3436         estimate D2E/DX2                !
 ! R29   R(26,29)                1.3429         estimate D2E/DX2                !
 ! R30   R(26,30)                1.3347         estimate D2E/DX2                !
 ! A1    A(2,1,9)              123.3897         estimate D2E/DX2                !
 ! A2    A(2,1,13)             117.1644         estimate D2E/DX2                !
 ! A3    A(9,1,13)             119.4303         estimate D2E/DX2                !
 ! A4    A(1,2,3)              127.0401         estimate D2E/DX2                !
 ! A5    A(1,2,14)             115.2987         estimate D2E/DX2                !
 ! A6    A(3,2,14)             116.5882         estimate D2E/DX2                !
 ! A7    A(2,3,4)              123.8669         estimate D2E/DX2                !
 ! A8    A(2,3,5)              113.0082         estimate D2E/DX2                !
 ! A9    A(4,3,5)              123.11           estimate D2E/DX2                !
 ! A10   A(3,5,6)              118.7782         estimate D2E/DX2                !
 ! A11   A(3,5,15)             117.9969         estimate D2E/DX2                !
 ! A12   A(6,5,15)             116.216          estimate D2E/DX2                !
 ! A13   A(5,6,7)              110.4548         estimate D2E/DX2                !
 ! A14   A(5,6,16)             107.5618         estimate D2E/DX2                !
 ! A15   A(5,6,17)             110.644          estimate D2E/DX2                !
 ! A16   A(7,6,16)             110.5905         estimate D2E/DX2                !
 ! A17   A(7,6,17)             110.6175         estimate D2E/DX2                !
 ! A18   A(16,6,17)            106.8687         estimate D2E/DX2                !
 ! A19   A(6,7,8)              111.4925         estimate D2E/DX2                !
 ! A20   A(6,7,18)             109.6046         estimate D2E/DX2                !
 ! A21   A(6,7,19)             109.0044         estimate D2E/DX2                !
 ! A22   A(8,7,18)             109.4899         estimate D2E/DX2                !
 ! A23   A(8,7,19)             110.3274         estimate D2E/DX2                !
 ! A24   A(18,7,19)            106.8062         estimate D2E/DX2                !
 ! A25   A(7,8,20)             111.192          estimate D2E/DX2                !
 ! A26   A(7,8,21)             111.2687         estimate D2E/DX2                !
 ! A27   A(7,8,22)             111.0092         estimate D2E/DX2                !
 ! A28   A(20,8,21)            107.7606         estimate D2E/DX2                !
 ! A29   A(20,8,22)            107.6857         estimate D2E/DX2                !
 ! A30   A(21,8,22)            107.757          estimate D2E/DX2                !
 ! A31   A(1,9,10)             118.6744         estimate D2E/DX2                !
 ! A32   A(1,9,23)             120.4261         estimate D2E/DX2                !
 ! A33   A(10,9,23)            120.8965         estimate D2E/DX2                !
 ! A34   A(9,10,11)            122.7521         estimate D2E/DX2                !
 ! A35   A(9,10,26)            119.9871         estimate D2E/DX2                !
 ! A36   A(11,10,26)           117.2604         estimate D2E/DX2                !
 ! A37   A(10,11,12)           117.4808         estimate D2E/DX2                !
 ! A38   A(10,11,27)           121.5175         estimate D2E/DX2                !
 ! A39   A(12,11,27)           121.0017         estimate D2E/DX2                !
 ! A40   A(11,12,13)           121.589          estimate D2E/DX2                !
 ! A41   A(11,12,24)           119.5489         estimate D2E/DX2                !
 ! A42   A(13,12,24)           118.8621         estimate D2E/DX2                !
 ! A43   A(1,13,12)            120.0733         estimate D2E/DX2                !
 ! A44   A(1,13,25)            120.5979         estimate D2E/DX2                !
 ! A45   A(12,13,25)           119.3288         estimate D2E/DX2                !
 ! A46   A(10,26,28)           111.2561         estimate D2E/DX2                !
 ! A47   A(10,26,29)           111.3487         estimate D2E/DX2                !
 ! A48   A(10,26,30)           112.7889         estimate D2E/DX2                !
 ! A49   A(28,26,29)           106.4415         estimate D2E/DX2                !
 ! A50   A(28,26,30)           107.3058         estimate D2E/DX2                !
 ! A51   A(29,26,30)           107.3757         estimate D2E/DX2                !
 ! D1    D(9,1,2,3)             12.1939         estimate D2E/DX2                !
 ! D2    D(9,1,2,14)           179.8557         estimate D2E/DX2                !
 ! D3    D(13,1,2,3)          -169.2505         estimate D2E/DX2                !
 ! D4    D(13,1,2,14)           -1.5887         estimate D2E/DX2                !
 ! D5    D(2,1,9,10)           178.4957         estimate D2E/DX2                !
 ! D6    D(2,1,9,23)            -2.1325         estimate D2E/DX2                !
 ! D7    D(13,1,9,10)           -0.0288         estimate D2E/DX2                !
 ! D8    D(13,1,9,23)          179.343          estimate D2E/DX2                !
 ! D9    D(2,1,13,12)         -178.4967         estimate D2E/DX2                !
 ! D10   D(2,1,13,25)            1.4575         estimate D2E/DX2                !
 ! D11   D(9,1,13,12)            0.1186         estimate D2E/DX2                !
 ! D12   D(9,1,13,25)         -179.9272         estimate D2E/DX2                !
 ! D13   D(1,2,3,4)              1.7048         estimate D2E/DX2                !
 ! D14   D(1,2,3,5)           -179.6668         estimate D2E/DX2                !
 ! D15   D(14,2,3,4)          -165.8189         estimate D2E/DX2                !
 ! D16   D(14,2,3,5)            12.8095         estimate D2E/DX2                !
 ! D17   D(2,3,5,6)            174.5988         estimate D2E/DX2                !
 ! D18   D(2,3,5,15)            24.9646         estimate D2E/DX2                !
 ! D19   D(4,3,5,6)             -6.7608         estimate D2E/DX2                !
 ! D20   D(4,3,5,15)          -156.395          estimate D2E/DX2                !
 ! D21   D(3,5,6,7)            171.3077         estimate D2E/DX2                !
 ! D22   D(3,5,6,16)            50.5273         estimate D2E/DX2                !
 ! D23   D(3,5,6,17)           -65.8632         estimate D2E/DX2                !
 ! D24   D(15,5,6,7)           -38.5297         estimate D2E/DX2                !
 ! D25   D(15,5,6,16)         -159.3101         estimate D2E/DX2                !
 ! D26   D(15,5,6,17)           84.2995         estimate D2E/DX2                !
 ! D27   D(5,6,7,8)           -179.8011         estimate D2E/DX2                !
 ! D28   D(5,6,7,18)            58.8072         estimate D2E/DX2                !
 ! D29   D(5,6,7,19)           -57.763          estimate D2E/DX2                !
 ! D30   D(16,6,7,8)           -60.8447         estimate D2E/DX2                !
 ! D31   D(16,6,7,18)          177.7635         estimate D2E/DX2                !
 ! D32   D(16,6,7,19)           61.1934         estimate D2E/DX2                !
 ! D33   D(17,6,7,8)            57.3543         estimate D2E/DX2                !
 ! D34   D(17,6,7,18)          -64.0375         estimate D2E/DX2                !
 ! D35   D(17,6,7,19)          179.3924         estimate D2E/DX2                !
 ! D36   D(6,7,8,20)           -60.0895         estimate D2E/DX2                !
 ! D37   D(6,7,8,21)           179.7784         estimate D2E/DX2                !
 ! D38   D(6,7,8,22)            59.7738         estimate D2E/DX2                !
 ! D39   D(18,7,8,20)           61.3689         estimate D2E/DX2                !
 ! D40   D(18,7,8,21)          -58.7632         estimate D2E/DX2                !
 ! D41   D(18,7,8,22)         -178.7678         estimate D2E/DX2                !
 ! D42   D(19,7,8,20)          178.6393         estimate D2E/DX2                !
 ! D43   D(19,7,8,21)           58.5072         estimate D2E/DX2                !
 ! D44   D(19,7,8,22)          -61.4974         estimate D2E/DX2                !
 ! D45   D(1,9,10,11)           -0.0451         estimate D2E/DX2                !
 ! D46   D(1,9,10,26)         -179.8074         estimate D2E/DX2                !
 ! D47   D(23,9,10,11)        -179.4139         estimate D2E/DX2                !
 ! D48   D(23,9,10,26)           0.8239         estimate D2E/DX2                !
 ! D49   D(9,10,11,12)           0.0278         estimate D2E/DX2                !
 ! D50   D(9,10,11,27)         179.9697         estimate D2E/DX2                !
 ! D51   D(26,10,11,12)        179.7961         estimate D2E/DX2                !
 ! D52   D(26,10,11,27)         -0.2619         estimate D2E/DX2                !
 ! D53   D(9,10,26,28)         119.8609         estimate D2E/DX2                !
 ! D54   D(9,10,26,29)        -121.5766         estimate D2E/DX2                !
 ! D55   D(9,10,26,30)          -0.7793         estimate D2E/DX2                !
 ! D56   D(11,10,26,28)        -59.9142         estimate D2E/DX2                !
 ! D57   D(11,10,26,29)         58.6483         estimate D2E/DX2                !
 ! D58   D(11,10,26,30)        179.4456         estimate D2E/DX2                !
 ! D59   D(10,11,12,13)          0.0651         estimate D2E/DX2                !
 ! D60   D(10,11,12,24)       -179.9998         estimate D2E/DX2                !
 ! D61   D(27,11,12,13)       -179.8772         estimate D2E/DX2                !
 ! D62   D(27,11,12,24)          0.0579         estimate D2E/DX2                !
 ! D63   D(11,12,13,1)          -0.139          estimate D2E/DX2                !
 ! D64   D(11,12,13,25)        179.9063         estimate D2E/DX2                !
 ! D65   D(24,12,13,1)         179.9255         estimate D2E/DX2                !
 ! D66   D(24,12,13,25)         -0.0292         estimate D2E/DX2                !
 --------------------------------------------------------------------------------
 Trust Radius=3.00D-01 FncErr=1.00D-07 GrdErr=1.00D-06 EigMax=2.50D+02 EigMin=1.00D-04
 Number of steps in this run=    157 maximum allowed number of steps=    180.
 GradGradGradGradGradGradGradGradGradGradGradGradGradGradGradGradGradGrad

                          Input orientation:                          
 ---------------------------------------------------------------------
 Center     Atomic      Atomic             Coordinates (Angstroms)
 Number     Number       Type             X           Y           Z
 ---------------------------------------------------------------------
      1          6           0       -6.017204    1.187207    0.198396
      2          7           0       -4.758763    0.593049    0.057989
      3          6           0       -3.519246    1.221644    0.149582
      4          8           0       -3.375943    2.397512    0.399552
      5          7           0       -2.466151    0.362303   -0.043982
      6          6           0       -1.115082    0.907887   -0.093912
      7          6           0       -0.088168   -0.214759   -0.099154
      8          6           0        1.335733    0.330489   -0.146212
      9          6           0       -6.217806    2.573559    0.213896
     10          6           0       -7.511853    3.057083    0.326823
     11          6           0       -8.621117    2.223097    0.424609
     12          6           0       -8.396966    0.857415    0.406657
     13          6           0       -7.118716    0.332840    0.297071
     14          1           0       -4.755078   -0.415798    0.065256
     15          1           0       -2.630013   -0.473808   -0.586322
     16          1           0       -0.984135    1.543606    0.783094
     17          1           0       -0.989721    1.549939   -0.973874
     18          1           0       -0.259369   -0.865973   -0.964679
     19          1           0       -0.229741   -0.831233    0.793432
     20          1           0        1.499863    0.929270   -1.045245
     21          1           0        2.068990   -0.477246   -0.145904
     22          1           0        1.540342    0.966565    0.718134
     23          1           0       -5.378354    3.247679    0.149365
     24         17           0       -9.746319   -0.235559    0.525695
     25          1           0       -6.985105   -0.743564    0.288183
     26          6           0       -7.761683    4.541112    0.342100
     27          1           0       -9.623724    2.622635    0.512573
     28          9           0       -8.551171    4.912719   -0.679642
     29          9           0       -8.391604    4.919284    1.466213
     30          9           0       -6.637607    5.255518    0.255485
 ---------------------------------------------------------------------
                    Distance matrix (angstroms):
                    1          2          3          4          5
     1  C    0.000000
     2  N    1.398718   0.000000
     3  C    2.498672   1.392811   0.000000
     4  O    2.912312   2.298900   1.210655   0.000000
     5  N    3.653654   2.306449   1.372932   2.272997   0.000000
     6  C    4.918767   3.660411   2.436748   2.752087   1.457925
     7  C    6.099796   4.742541   3.727925   4.228727   2.447621
     8  C    7.410695   6.103565   4.944944   5.174005   3.803391
     9  C    1.400876   2.464860   3.018946   2.853358   4.362462
    10  C    2.397270   3.704489   4.397858   4.188803   5.732228
    11  C    2.811513   4.208236   5.206499   5.248133   6.447149
    12  C    2.411515   3.664421   4.898051   5.251916   5.968482
    13  C    1.397501   2.386263   3.710513   4.275713   4.665141
    14  H    2.044582   1.008880   2.053195   3.150949   2.420033
    15  H    3.853286   2.466759   2.051061   3.126154   1.009983
    16  H    5.079436   3.959438   2.632829   2.568463   2.067826
    17  H    5.175072   4.023190   2.787190   2.880752   2.110693
    18  H    6.222616   4.839332   4.028216   4.714286   2.688166
    19  H    6.158157   4.804320   3.930610   4.525320   2.669705
    20  H    7.623612   6.364006   5.167645   5.293076   4.129558
    21  H    8.262897   6.914138   5.848241   6.181347   4.613322
    22  H    7.578609   6.344606   5.097818   5.130201   4.122856
    23  H    2.157795   2.727509   2.749745   2.189755   4.104108
    24  Cl   4.004709   5.077506   6.406352   6.894249   7.326856
    25  H    2.161660   2.606938   3.986657   4.785897   4.664142
    26  C    3.783192   4.968446   5.390195   4.881910   6.756786
    27  H    3.894374   5.290909   6.273690   6.252857   7.526599
    28  F    4.590357   5.795344   6.295388   5.854393   7.624815
    29  F    4.601472   5.822108   6.256671   5.714365   7.626124
    30  F    4.115740   5.030674   5.099758   4.339057   6.436947
                    6          7          8          9         10
     6  C    0.000000
     7  C    1.521484   0.000000
     8  C    2.518455   1.525452   0.000000
     9  C    5.376524   6.741304   7.887775   0.000000
    10  C    6.761268   8.123884   9.270267   1.386039   0.000000
    11  C    7.638010   8.889808  10.151190   2.437852   1.391244
    12  C    7.299244   8.392945   9.762620   2.780476   2.372412
    13  C    6.043772   7.062964   8.466062   2.416481   2.752625
    14  H    3.876474   4.674130   6.140003   3.331355   4.441749
    15  H    2.108688   2.601041   4.070348   4.774836   6.093717
    16  H    1.091066   2.161705   2.777958   5.364337   6.716390
    17  H    1.096485   2.166124   2.753147   5.458157   6.819201
    18  H    2.153383   1.096597   2.155403   6.980143   8.346069
    19  H    2.143769   1.093980   2.164078   6.912699   8.268366
    20  H    2.782702   2.173876   1.092584   7.990716   9.360619
    21  H    3.472695   2.173572   1.090918   8.837865  10.222891
    22  H    2.777433   2.171527   1.092497   7.938864   9.298689
    23  H    4.869220   6.327425   7.326413   1.078555   2.149334
    24  Cl   8.728668   9.678365  11.116823   4.520926   3.984205
    25  H    6.109866   6.928016   8.401109   3.405521   3.837170
    26  C    7.587341   9.038576  10.036472   2.504248   1.504989
    27  H    8.700872   9.967539  11.215954   3.419341   2.164081
    28  F    8.466238   9.912134  10.910190   3.422670   2.352985
    29  F    8.454176   9.887155  10.875571   3.434548   2.353713
    30  F    7.037206   8.540776   9.380375   2.714934   2.366963
                   11         12         13         14         15
    11  C    0.000000
    12  C    1.384072   0.000000
    13  C    2.417963   1.386041   0.000000
    14  H    4.694589   3.873109   2.490178   0.000000
    15  H    6.647451   6.001326   4.645376   2.223470   0.000000
    16  H    7.675527   7.454034   6.271783   4.309822   2.941798
    17  H    7.787625   7.566554   6.376615   4.372851   2.633687
    18  H    9.021713   8.430368   7.076709   4.634093   2.432468
    19  H    8.937570   8.348934   7.004243   4.602336   2.791555
    20  H   10.308671  10.003020   8.742851   6.493590   4.385785
    21  H   11.040639  10.565173   9.233981   6.827610   4.719598
    22  H   10.243060   9.942788   8.692421   6.478386   4.600885
    23  H    3.411896   3.858961   3.398083   3.717071   4.684451
    24  Cl   2.705789   1.740551   2.698082   5.015674   7.206606
    25  H    3.390608   2.137878   1.084701   2.264983   4.450209
    26  C    2.473586   3.738633   4.257346   5.804075   7.235015
    27  H    1.082862   2.152244   3.400686   5.756378   7.727065
    28  F    2.908321   4.201109   4.897059   6.584702   8.005217
    29  F    2.899489   4.197794   4.901287   6.606823   8.154403
    30  F    3.627463   4.739358   4.946308   5.978624   7.042346
                   16         17         18         19         20
    16  H    0.000000
    17  H    1.756989   0.000000
    18  H    3.063669   2.523912   0.000000
    19  H    2.491802   3.061196   1.758704   0.000000
    20  H    3.144913   2.566779   2.514814   3.077602   0.000000
    21  H    3.777361   3.761745   2.498551   2.508350   1.763805
    22  H    2.590402   3.099102   3.070670   2.524072   1.764238
    23  H    4.755485   4.837777   6.660873   6.600043   7.356085
    24  Cl   8.944695   9.061718   9.623973   9.538961  11.414960
    25  H    6.441097   6.541986   6.842527   6.774800   8.750491
    26  C    7.423926   7.519201   9.339645   9.262610  10.037249
    27  H    8.710912   8.826449  10.101673  10.012742  11.359070
    28  F    8.411335   8.280724  10.110811  10.218079  10.817801
    29  F    8.168994   8.490842  10.271889  10.006853  10.957589
    30  F    6.783687   6.865950   8.924314   8.854303   9.307349
                   21         22         23         24         25
    21  H    0.000000
    22  H    1.763695   0.000000
    23  H    8.332178   7.307211   0.000000
    24  Cl  11.836849  11.352130   5.599437   0.000000
    25  H    9.068406   8.705897   4.304758   2.817585   0.000000
    26  C   11.048267   9.972285   2.718524   5.175817   5.341702
    27  H   12.114554  11.288100   4.306480   2.860852   4.282984
    28  F   11.921594  10.925408   3.677822   5.420884   5.948343
    29  F   11.880467  10.715744   3.688907   5.412231   5.952634
    30  F   10.432188   9.245973   2.372425   6.315777   6.009228
                   26         27         28         29         30
    26  C    0.000000
    27  H    2.678957   0.000000
    28  F    1.343629   2.795753   0.000000
    29  F    1.342925   2.775274   2.151790   0.000000
    30  F    1.334700   3.989369   2.157244   2.157643   0.000000
 Stoichiometry    C11H12ClF3N2O
 Framework group  C1[X(C11H12ClF3N2O)]
 Deg. of freedom    84
 Full point group                 C1      NOp   1
 Largest Abelian subgroup         C1      NOp   1
 Largest concise Abelian subgroup C1      NOp   1
                         Standard orientation:                         
 ---------------------------------------------------------------------
 Center     Atomic      Atomic             Coordinates (Angstroms)
 Number     Number       Type             X           Y           Z
 ---------------------------------------------------------------------
      1          6           0       -0.178902    0.741797    0.053377
      2          7           0        1.199251    0.972003    0.117485
      3          6           0        2.215157    0.033246   -0.045589
      4          8           0        2.020455   -1.134157   -0.300434
      5          7           0        3.470753    0.573507    0.083018
      6          6           0        4.624476   -0.317363    0.054395
      7          6           0        5.915256    0.485989   -0.004148
      8          6           0        7.138895   -0.424193   -0.039948
      9          6           0       -0.747498   -0.538496    0.053504
     10          6           0       -2.128364   -0.652941    0.018636
     11          6           0       -2.974475    0.450908   -0.015596
     12          6           0       -2.388698    1.704909   -0.014611
     13          6           0       -1.012104    1.863188    0.017745
     14          1           0        1.475203    1.942357    0.107298
     15          1           0        3.570682    1.415447    0.631851
     16          1           0        4.527804   -0.952998   -0.827107
     17          1           0        4.622075   -0.981154    0.927124
     18          1           0        5.976771    1.147569    0.868234
     19          1           0        5.894432    1.129703   -0.888451
     20          1           0        7.186554   -1.057053    0.849408
     21          1           0        8.061985    0.155380   -0.085811
     22          1           0        7.113647   -1.080239   -0.913170
     23          1           0       -0.119363   -1.415111    0.070071
     24         17           0       -3.396723    3.123234   -0.056551
     25          1           0       -0.592090    2.863268    0.015816
     26          6           0       -2.770671   -2.013978    0.022161
     27          1           0       -4.051113    0.338262   -0.043013
     28          9           0       -3.570932   -2.172187    1.089818
     29          9           0       -3.543147   -2.192826   -1.061693
     30          9           0       -1.878631   -3.006556    0.044042
 ---------------------------------------------------------------------
 Rotational constants (GHZ):           0.5290879           0.1556570           0.1232730
 Standard basis: 6-311+G(d) (5D, 7F)
 There are   458 symmetry adapted cartesian basis functions of A   symmetry.
 There are   440 symmetry adapted basis functions of A   symmetry.
   440 basis functions,   725 primitive gaussians,   458 cartesian basis functions
    72 alpha electrons       72 beta electrons
       nuclear repulsion energy      1418.7381089626 Hartrees.
 NAtoms=   30 NActive=   30 NUniq=   30 SFac= 1.00D+00 NAtFMM=   60 NAOKFM=F Big=F
 Integral buffers will be    131072 words long.
 Raffenetti 2 integral format.
 Two-electron integral symmetry is turned on.
 Nuclear repulsion after empirical dispersion term =     1418.7367466000 Hartrees.
 One-electron integrals computed using PRISM.
 NBasis=   440 RedAO= T EigKep=  1.30D-06  NBF=   440
 NBsUse=   438 1.00D-06 EigRej=  9.88D-07 NBFU=   438
 ExpMin= 4.38D-02 ExpMax= 1.06D+05 ExpMxC= 3.62D+03 IAcc=3 IRadAn=         5 AccDes= 0.00D+00
 Harris functional with IExCor= 1009 and IRadAn=       5 diagonalized for initial guess.
 HarFok:  IExCor= 1009 AccDes= 0.00D+00 IRadAn=         5 IDoV= 1 UseB2=F ITyADJ=14
 ICtDFT=  3500011 ScaDFX=  1.000000  1.000000  1.000000  1.000000
 FoFCou: FMM=F IPFlag=           0 FMFlag=      100000 FMFlg1=           0
         NFxFlg=           0 DoJE=T BraDBF=F KetDBF=T FulRan=T
         wScrn=  0.000000 ICntrl=       500 IOpCl=  0 I1Cent=   200000004 NGrid=           0
         NMat0=    1 NMatS0=      1 NMatT0=    0 NMatD0=    1 NMtDS0=    0 NMtDT0=    0
 Petite list used in FoFCou.
 Requested convergence on RMS density matrix=1.00D-08 within 128 cycles.
 Requested convergence on MAX density matrix=1.00D-06.
 Requested convergence on             energy=1.00D-06.
 No special actions if energy rises.
 SCF Done:  E(RM062X) =  -1370.79855277     A.U. after   15 cycles
            NFock= 15  Conv=0.47D-08     -V/T= 2.0028

 **********************************************************************

            Population analysis using the SCF Density.

 **********************************************************************

 Orbital symmetries:
       Occupied  (A) (A) (A) (A) (A) (A) (A) (A) (A) (A) (A) (A)
                 (A) (A) (A) (A) (A) (A) (A) (A) (A) (A) (A) (A)
                 (A) (A) (A) (A) (A) (A) (A) (A) (A) (A) (A) (A)
                 (A) (A) (A) (A) (A) (A) (A) (A) (A) (A) (A) (A)
                 (A) (A) (A) (A) (A) (A) (A) (A) (A) (A) (A) (A)
                 (A) (A) (A) (A) (A) (A) (A) (A) (A) (A) (A) (A)
       Virtual   (A) (A) (A) (A) (A) (A) (A) (A) (A) (A) (A) (A)
                 (A) (A) (A) (A) (A) (A) (A) (A) (A) (A) (A) (A)
                 (A) (A) (A) (A) (A) (A) (A) (A) (A) (A) (A) (A)
                 (A) (A) (A) (A) (A) (A) (A) (A) (A) (A) (A) (A)
                 (A) (A) (A) (A) (A) (A) (A) (A) (A) (A) (A) (A)
                 (A) (A) (A) (A) (A) (A) (A) (A) (A) (A) (A) (A)
                 (A) (A) (A) (A) (A) (A) (A) (A) (A) (A) (A) (A)
                 (A) (A) (A) (A) (A) (A) (A) (A) (A) (A) (A) (A)
                 (A) (A) (A) (A) (A) (A) (A) (A) (A) (A) (A) (A)
                 (A) (A) (A) (A) (A) (A) (A) (A) (A) (A) (A) (A)
                 (A) (A) (A) (A) (A) (A) (A) (A) (A) (A) (A) (A)
                 (A) (A) (A) (A) (A) (A) (A) (A) (A) (A) (A) (A)
                 (A) (A) (A) (A) (A) (A) (A) (A) (A) (A) (A) (A)
                 (A) (A) (A) (A) (A) (A) (A) (A) (A) (A) (A) (A)
                 (A) (A) (A) (A) (A) (A) (A) (A) (A) (A) (A) (A)
                 (A) (A) (A) (A) (A) (A) (A) (A) (A) (A) (A) (A)
                 (A) (A) (A) (A) (A) (A) (A) (A) (A) (A) (A) (A)
                 (A) (A) (A) (A) (A) (A) (A) (A) (A) (A) (A) (A)
                 (A) (A) (A) (A) (A) (A) (A) (A) (A) (A) (A) (A)
                 (A) (A) (A) (A) (A) (A) (A) (A) (A) (A) (A) (A)
                 (A) (A) (A) (A) (A) (A) (A) (A) (A) (A) (A) (A)
                 (A) (A) (A) (A) (A) (A) (A) (A) (A) (A) (A) (A)
                 (A) (A) (A) (A) (A) (A) (A) (A) (A) (A) (A) (A)
                 (A) (A) (A) (A) (A) (A) (A) (A) (A) (A) (A) (A)
                 (A) (A) (A) (A) (A) (A) (A) (A) (A) (A) (A) (A)
                 (A) (A) (A) (A) (A) (A) (A) (A) (A) (A) (A) (A)
                 (A) (A) (A) (A) (A) (A) (A) (A) (A) (A) (A) (A)
                 (A) (A) (A) (A) (A) (A) (A) (A) (A) (A) (A) (A)
                 (A) (A) (A) (A) (A) (A) (A) (A) (A) (A) (A) (A)
                 (A) (A) (A) (A) (A) (A) (A) (A) (A) (A) (A) (A)
                 (A) (A) (A) (A) (A) (A)
 The electronic state is 1-A.
 Alpha  occ. eigenvalues -- -102.68883 -25.27810 -25.27395 -25.27393 -19.60666
 Alpha  occ. eigenvalues --  -14.80759 -14.78607 -10.80299 -10.69372 -10.62848
 Alpha  occ. eigenvalues --  -10.62557 -10.58737 -10.58383 -10.57715 -10.57222
 Alpha  occ. eigenvalues --  -10.56629 -10.55438 -10.53993  -9.83151  -7.55666
 Alpha  occ. eigenvalues --   -7.54985  -7.54976  -1.47035  -1.37751  -1.37242
 Alpha  occ. eigenvalues --   -1.20135  -1.08402  -1.05015  -1.01514  -0.96187
 Alpha  occ. eigenvalues --   -0.90808  -0.89022  -0.85409  -0.81880  -0.79774
 Alpha  occ. eigenvalues --   -0.74396  -0.74007  -0.70438  -0.69921  -0.69298
 Alpha  occ. eigenvalues --   -0.67659  -0.67516  -0.64366  -0.60546  -0.59937
 Alpha  occ. eigenvalues --   -0.57689  -0.57591  -0.57404  -0.55866  -0.55042
 Alpha  occ. eigenvalues --   -0.54043  -0.53470  -0.53199  -0.52041  -0.51497
 Alpha  occ. eigenvalues --   -0.51158  -0.49918  -0.49695  -0.48616  -0.47273
 Alpha  occ. eigenvalues --   -0.46441  -0.44534  -0.44228  -0.43326  -0.42144
 Alpha  occ. eigenvalues --   -0.41473  -0.39324  -0.39181  -0.36803  -0.34136
 Alpha  occ. eigenvalues --   -0.32616  -0.29454
 Alpha virt. eigenvalues --   -0.01700  -0.01393  -0.00178   0.01010   0.01840
 Alpha virt. eigenvalues --    0.02249   0.02823   0.03196   0.03541   0.04377
 Alpha virt. eigenvalues --    0.04836   0.05171   0.05419   0.06103   0.06421
 Alpha virt. eigenvalues --    0.06687   0.06970   0.07162   0.07691   0.08102
 Alpha virt. eigenvalues --    0.08675   0.09256   0.09298   0.09780   0.11327
 Alpha virt. eigenvalues --    0.11827   0.11947   0.11988   0.12439   0.12518
 Alpha virt. eigenvalues --    0.13008   0.13787   0.14244   0.14272   0.15225
 Alpha virt. eigenvalues --    0.16128   0.16500   0.17031   0.17173   0.17823
 Alpha virt. eigenvalues --    0.18287   0.18585   0.18990   0.19356   0.19500
 Alpha virt. eigenvalues --    0.20001   0.20467   0.20700   0.21029   0.21414
 Alpha virt. eigenvalues --    0.21946   0.22396   0.22669   0.22773   0.23629
 Alpha virt. eigenvalues --    0.23818   0.24472   0.24576   0.25224   0.25448
 Alpha virt. eigenvalues --    0.25595   0.25849   0.26499   0.26803   0.27148
 Alpha virt. eigenvalues --    0.27523   0.28161   0.28644   0.28914   0.29108
 Alpha virt. eigenvalues --    0.29287   0.29455   0.30399   0.30932   0.31416
 Alpha virt. eigenvalues --    0.31857   0.32221   0.32972   0.33536   0.34423
 Alpha virt. eigenvalues --    0.34912   0.35711   0.36241   0.36436   0.36675
 Alpha virt. eigenvalues --    0.37298   0.38742   0.39259   0.39624   0.40613
 Alpha virt. eigenvalues --    0.40940   0.41744   0.42227   0.42574   0.43116
 Alpha virt. eigenvalues --    0.44426   0.45046   0.46053   0.46347   0.47537
 Alpha virt. eigenvalues --    0.47765   0.48239   0.48896   0.48974   0.49501
 Alpha virt. eigenvalues --    0.50690   0.51589   0.51994   0.54379   0.55847
 Alpha virt. eigenvalues --    0.57190   0.57611   0.59032   0.59969   0.60879
 Alpha virt. eigenvalues --    0.61239   0.61964   0.62654   0.63656   0.64670
 Alpha virt. eigenvalues --    0.65127   0.65683   0.66293   0.66770   0.68579
 Alpha virt. eigenvalues --    0.69385   0.69908   0.69990   0.70516   0.71096
 Alpha virt. eigenvalues --    0.71940   0.72104   0.72444   0.73013   0.73792
 Alpha virt. eigenvalues --    0.74689   0.75516   0.76013   0.76096   0.77100
 Alpha virt. eigenvalues --    0.77657   0.78986   0.79971   0.81636   0.82040
 Alpha virt. eigenvalues --    0.82895   0.85123   0.86384   0.88959   0.89675
 Alpha virt. eigenvalues --    0.90053   0.90733   0.91453   0.92699   0.93129
 Alpha virt. eigenvalues --    0.94393   0.95225   0.96446   0.97196   0.97985
 Alpha virt. eigenvalues --    0.99012   0.99497   1.00968   1.02630   1.04377
 Alpha virt. eigenvalues --    1.04705   1.06461   1.07963   1.08305   1.09111
 Alpha virt. eigenvalues --    1.11408   1.13554   1.15371   1.17009   1.20126
 Alpha virt. eigenvalues --    1.20677   1.22609   1.23922   1.24547   1.25553
 Alpha virt. eigenvalues --    1.26268   1.28138   1.29638   1.32502   1.33609
 Alpha virt. eigenvalues --    1.36874   1.38674   1.39540   1.42229   1.43188
 Alpha virt. eigenvalues --    1.45409   1.46685   1.47214   1.48103   1.48980
 Alpha virt. eigenvalues --    1.50566   1.51408   1.52441   1.53655   1.54120
 Alpha virt. eigenvalues --    1.54881   1.56190   1.58225   1.58668   1.58846
 Alpha virt. eigenvalues --    1.59511   1.60530   1.61436   1.62636   1.63754
 Alpha virt. eigenvalues --    1.64381   1.67147   1.71021   1.73827   1.73944
 Alpha virt. eigenvalues --    1.74439   1.76780   1.77517   1.79396   1.80023
 Alpha virt. eigenvalues --    1.81432   1.83548   1.84688   1.86018   1.86593
 Alpha virt. eigenvalues --    1.88602   1.90389   1.93235   1.94637   1.96039
 Alpha virt. eigenvalues --    1.96698   1.98502   2.00249   2.04872   2.06065
 Alpha virt. eigenvalues --    2.07370   2.09028   2.10435   2.12210   2.14857
 Alpha virt. eigenvalues --    2.17993   2.20998   2.21919   2.23237   2.29988
 Alpha virt. eigenvalues --    2.30247   2.31787   2.32966   2.34034   2.36761
 Alpha virt. eigenvalues --    2.39203   2.41005   2.45889   2.46914   2.51135
 Alpha virt. eigenvalues --    2.53331   2.53633   2.54755   2.56947   2.58686
 Alpha virt. eigenvalues --    2.60425   2.61840   2.63662   2.64515   2.66856
 Alpha virt. eigenvalues --    2.70925   2.72441   2.76437   2.78262   2.81307
 Alpha virt. eigenvalues --    2.81675   2.84549   2.86159   2.89370   2.93128
 Alpha virt. eigenvalues --    2.94845   2.96259   2.99817   3.00955   3.02506
 Alpha virt. eigenvalues --    3.04603   3.04995   3.10685   3.10918   3.11496
 Alpha virt. eigenvalues --    3.16218   3.19031   3.23679   3.25531   3.26486
 Alpha virt. eigenvalues --    3.27874   3.30058   3.35024   3.36746   3.40494
 Alpha virt. eigenvalues --    3.41564   3.43881   3.44921   3.50715   3.55335
 Alpha virt. eigenvalues --    3.63582   3.66490   3.69696   3.74860   3.77414
 Alpha virt. eigenvalues --    3.80707   3.80959   3.84433   3.84746   3.86946
 Alpha virt. eigenvalues --    3.87500   3.88733   3.96380   3.97976   4.00058
 Alpha virt. eigenvalues --    4.01118   4.01314   4.02330   4.05206   4.08168
 Alpha virt. eigenvalues --    4.10638   4.23436   4.28404   4.32081   4.52753
 Alpha virt. eigenvalues --    4.57149   4.76686   4.79576   4.87246   4.98513
 Alpha virt. eigenvalues --    5.02680   5.18198   5.18981   5.41665   5.89409
 Alpha virt. eigenvalues --    6.45597   6.48990   6.50297   6.53118   6.54170
 Alpha virt. eigenvalues --    6.58386   6.63266   6.87565   6.92814   9.96854
 Alpha virt. eigenvalues --   23.44233  23.56970  23.65348  23.72275  23.79579
 Alpha virt. eigenvalues --   23.91896  23.92619  23.96242  24.08984  24.10972
 Alpha virt. eigenvalues --   24.19720  25.93155  26.22315  26.73929  35.57811
 Alpha virt. eigenvalues --   35.67436  50.13155  66.88681  66.91987  66.97467
 Alpha virt. eigenvalues --  216.07040
          Condensed to atoms (all electrons):
               1          2          3          4          5          6
     1  C   23.666296  -0.666346  -0.818386  -0.036145  -0.039685  -0.526319
     2  N   -0.666346   7.992962   0.279858  -0.104652  -0.690707  -0.351374
     3  C   -0.818386   0.279858   7.865832   0.563701   0.055781  -0.930679
     4  O   -0.036145  -0.104652   0.563701   8.086976  -0.161020  -0.103486
     5  N   -0.039685  -0.690707   0.055781  -0.161020   7.846112   0.542932
     6  C   -0.526319  -0.351374  -0.930679  -0.103486   0.542932   8.035040
     7  C   -0.020020   0.018969   0.127267   0.017561  -0.139826  -0.766554
     8  C   -0.011097  -0.007005  -0.193113  -0.000692   0.000239   0.306360
     9  C   -1.528261   0.541425  -0.241835   0.131903  -0.314770  -0.092659
    10  C   -4.165466   0.221162  -0.185684   0.024766  -0.003628   0.018502
    11  C   -8.192345   0.132075   0.039340  -0.046243  -0.035979  -0.009098
    12  C    1.881546  -0.109151  -0.741701   0.028907   0.077904  -0.050170
    13  C   -0.913024  -0.208377  -0.052149  -0.067866  -0.015034  -0.051963
    14  H    0.006834   0.231112  -0.035298  -0.003775   0.058551   0.015235
    15  H   -0.031006   0.092027   0.020808  -0.002086   0.231617  -0.084765
    16  H   -0.000031   0.011948   0.055100  -0.001393  -0.040579   0.330440
    17  H    0.006345   0.008850   0.079289  -0.004304  -0.110134   0.399187
    18  H   -0.003380  -0.000906  -0.016337  -0.000297   0.003207  -0.057358
    19  H    0.003773   0.000016   0.030706  -0.000132   0.002167  -0.087021
    20  H    0.000205   0.000053   0.009326  -0.000032   0.000350  -0.044126
    21  H    0.000055  -0.000010   0.003119   0.000025  -0.001379   0.076270
    22  H   -0.000327  -0.000092  -0.009059  -0.000093  -0.000117  -0.045981
    23  H    0.019773  -0.023489   0.057611   0.002270   0.002927   0.004182
    24  Cl   0.351227  -0.014535  -0.040983  -0.000057   0.000065  -0.001200
    25  H    0.013946  -0.019233  -0.004490   0.000104  -0.000897  -0.000809
    26  C   -2.134775   0.024940  -0.016288   0.009445   0.012285   0.003427
    27  H    0.032646   0.000563   0.001830   0.000005   0.000010   0.000018
    28  F    0.012634   0.000580  -0.000082   0.000011   0.000014   0.000010
    29  F    0.037316   0.000398   0.000251   0.000051  -0.000002  -0.000015
    30  F    0.192619   0.000186   0.008549  -0.000417  -0.000086   0.000168
               7          8          9         10         11         12
     1  C   -0.020020  -0.011097  -1.528261  -4.165466  -8.192345   1.881546
     2  N    0.018969  -0.007005   0.541425   0.221162   0.132075  -0.109151
     3  C    0.127267  -0.193113  -0.241835  -0.185684   0.039340  -0.741701
     4  O    0.017561  -0.000692   0.131903   0.024766  -0.046243   0.028907
     5  N   -0.139826   0.000239  -0.314770  -0.003628  -0.035979   0.077904
     6  C   -0.766554   0.306360  -0.092659   0.018502  -0.009098  -0.050170
     7  C    6.281339  -0.143879   0.002143  -0.003617   0.000969   0.000494
     8  C   -0.143879   6.029259  -0.005517  -0.000217  -0.000007  -0.000321
     9  C    0.002143  -0.005517  13.768852   3.892842  -4.795701  -0.384023
    10  C   -0.003617  -0.000217   3.892842  23.151297 -12.343385   5.701078
    11  C    0.000969  -0.000007  -4.795701 -12.343385  38.286964 -16.207593
    12  C    0.000494  -0.000321  -0.384023   5.701078 -16.207593  23.614674
    13  C    0.009652   0.000129  -3.942730  -4.341235   4.027249  -2.756191
    14  H   -0.003584  -0.000096   0.041420   0.024915  -0.026379   0.006898
    15  H    0.012186   0.007525   0.019959  -0.000159   0.000849  -0.003371
    16  H    0.003172  -0.025256   0.003821   0.000423   0.000118   0.000015
    17  H   -0.076279  -0.004084  -0.001680   0.000327   0.000242  -0.000176
    18  H    0.448546  -0.035995   0.000812   0.000059   0.000003  -0.000062
    19  H    0.443039  -0.049547  -0.000499  -0.000046  -0.000000   0.000080
    20  H    0.015427   0.365709   0.000015  -0.000003  -0.000000   0.000001
    21  H   -0.120210   0.393739   0.000008   0.000000  -0.000000   0.000000
    22  H    0.008163   0.392593   0.000025   0.000004   0.000000  -0.000002
    23  H   -0.000343   0.000028   0.295996  -0.112045   0.025685  -0.027663
    24  Cl  -0.000047  -0.000001   0.176344   0.208829  -0.759266  -0.637144
    25  H    0.000095  -0.000001  -0.061369   0.043463  -0.042043   0.111295
    26  C    0.000011  -0.000067  -1.450522  -5.430555   5.799672  -5.056521
    27  H   -0.000000   0.000000  -0.010978   0.086513   0.053494   0.135240
    28  F   -0.000000   0.000000   0.042324   0.239367  -0.335953   0.061327
    29  F   -0.000001  -0.000000   0.069017   0.221184  -0.363592   0.072516
    30  F    0.000003  -0.000000   0.050976  -0.237400   0.045057   0.052307
              13         14         15         16         17         18
     1  C   -0.913024   0.006834  -0.031006  -0.000031   0.006345  -0.003380
     2  N   -0.208377   0.231112   0.092027   0.011948   0.008850  -0.000906
     3  C   -0.052149  -0.035298   0.020808   0.055100   0.079289  -0.016337
     4  O   -0.067866  -0.003775  -0.002086  -0.001393  -0.004304  -0.000297
     5  N   -0.015034   0.058551   0.231617  -0.040579  -0.110134   0.003207
     6  C   -0.051963   0.015235  -0.084765   0.330440   0.399187  -0.057358
     7  C    0.009652  -0.003584   0.012186   0.003172  -0.076279   0.448546
     8  C    0.000129  -0.000096   0.007525  -0.025256  -0.004084  -0.035995
     9  C   -3.942730   0.041420   0.019959   0.003821  -0.001680   0.000812
    10  C   -4.341235   0.024915  -0.000159   0.000423   0.000327   0.000059
    11  C    4.027249  -0.026379   0.000849   0.000118   0.000242   0.000003
    12  C   -2.756191   0.006898  -0.003371   0.000015  -0.000176  -0.000062
    13  C   13.651765  -0.053320   0.004393   0.000815   0.000741  -0.000200
    14  H   -0.053320   0.385166   0.000343   0.000010   0.000346   0.000085
    15  H    0.004393   0.000343   0.400170   0.002886   0.001589   0.003727
    16  H    0.000815   0.000010   0.002886   0.423079  -0.037378   0.005364
    17  H    0.000741   0.000346   0.001589  -0.037378   0.475422  -0.009368
    18  H   -0.000200   0.000085   0.003727   0.005364  -0.009368   0.480848
    19  H    0.000239  -0.000021  -0.000512  -0.007835   0.006276  -0.045287
    20  H    0.000004  -0.000001   0.000055  -0.000223   0.003274  -0.008743
    21  H   -0.000005  -0.000000  -0.000025  -0.000220  -0.000094  -0.003451
    22  H   -0.000000   0.000001  -0.000027   0.003731  -0.000986   0.006803
    23  H    0.030295   0.000116  -0.000046  -0.000039   0.000043  -0.000001
    24  Cl  -0.052374   0.001828   0.000028   0.000001   0.000001   0.000000
    25  H    0.280612   0.007985   0.000036   0.000000  -0.000000  -0.000000
    26  C    0.844713   0.000325  -0.000067  -0.000012  -0.000080  -0.000000
    27  H   -0.016038  -0.000003  -0.000000  -0.000000  -0.000000   0.000000
    28  F   -0.014086   0.000001   0.000000   0.000000   0.000000   0.000000
    29  F   -0.017110   0.000000   0.000000   0.000000  -0.000000  -0.000000
    30  F   -0.005231   0.000004   0.000000   0.000001  -0.000000   0.000000
              19         20         21         22         23         24
     1  C    0.003773   0.000205   0.000055  -0.000327   0.019773   0.351227
     2  N    0.000016   0.000053  -0.000010  -0.000092  -0.023489  -0.014535
     3  C    0.030706   0.009326   0.003119  -0.009059   0.057611  -0.040983
     4  O   -0.000132  -0.000032   0.000025  -0.000093   0.002270  -0.000057
     5  N    0.002167   0.000350  -0.001379  -0.000117   0.002927   0.000065
     6  C   -0.087021  -0.044126   0.076270  -0.045981   0.004182  -0.001200
     7  C    0.443039   0.015427  -0.120210   0.008163  -0.000343  -0.000047
     8  C   -0.049547   0.365709   0.393739   0.392593   0.000028  -0.000001
     9  C   -0.000499   0.000015   0.000008   0.000025   0.295996   0.176344
    10  C   -0.000046  -0.000003   0.000000   0.000004  -0.112045   0.208829
    11  C   -0.000000  -0.000000  -0.000000   0.000000   0.025685  -0.759266
    12  C    0.000080   0.000001   0.000000  -0.000002  -0.027663  -0.637144
    13  C    0.000239   0.000004  -0.000005  -0.000000   0.030295  -0.052374
    14  H   -0.000021  -0.000001  -0.000000   0.000001   0.000116   0.001828
    15  H   -0.000512   0.000055  -0.000025  -0.000027  -0.000046   0.000028
    16  H   -0.007835  -0.000223  -0.000220   0.003731  -0.000039   0.000001
    17  H    0.006276   0.003274  -0.000094  -0.000986   0.000043   0.000001
    18  H   -0.045287  -0.008743  -0.003451   0.006803  -0.000001   0.000000
    19  H    0.447654   0.006004  -0.003324  -0.008641   0.000000   0.000000
    20  H    0.006004   0.453898  -0.025699  -0.035943   0.000000  -0.000000
    21  H   -0.003324  -0.025699   0.435760  -0.024229   0.000000  -0.000000
    22  H   -0.008641  -0.035943  -0.024229   0.451963  -0.000000   0.000000
    23  H    0.000000   0.000000   0.000000  -0.000000   0.339868   0.000342
    24  Cl   0.000000  -0.000000  -0.000000   0.000000   0.000342  17.533802
    25  H    0.000000   0.000000   0.000000  -0.000000  -0.000043  -0.010122
    26  C    0.000001   0.000000   0.000000  -0.000000   0.043530  -0.163950
    27  H    0.000000   0.000000   0.000000  -0.000000  -0.000190  -0.016509
    28  F    0.000000   0.000000   0.000000  -0.000000   0.000215  -0.000460
    29  F    0.000000   0.000000   0.000000  -0.000000   0.000175  -0.000623
    30  F   -0.000000  -0.000000  -0.000000   0.000000   0.011126  -0.000105
              25         26         27         28         29         30
     1  C    0.013946  -2.134775   0.032646   0.012634   0.037316   0.192619
     2  N   -0.019233   0.024940   0.000563   0.000580   0.000398   0.000186
     3  C   -0.004490  -0.016288   0.001830  -0.000082   0.000251   0.008549
     4  O    0.000104   0.009445   0.000005   0.000011   0.000051  -0.000417
     5  N   -0.000897   0.012285   0.000010   0.000014  -0.000002  -0.000086
     6  C   -0.000809   0.003427   0.000018   0.000010  -0.000015   0.000168
     7  C    0.000095   0.000011  -0.000000  -0.000000  -0.000001   0.000003
     8  C   -0.000001  -0.000067   0.000000   0.000000  -0.000000  -0.000000
     9  C   -0.061369  -1.450522  -0.010978   0.042324   0.069017   0.050976
    10  C    0.043463  -5.430555   0.086513   0.239367   0.221184  -0.237400
    11  C   -0.042043   5.799672   0.053494  -0.335953  -0.363592   0.045057
    12  C    0.111295  -5.056521   0.135240   0.061327   0.072516   0.052307
    13  C    0.280612   0.844713  -0.016038  -0.014086  -0.017110  -0.005231
    14  H    0.007985   0.000325  -0.000003   0.000001   0.000000   0.000004
    15  H    0.000036  -0.000067  -0.000000   0.000000   0.000000   0.000000
    16  H    0.000000  -0.000012  -0.000000   0.000000   0.000000   0.000001
    17  H   -0.000000  -0.000080  -0.000000   0.000000  -0.000000  -0.000000
    18  H   -0.000000  -0.000000   0.000000   0.000000  -0.000000   0.000000
    19  H    0.000000   0.000001   0.000000   0.000000   0.000000  -0.000000
    20  H    0.000000   0.000000   0.000000   0.000000   0.000000  -0.000000
    21  H    0.000000   0.000000   0.000000   0.000000   0.000000  -0.000000
    22  H   -0.000000  -0.000000  -0.000000  -0.000000  -0.000000   0.000000
    23  H   -0.000043   0.043530  -0.000190   0.000215   0.000175   0.011126
    24  Cl  -0.010122  -0.163950  -0.016509  -0.000460  -0.000623  -0.000105
    25  H    0.422191   0.005006  -0.000220  -0.000002  -0.000000   0.000002
    26  C    0.005006  12.379601   0.045869   0.164367   0.149225   0.052797
    27  H   -0.000220   0.045869   0.390308  -0.000800  -0.000525   0.000423
    28  F   -0.000002   0.164367  -0.000800   8.971835  -0.055033  -0.031178
    29  F   -0.000000   0.149225  -0.000525  -0.055033   8.972972  -0.030046
    30  F    0.000002   0.052797   0.000423  -0.031178  -0.030046   9.017402
 Mulliken charges:
               1
     1  C   -1.138602
     2  N   -0.361244
     3  C    0.087717
     4  O   -0.333033
     5  N   -0.280318
     6  C   -0.528193
     7  C   -0.114677
     8  C   -1.018685
     9  C   -0.207338
    10  C   -1.011290
    11  C    0.745869
    12  C    0.229803
    13  C   -0.343673
    14  H    0.341301
    15  H    0.323868
    16  H    0.272043
    17  H    0.262632
    18  H    0.231930
    19  H    0.262913
    20  H    0.260449
    21  H    0.269672
    22  H    0.262213
    23  H    0.329678
    24  Cl   0.424908
    25  H    0.254493
    26  C    0.717625
    27  H    0.298345
    28  F   -0.055091
    29  F   -0.056158
    30  F   -0.127156
 Sum of Mulliken charges =  -0.00000
 Mulliken charges with hydrogens summed into heavy atoms:
               1
     1  C   -1.138602
     2  N   -0.019944
     3  C    0.087717
     4  O   -0.333033
     5  N    0.043551
     6  C    0.006482
     7  C    0.380166
     8  C   -0.226351
     9  C    0.122340
    10  C   -1.011290
    11  C    1.044214
    12  C    0.229803
    13  C   -0.089181
    24  Cl   0.424908
    26  C    0.717625
    28  F   -0.055091
    29  F   -0.056158
    30  F   -0.127156
 Electronic spatial extent (au):  <R**2>=           8152.1843
 Charge=             -0.0000 electrons
 Dipole moment (field-independent basis, Debye):
    X=              5.1706    Y=              4.4423    Z=              1.0989  Tot=              6.9048
 Quadrupole moment (field-independent basis, Debye-Ang):
   XX=            -99.6993   YY=           -115.1857   ZZ=           -115.0023
   XY=              4.9543   XZ=              3.4623   YZ=              0.6919
 Traceless Quadrupole moment (field-independent basis, Debye-Ang):
   XX=             10.2631   YY=             -5.2233   ZZ=             -5.0398
   XY=              4.9543   XZ=              3.4623   YZ=              0.6919
 Octapole moment (field-independent basis, Debye-Ang**2):
  XXX=             71.4495  YYY=            -12.8283  ZZZ=             -0.4791  XYY=             12.8609
  XXY=             10.8164  XXZ=              8.2063  XZZ=             -4.6211  YZZ=            -14.1675
  YYZ=              3.3484  XYZ=              3.6194
 Hexadecapole moment (field-independent basis, Debye-Ang**3):
 XXXX=          -7682.2970 YYYY=          -2010.9007 ZZZZ=           -213.2671 XXXY=             95.3010
 XXXZ=             26.2368 YYYX=            114.7146 YYYZ=              3.7988 ZZZX=             -0.5860
 ZZZY=              0.3273 XXYY=          -1760.5993 XXZZ=          -1424.6921 YYZZ=           -380.3266
 XXYZ=             16.4044 YYXZ=             10.8522 ZZXY=             26.6700
 N-N= 1.418736746600D+03 E-N=-6.067896516544D+03  KE= 1.366905003499D+03
 Calling FoFJK, ICntrl=      2127 FMM=F ISym2X=0 I1Cent= 0 IOpClX= 0 NMat=1 NMatS=1 NMatT=0.
 ***** Axes restored to original set *****
 -------------------------------------------------------------------
 Center     Atomic                   Forces (Hartrees/Bohr)
 Number     Number              X              Y              Z
 -------------------------------------------------------------------
      1        6          -0.000003793    0.000001020   -0.000003269
      2        7           0.000000922   -0.000002982    0.000000329
      3        6           0.000008485   -0.000001513   -0.000001394
      4        8          -0.000003661   -0.000000537    0.000002671
      5        7          -0.000002953    0.000005533   -0.000003092
      6        6          -0.000002778   -0.000004736    0.000001052
      7        6           0.000002058   -0.000001894   -0.000001439
      8        6          -0.000000503   -0.000001708    0.000002275
      9        6           0.000000532   -0.000001578    0.000001866
     10        6           0.000003424    0.000002726    0.000000938
     11        6           0.000000429    0.000000317   -0.000001541
     12        6          -0.000001357    0.000002549   -0.000003130
     13        6           0.000000502    0.000001330   -0.000002812
     14        1          -0.000000462    0.000000158   -0.000004569
     15        1          -0.000000364    0.000002186    0.000000369
     16        1           0.000000076   -0.000001689    0.000002668
     17        1          -0.000001546   -0.000000797    0.000002363
     18        1          -0.000001510    0.000000575   -0.000000521
     19        1          -0.000001286   -0.000002569   -0.000001107
     20        1           0.000000600   -0.000000579    0.000002450
     21        1          -0.000000606   -0.000002121    0.000000716
     22        1          -0.000000181   -0.000003009    0.000002688
     23        1           0.000001733    0.000000166    0.000001596
     24       17          -0.000001042    0.000001513   -0.000005854
     25        1          -0.000000586    0.000001177   -0.000005166
     26        6           0.000000993    0.000001145    0.000002919
     27        1          -0.000000085    0.000001786   -0.000001277
     28        9           0.000001427    0.000002730    0.000003196
     29        9           0.000000224   -0.000000287    0.000002746
     30        9           0.000001309    0.000001089    0.000004330
 -------------------------------------------------------------------
 Cartesian Forces:  Max     0.000008485 RMS     0.000002381

 GradGradGradGradGradGradGradGradGradGradGradGradGradGradGradGradGradGrad
 Berny optimization.
 FormGI is forming the generalized inverse of G from B-inverse, IUseBI=4.
 Internal  Forces:  Max     0.000007336 RMS     0.000001461
 Search for a local minimum.
 Step number   1 out of a maximum of  157
 All quantities printed in internal units (Hartrees-Bohrs-Radians)
 Mixed Optimization -- En-DIIS/RFO-DIIS
 Second derivative matrix not updated -- first step.
 ITU=  0
     Eigenvalues ---    0.00429   0.00482   0.00700   0.00926   0.01649
     Eigenvalues ---    0.01709   0.01787   0.01830   0.01878   0.01919
     Eigenvalues ---    0.01988   0.02050   0.02121   0.02172   0.02197
     Eigenvalues ---    0.02231   0.02256   0.02263   0.02287   0.03714
     Eigenvalues ---    0.04425   0.04927   0.05502   0.05522   0.05552
     Eigenvalues ---    0.08188   0.09235   0.10578   0.10955   0.12083
     Eigenvalues ---    0.12674   0.14621   0.15839   0.15999   0.16000
     Eigenvalues ---    0.16000   0.16000   0.16000   0.16000   0.21889
     Eigenvalues ---    0.21896   0.22062   0.22328   0.23481   0.23505
     Eigenvalues ---    0.23509   0.24992   0.24994   0.25000   0.25000
     Eigenvalues ---    0.25000   0.25000   0.25000   0.25000   0.29847
     Eigenvalues ---    0.30224   0.31421   0.31860   0.34061   0.34074
     Eigenvalues ---    0.34357   0.34516   0.34526   0.34690   0.34707
     Eigenvalues ---    0.35432   0.35651   0.36169   0.37225   0.42476
     Eigenvalues ---    0.43012   0.45834   0.45975   0.46161   0.46318
     Eigenvalues ---    0.46770   0.46833   0.48001   0.48019   0.50417
     Eigenvalues ---    0.56399   0.56555   0.58409   0.99647
 RFO step:  Lambda= 0.00000000D+00 EMin= 4.29263039D-03
 Linear search not attempted -- first point.
 Iteration  1 RMS(Cart)=  0.00007296 RMS(Int)=  0.00000000
 Iteration  2 RMS(Cart)=  0.00000000 RMS(Int)=  0.00000000
 Variable       Old X    -DE/DX   Delta X   Delta X   Delta X     New X
                                 (Linear)    (Quad)   (Total)
    R1        2.64319   0.00000   0.00000   0.00000   0.00000   2.64320
    R2        2.64727  -0.00000   0.00000  -0.00000  -0.00000   2.64727
    R3        2.64089  -0.00000   0.00000  -0.00000  -0.00000   2.64089
    R4        2.63203   0.00000   0.00000   0.00000   0.00000   2.63203
    R5        1.90651   0.00000   0.00000   0.00000   0.00000   1.90651
    R6        2.28781  -0.00000   0.00000  -0.00000  -0.00000   2.28781
    R7        2.59447  -0.00001   0.00000  -0.00001  -0.00001   2.59445
    R8        2.75508  -0.00000   0.00000  -0.00001  -0.00001   2.75507
    R9        1.90859  -0.00000   0.00000  -0.00001  -0.00001   1.90859
   R10        2.87519   0.00000   0.00000   0.00000   0.00000   2.87519
   R11        2.06182   0.00000   0.00000   0.00000   0.00000   2.06182
   R12        2.07206  -0.00000   0.00000  -0.00000  -0.00000   2.07205
   R13        2.88269   0.00000   0.00000   0.00000   0.00000   2.88269
   R14        2.07227  -0.00000   0.00000  -0.00000  -0.00000   2.07227
   R15        2.06732   0.00000   0.00000   0.00000   0.00000   2.06732
   R16        2.06468   0.00000   0.00000   0.00000   0.00000   2.06468
   R17        2.06154  -0.00000   0.00000  -0.00000  -0.00000   2.06154
   R18        2.06452   0.00000   0.00000   0.00000   0.00000   2.06452
   R19        2.61923  -0.00000   0.00000  -0.00000  -0.00000   2.61923
   R20        2.03817   0.00000   0.00000   0.00000   0.00000   2.03818
   R21        2.62907   0.00000   0.00000   0.00000   0.00000   2.62907
   R22        2.84402   0.00000   0.00000   0.00000   0.00000   2.84402
   R23        2.61552  -0.00000   0.00000  -0.00000  -0.00000   2.61552
   R24        2.04631   0.00000   0.00000   0.00000   0.00000   2.04631
   R25        2.61924   0.00000   0.00000   0.00000   0.00000   2.61924
   R26        3.28916   0.00000   0.00000   0.00000   0.00000   3.28917
   R27        2.04979  -0.00000   0.00000  -0.00000  -0.00000   2.04979
   R28        2.53909  -0.00000   0.00000  -0.00000  -0.00000   2.53909
   R29        2.53776   0.00000   0.00000   0.00000   0.00000   2.53776
   R30        2.52222   0.00000   0.00000   0.00000   0.00000   2.52222
    A1        2.15356  -0.00001   0.00000  -0.00002  -0.00002   2.15354
    A2        2.04490   0.00000   0.00000   0.00002   0.00002   2.04492
    A3        2.08445   0.00000   0.00000   0.00000   0.00000   2.08446
    A4        2.21727  -0.00001   0.00000  -0.00003  -0.00003   2.21724
    A5        2.01234   0.00000   0.00000   0.00002   0.00002   2.01236
    A6        2.03485   0.00000   0.00000   0.00002   0.00002   2.03487
    A7        2.16188  -0.00000   0.00000  -0.00002  -0.00002   2.16187
    A8        1.97237  -0.00000   0.00000  -0.00000  -0.00000   1.97236
    A9        2.14867   0.00000   0.00000   0.00002   0.00002   2.14869
   A10        2.07307   0.00000   0.00000   0.00001   0.00001   2.07308
   A11        2.05943  -0.00000   0.00000  -0.00000  -0.00000   2.05943
   A12        2.02835  -0.00000   0.00000  -0.00000  -0.00000   2.02835
   A13        1.92780   0.00000   0.00000   0.00001   0.00001   1.92781
   A14        1.87731  -0.00000   0.00000   0.00001   0.00001   1.87732
   A15        1.93110  -0.00000   0.00000  -0.00003  -0.00003   1.93108
   A16        1.93017  -0.00000   0.00000   0.00000   0.00000   1.93017
   A17        1.93064   0.00000   0.00000   0.00000   0.00000   1.93064
   A18        1.86521   0.00000   0.00000   0.00000   0.00000   1.86521
   A19        1.94591   0.00000   0.00000   0.00000   0.00000   1.94591
   A20        1.91296  -0.00000   0.00000  -0.00001  -0.00001   1.91295
   A21        1.90249  -0.00000   0.00000  -0.00000  -0.00000   1.90248
   A22        1.91096   0.00000   0.00000   0.00001   0.00001   1.91097
   A23        1.92558  -0.00000   0.00000  -0.00000  -0.00000   1.92557
   A24        1.86412   0.00000   0.00000  -0.00000  -0.00000   1.86412
   A25        1.94067   0.00000   0.00000  -0.00000  -0.00000   1.94067
   A26        1.94201  -0.00000   0.00000  -0.00000  -0.00000   1.94200
   A27        1.93748   0.00000   0.00000   0.00000   0.00000   1.93748
   A28        1.88078  -0.00000   0.00000  -0.00000  -0.00000   1.88078
   A29        1.87947  -0.00000   0.00000  -0.00000  -0.00000   1.87947
   A30        1.88071  -0.00000   0.00000  -0.00000  -0.00000   1.88071
   A31        2.07126   0.00000   0.00000   0.00000   0.00000   2.07126
   A32        2.10183  -0.00000   0.00000  -0.00001  -0.00001   2.10182
   A33        2.11004   0.00000   0.00000   0.00000   0.00000   2.11005
   A34        2.14243  -0.00000   0.00000  -0.00001  -0.00001   2.14242
   A35        2.09417   0.00000   0.00000   0.00001   0.00001   2.09418
   A36        2.04658  -0.00000   0.00000  -0.00001  -0.00001   2.04657
   A37        2.05043   0.00000   0.00000   0.00000   0.00000   2.05043
   A38        2.12088  -0.00000   0.00000  -0.00000  -0.00000   2.12088
   A39        2.11188  -0.00000   0.00000  -0.00000  -0.00000   2.11188
   A40        2.12213  -0.00000   0.00000  -0.00000  -0.00000   2.12213
   A41        2.08652   0.00000   0.00000   0.00000   0.00000   2.08652
   A42        2.07453   0.00000   0.00000   0.00000   0.00000   2.07453
   A43        2.09567  -0.00000   0.00000  -0.00000  -0.00000   2.09567
   A44        2.10483   0.00000   0.00000  -0.00000  -0.00000   2.10483
   A45        2.08268   0.00000   0.00000   0.00000   0.00000   2.08269
   A46        1.94179  -0.00000   0.00000  -0.00000  -0.00000   1.94178
   A47        1.94340   0.00000   0.00000   0.00000   0.00000   1.94340
   A48        1.96854   0.00000   0.00000   0.00000   0.00000   1.96854
   A49        1.85775  -0.00000   0.00000  -0.00000  -0.00000   1.85775
   A50        1.87284   0.00000   0.00000   0.00000   0.00000   1.87284
   A51        1.87406  -0.00000   0.00000   0.00000   0.00000   1.87406
    D1        0.21282  -0.00000   0.00000  -0.00005  -0.00005   0.21278
    D2        3.13907  -0.00000   0.00000  -0.00001  -0.00001   3.13907
    D3       -2.95398  -0.00000   0.00000  -0.00002  -0.00002  -2.95400
    D4       -0.02773   0.00000   0.00000   0.00002   0.00002  -0.02771
    D5        3.11534   0.00000   0.00000   0.00002   0.00002   3.11536
    D6       -0.03722   0.00000   0.00000   0.00003   0.00003  -0.03719
    D7       -0.00050  -0.00000   0.00000  -0.00001  -0.00001  -0.00051
    D8        3.13013   0.00000   0.00000   0.00000   0.00000   3.13013
    D9       -3.11535  -0.00000   0.00000  -0.00002  -0.00002  -3.11537
   D10        0.02544  -0.00000   0.00000  -0.00002  -0.00002   0.02542
   D11        0.00207   0.00000   0.00000   0.00001   0.00001   0.00208
   D12       -3.14032   0.00000   0.00000   0.00000   0.00000  -3.14032
   D13        0.02975  -0.00000   0.00000  -0.00000  -0.00000   0.02975
   D14       -3.13578  -0.00000   0.00000  -0.00000  -0.00000  -3.13578
   D15       -2.89409  -0.00000   0.00000  -0.00005  -0.00005  -2.89413
   D16        0.22357  -0.00000   0.00000  -0.00005  -0.00005   0.22352
   D17        3.04732  -0.00000   0.00000  -0.00004  -0.00004   3.04729
   D18        0.43572  -0.00000   0.00000  -0.00005  -0.00005   0.43566
   D19       -0.11800  -0.00000   0.00000  -0.00004  -0.00004  -0.11804
   D20       -2.72961  -0.00000   0.00000  -0.00005  -0.00005  -2.72966
   D21        2.98988  -0.00000   0.00000  -0.00001  -0.00001   2.98987
   D22        0.88187  -0.00000   0.00000  -0.00002  -0.00002   0.88184
   D23       -1.14953   0.00000   0.00000  -0.00002  -0.00002  -1.14955
   D24       -0.67247  -0.00000   0.00000   0.00000   0.00000  -0.67247
   D25       -2.78049  -0.00000   0.00000  -0.00001  -0.00001  -2.78050
   D26        1.47130   0.00000   0.00000  -0.00001  -0.00001   1.47130
   D27       -3.13812  -0.00000   0.00000  -0.00002  -0.00002  -3.13814
   D28        1.02638  -0.00000   0.00000  -0.00003  -0.00003   1.02635
   D29       -1.00815  -0.00000   0.00000  -0.00002  -0.00002  -1.00818
   D30       -1.06194   0.00000   0.00000  -0.00000  -0.00000  -1.06194
   D31        3.10256  -0.00000   0.00000  -0.00001  -0.00001   3.10255
   D32        1.06803   0.00000   0.00000  -0.00001  -0.00001   1.06802
   D33        1.00102   0.00000   0.00000   0.00000   0.00000   1.00102
   D34       -1.11766   0.00000   0.00000  -0.00001  -0.00001  -1.11767
   D35        3.13099   0.00000   0.00000   0.00000   0.00000   3.13099
   D36       -1.04876  -0.00000   0.00000  -0.00001  -0.00001  -1.04877
   D37        3.13772   0.00000   0.00000  -0.00001  -0.00001   3.13772
   D38        1.04325   0.00000   0.00000  -0.00001  -0.00001   1.04324
   D39        1.07109  -0.00000   0.00000  -0.00001  -0.00001   1.07108
   D40       -1.02561  -0.00000   0.00000  -0.00001  -0.00001  -1.02562
   D41       -3.12009  -0.00000   0.00000  -0.00001  -0.00001  -3.12010
   D42        3.11784  -0.00000   0.00000  -0.00001  -0.00001   3.11784
   D43        1.02114   0.00000   0.00000  -0.00001  -0.00001   1.02114
   D44       -1.07333   0.00000   0.00000  -0.00001  -0.00001  -1.07334
   D45       -0.00079   0.00000   0.00000  -0.00000  -0.00000  -0.00079
   D46       -3.13823   0.00000   0.00000   0.00001   0.00001  -3.13822
   D47       -3.13136  -0.00000   0.00000  -0.00001  -0.00001  -3.13137
   D48        0.01438   0.00000   0.00000   0.00000   0.00000   0.01438
   D49        0.00048   0.00000   0.00000   0.00000   0.00000   0.00049
   D50        3.14106   0.00000   0.00000   0.00001   0.00001   3.14107
   D51        3.13803  -0.00000   0.00000  -0.00001  -0.00001   3.13802
   D52       -0.00457  -0.00000   0.00000  -0.00001  -0.00001  -0.00458
   D53        2.09197   0.00000   0.00000   0.00001   0.00001   2.09198
   D54       -2.12191  -0.00000   0.00000   0.00001   0.00001  -2.12191
   D55       -0.01360   0.00000   0.00000   0.00001   0.00001  -0.01359
   D56       -1.04570   0.00000   0.00000   0.00003   0.00003  -1.04567
   D57        1.02361  -0.00000   0.00000   0.00002   0.00002   1.02363
   D58        3.13192   0.00000   0.00000   0.00003   0.00003   3.13194
   D59        0.00114   0.00000   0.00000   0.00000   0.00000   0.00114
   D60       -3.14159   0.00000   0.00000   0.00000   0.00000  -3.14159
   D61       -3.13945  -0.00000   0.00000  -0.00000  -0.00000  -3.13945
   D62        0.00101   0.00000   0.00000   0.00000   0.00000   0.00101
   D63       -0.00243  -0.00000   0.00000  -0.00001  -0.00001  -0.00243
   D64        3.13996   0.00000   0.00000   0.00000   0.00000   3.13996
   D65        3.14029  -0.00000   0.00000  -0.00001  -0.00001   3.14028
   D66       -0.00051  -0.00000   0.00000  -0.00000  -0.00000  -0.00051
         Item               Value     Threshold  Converged?
 Maximum Force            0.000007     0.000450     YES
 RMS     Force            0.000001     0.000300     YES
 Maximum Displacement     0.000259     0.001800     YES
 RMS     Displacement     0.000073     0.001200     YES
 Predicted change in Energy=-8.248402D-10
 Optimization completed.
    -- Stationary point found.
                           ----------------------------
                           !   Optimized Parameters   !
                           ! (Angstroms and Degrees)  !
 --------------------------                            --------------------------
 ! Name  Definition              Value          Derivative Info.                !
 --------------------------------------------------------------------------------
 ! R1    R(1,2)                  1.3987         -DE/DX =    0.0                 !
 ! R2    R(1,9)                  1.4009         -DE/DX =    0.0                 !
 ! R3    R(1,13)                 1.3975         -DE/DX =    0.0                 !
 ! R4    R(2,3)                  1.3928         -DE/DX =    0.0                 !
 ! R5    R(2,14)                 1.0089         -DE/DX =    0.0                 !
 ! R6    R(3,4)                  1.2107         -DE/DX =    0.0                 !
 ! R7    R(3,5)                  1.3729         -DE/DX =    0.0                 !
 ! R8    R(5,6)                  1.4579         -DE/DX =    0.0                 !
 ! R9    R(5,15)                 1.01           -DE/DX =    0.0                 !
 ! R10   R(6,7)                  1.5215         -DE/DX =    0.0                 !
 ! R11   R(6,16)                 1.0911         -DE/DX =    0.0                 !
 ! R12   R(6,17)                 1.0965         -DE/DX =    0.0                 !
 ! R13   R(7,8)                  1.5255         -DE/DX =    0.0                 !
 ! R14   R(7,18)                 1.0966         -DE/DX =    0.0                 !
 ! R15   R(7,19)                 1.094          -DE/DX =    0.0                 !
 ! R16   R(8,20)                 1.0926         -DE/DX =    0.0                 !
 ! R17   R(8,21)                 1.0909         -DE/DX =    0.0                 !
 ! R18   R(8,22)                 1.0925         -DE/DX =    0.0                 !
 ! R19   R(9,10)                 1.386          -DE/DX =    0.0                 !
 ! R20   R(9,23)                 1.0786         -DE/DX =    0.0                 !
 ! R21   R(10,11)                1.3912         -DE/DX =    0.0                 !
 ! R22   R(10,26)                1.505          -DE/DX =    0.0                 !
 ! R23   R(11,12)                1.3841         -DE/DX =    0.0                 !
 ! R24   R(11,27)                1.0829         -DE/DX =    0.0                 !
 ! R25   R(12,13)                1.386          -DE/DX =    0.0                 !
 ! R26   R(12,24)                1.7406         -DE/DX =    0.0                 !
 ! R27   R(13,25)                1.0847         -DE/DX =    0.0                 !
 ! R28   R(26,28)                1.3436         -DE/DX =    0.0                 !
 ! R29   R(26,29)                1.3429         -DE/DX =    0.0                 !
 ! R30   R(26,30)                1.3347         -DE/DX =    0.0                 !
 ! A1    A(2,1,9)              123.3897         -DE/DX =    0.0                 !
 ! A2    A(2,1,13)             117.1644         -DE/DX =    0.0                 !
 ! A3    A(9,1,13)             119.4303         -DE/DX =    0.0                 !
 ! A4    A(1,2,3)              127.0401         -DE/DX =    0.0                 !
 ! A5    A(1,2,14)             115.2987         -DE/DX =    0.0                 !
 ! A6    A(3,2,14)             116.5882         -DE/DX =    0.0                 !
 ! A7    A(2,3,4)              123.8669         -DE/DX =    0.0                 !
 ! A8    A(2,3,5)              113.0082         -DE/DX =    0.0                 !
 ! A9    A(4,3,5)              123.11           -DE/DX =    0.0                 !
 ! A10   A(3,5,6)              118.7782         -DE/DX =    0.0                 !
 ! A11   A(3,5,15)             117.9969         -DE/DX =    0.0                 !
 ! A12   A(6,5,15)             116.216          -DE/DX =    0.0                 !
 ! A13   A(5,6,7)              110.4548         -DE/DX =    0.0                 !
 ! A14   A(5,6,16)             107.5618         -DE/DX =    0.0                 !
 ! A15   A(5,6,17)             110.644          -DE/DX =    0.0                 !
 ! A16   A(7,6,16)             110.5905         -DE/DX =    0.0                 !
 ! A17   A(7,6,17)             110.6175         -DE/DX =    0.0                 !
 ! A18   A(16,6,17)            106.8687         -DE/DX =    0.0                 !
 ! A19   A(6,7,8)              111.4925         -DE/DX =    0.0                 !
 ! A20   A(6,7,18)             109.6046         -DE/DX =    0.0                 !
 ! A21   A(6,7,19)             109.0044         -DE/DX =    0.0                 !
 ! A22   A(8,7,18)             109.4899         -DE/DX =    0.0                 !
 ! A23   A(8,7,19)             110.3274         -DE/DX =    0.0                 !
 ! A24   A(18,7,19)            106.8062         -DE/DX =    0.0                 !
 ! A25   A(7,8,20)             111.192          -DE/DX =    0.0                 !
 ! A26   A(7,8,21)             111.2687         -DE/DX =    0.0                 !
 ! A27   A(7,8,22)             111.0092         -DE/DX =    0.0                 !
 ! A28   A(20,8,21)            107.7606         -DE/DX =    0.0                 !
 ! A29   A(20,8,22)            107.6857         -DE/DX =    0.0                 !
 ! A30   A(21,8,22)            107.757          -DE/DX =    0.0                 !
 ! A31   A(1,9,10)             118.6744         -DE/DX =    0.0                 !
 ! A32   A(1,9,23)             120.4261         -DE/DX =    0.0                 !
 ! A33   A(10,9,23)            120.8965         -DE/DX =    0.0                 !
 ! A34   A(9,10,11)            122.7521         -DE/DX =    0.0                 !
 ! A35   A(9,10,26)            119.9871         -DE/DX =    0.0                 !
 ! A36   A(11,10,26)           117.2604         -DE/DX =    0.0                 !
 ! A37   A(10,11,12)           117.4808         -DE/DX =    0.0                 !
 ! A38   A(10,11,27)           121.5175         -DE/DX =    0.0                 !
 ! A39   A(12,11,27)           121.0017         -DE/DX =    0.0                 !
 ! A40   A(11,12,13)           121.589          -DE/DX =    0.0                 !
 ! A41   A(11,12,24)           119.5489         -DE/DX =    0.0                 !
 ! A42   A(13,12,24)           118.8621         -DE/DX =    0.0                 !
 ! A43   A(1,13,12)            120.0733         -DE/DX =    0.0                 !
 ! A44   A(1,13,25)            120.5979         -DE/DX =    0.0                 !
 ! A45   A(12,13,25)           119.3288         -DE/DX =    0.0                 !
 ! A46   A(10,26,28)           111.2561         -DE/DX =    0.0                 !
 ! A47   A(10,26,29)           111.3487         -DE/DX =    0.0                 !
 ! A48   A(10,26,30)           112.7889         -DE/DX =    0.0                 !
 ! A49   A(28,26,29)           106.4415         -DE/DX =    0.0                 !
[...]
 8,0.00088083,0.00034080,-0.00004799,-0.00008274,-0.00001639,0.00000824
 ,-0.00010137,0.00004322,0.00000059,-0.00001621,0.00000824,-0.00004753,
 -0.00003010,0.00000608,-0.00000107,0.00001089,0.00000855,0.00000388,0.
 00000516,-0.00000791,0.00000499,-0.00000936,-0.00000157,-0.00003399,0.
 00000939,0.00000074,0.00000684,-0.00000952,0.00000110,0.00014065,0.000
 18114,-0.00001630,0.10420374,0.12201094,0.00040068,-0.00058426,0.00500
 461,0.00022692,0.00017188,0.00009032,-0.00017690,-0.00002841,-0.000131
 03,0.00006677,0.00000419,0.00005398,0.00011181,-0.00002843,-0.00000074
 ,-0.00002962,-0.00002000,-0.00000838,0.00000227,0.00001175,-0.00000245
 ,0.00000059,-0.00000647,0.00000072,-0.00002433,0.00019798,-0.00094594,
 0.00033386,0.00008031,0.00501845,0.00111189,0.00078779,0.00411000,0.00
 895314,0.00580237,-0.02392770,0.00343169,0.00263677,0.00365802,-0.0000
 1123,0.00001805,0.00000646,-0.00000982,0.00001790,-0.00000845,0.000001
 47,0.00000289,-0.00000050,0.00000653,0.00000411,-0.00000075,0.00000041
 ,-0.00000071,0.00000035,-0.00000062,-0.00000101,0.00000170,-0.00000070
 ,0.00000051,0.00000025,0.00000474,-0.00000079,-0.00000020,-0.00000027,
 0.00000174,0.00000039,-0.00005774,0.00000900,-0.00055978,-0.01379635,-
 0.00906472,0.01303096,0.00683888,-0.02289907,-0.00012730,0.00197881,-0
 .00148489,-0.00043756,-0.00053488,-0.00053251,-0.00019370,0.00005351,0
 .00051795,0.00008749,0.00017028,0.00005523,0.00001296,-0.00008264,-0.0
 0004029,-0.00000315,0.00001050,0.00001793,-0.00000072,-0.00000036,-0.0
 0001008,0.00000003,-0.00369374,-0.00287885,0.00082446,-0.00143327,-0.0
 0035981,0.00006571,-0.00531599,0.00146067,0.00095683,0.00020339,0.0295
 9445,0.00013194,-0.06245810,0.03334006,0.00242587,-0.00127134,0.000235
 85,0.00019861,-0.00005395,0.00000557,0.00004512,0.00001155,0.00000514,
 0.00000160,0.00002206,0.00001137,-0.00001016,-0.00000254,0.,0.00000354
 ,-0.00000465,0.00000120,-0.00000424,0.00000069,0.00000333,-0.00000188,
 0.00000842,-0.00000185,-0.00000008,0.00000017,0.00000267,0.00000144,0.
 00046392,-0.00104730,-0.00004626,0.00031005,0.00063544,-0.00027414,0.0
 6460771,0.00610235,-0.01422767,-0.00051199,0.00193705,0.00151948,-0.00
 010753,-0.00084917,-0.00029342,-0.00014935,0.00019731,0.00066845,0.000
 11305,0.00005132,0.00001579,0.00000536,-0.00005681,-0.00000785,0.00000
 473,0.00000333,0.00000553,-0.00000110,-0.00000144,-0.00000452,0.000000
 14,-0.00345421,-0.00057746,0.00031433,-0.00058021,0.00073355,0.0000399
 3,0.00212962,0.00144149,-0.00017079,-0.00130064,-0.00934027,0.00010223
 ,0.03563425,-0.33910161,-0.00222001,-0.00164840,0.00023924,0.00013917,
 -0.00004809,0.00000678,0.00001948,0.00000868,0.00000230,0.00000025,0.0
 0001570,0.00000567,-0.00000795,-0.00000212,0.00000129,0.00000230,-0.00
 000383,0.00000207,-0.00000227,0.00000062,0.00000178,-0.00000178,0.0000
 0508,-0.00000133,-0.00000016,0.00000030,0.00000171,0.00000154,0.000566
 80,-0.00064499,-0.00002682,-0.00058931,0.00115930,0.00005083,-0.038060
 40,0.35883195,0.00004081,0.00174573,0.00459706,-0.00051226,0.00032536,
 -0.00358821,-0.00020486,0.00003113,-0.00091598,-0.00004710,-0.00003746
 ,0.00014342,0.00003217,-0.00005067,0.00005945,-0.00000159,-0.00002535,
 0.00008559,0.00000519,0.00000544,0.00002133,-0.00000010,-0.00000132,-0
 .00000379,0.00073874,0.00023349,0.00555574,0.00010172,0.00002474,-0.00
 068901,0.00093594,-0.00013831,0.00545221,0.00010112,-0.00252261,0.0021
 9532,0.00240835,-0.00197763,-0.03406334,0.00024818,0.00004896,0.000965
 03,0.00003638,0.00003023,0.00003334,0.00000787,-0.00001127,-0.00000525
 ,-0.00000954,0.00000636,-0.00001035,0.00000022,-0.00000574,-0.00000728
 ,-0.00000340,0.00000570,-0.00000536,0.00000306,0.00000316,-0.00000233,
 0.00000086,0.00000012,0.00000106,-0.00000269,-0.00000324,-0.00000131,0
 .00001376,0.00009514,-0.00014852,-0.00024136,-0.00005176,-0.00264692,-
 0.00362787,0.00238431,0.02304858,-0.00553732,0.00424130,0.00120311,-0.
 00107909,0.00060597,-0.00015389,0.00036807,0.00420100,0.00077517,0.000
 63641,-0.00305332,-0.00029288,0.00073427,-0.00122401,-0.00002965,-0.00
 029301,-0.00002926,-0.00006016,-0.00003740,0.00007919,0.00000319,0.000
 01362,-0.00005319,-0.00000226,0.00327981,0.02678356,-0.00036576,-0.095
 22946,0.01893642,0.00230319,0.01236383,-0.02359915,-0.00108359,-0.0013
 2423,-0.00648230,0.00066825,-0.00468998,-0.00111127,0.00028910,-0.0003
 1175,0.00011355,0.00010129,0.00007552,0.00008192,-0.00013051,-0.000051
 51,0.00004866,-0.00004326,0.00000977,0.00005300,0.00004327,0.00001043,
 -0.00003378,-0.00002288,0.00000411,-0.00002091,0.00001808,-0.00001747,
 0.00002471,0.00001354,0.00005611,-0.00003484,-0.00000094,-0.00002146,0
 .00002248,-0.00001526,-0.00303277,0.00203399,-0.00009981,-0.00171394,-
 0.00223156,0.00015581,-0.00036227,-0.00010528,0.00000887,0.56403457,0.
 00427842,-0.00192109,-0.00046952,-0.00732856,0.00049338,0.00029238,0.0
 0802935,0.00337846,0.00006619,-0.00289547,-0.00249055,-0.00025786,-0.0
 0328924,0.00077060,-0.00005916,0.00117003,0.00063108,0.00006388,-0.000
 11756,-0.00025850,0.00003354,-0.00000499,0.00017749,0.00000906,0.01170
 385,-0.00704660,-0.00085243,0.02150902,-0.21669388,-0.00106654,-0.0053
 0628,-0.02076211,0.00052509,-0.00585114,-0.00126980,0.00045326,-0.0002
 7831,0.00363103,0.00002104,-0.00001785,-0.00005777,0.00004848,0.000205
 93,-0.00030930,-0.00001397,-0.00006979,-0.00003526,-0.00001823,-0.0002
 7517,-0.00012411,0.00012765,0.00000679,0.00000742,-0.00003638,0.000040
 12,-0.00000933,0.00002985,-0.00000266,-0.00003370,0.00003904,-0.000116
 94,0.00001339,0.00000295,0.00000131,-0.00003503,-0.00003884,-0.0015033
 0,0.00129677,0.00015232,0.00233918,0.00219664,-0.00020055,-0.00016655,
 0.00004970,0.00005132,0.00304845,0.63049177,0.00109572,-0.00048671,0.0
 0705528,-0.00001866,-0.00005250,-0.00012327,0.00008275,0.00006855,0.00
 033704,-0.00012544,0.00000929,-0.00051669,0.00000958,0.00004337,-0.000
 13712,0.00000015,-0.00002334,0.00014196,0.00000599,-0.00000019,0.00000
 800,-0.00000001,0.00000471,0.00001968,-0.00015187,-0.00251664,0.001987
 99,0.00235127,-0.00097764,-0.06813689,-0.00132065,0.00202563,-0.001616
 56,0.00070198,0.00058677,0.00594830,0.00032211,0.00004813,-0.00086844,
 -0.00000316,-0.00000666,-0.00002587,0.00000836,-0.00004635,0.00008273,
 -0.00001911,-0.00000738,-0.00000641,0.00002901,0.00001627,-0.00003566,
 -0.00000069,-0.00002311,-0.00001472,-0.00000476,0.00002657,-0.00001350
 ,0.00000842,0.00000924,-0.00001402,-0.00000407,0.00000281,0.00000311,-
 0.00000675,-0.00001373,-0.00000924,0.00014218,-0.00008801,-0.00315790,
 0.00014352,0.00018464,0.00012653,0.00000924,0.00001410,-0.00030523,-0.
 00537930,0.00015863,0.50987957,0.00002236,-0.00031719,-0.00006355,0.00
 047911,0.00001472,-0.00011420,-0.00016174,-0.00039461,-0.00004030,-0.0
 0017575,0.00026150,-0.00001365,0.00000141,0.00004806,0.00002243,0.0000
 0676,0.00000635,-0.00000147,0.00000072,0.,0.00000092,0.00000011,0.0000
 0108,0.00000040,-0.00115276,-0.00398218,0.00066942,-0.01637497,0.00991
 378,0.00164294,-0.30909557,0.10101286,0.02428888,-0.00037668,-0.001229
 91,0.00021586,0.00142233,-0.00000858,0.00040900,-0.00001391,0.00002173
 ,-0.00000275,-0.00000713,0.00000781,0.00000448,0.00000407,-0.00000182,
 0.00000074,0.00000273,-0.00000180,-0.00000141,-0.00000093,0.00000053,-
 0.00000030,-0.00000053,0.00000090,0.00000006,0.00000028,-0.00000022,0.
 00000006,-0.00000073,0.00000011,0.00000004,-0.00000002,-0.00000044,-0.
 00000019,-0.00049543,0.00064666,0.00013328,0.00097764,-0.00050684,-0.0
 0033274,0.00013651,-0.00005564,0.00002218,-0.00257555,0.00108814,0.000
 13442,0.32503136,-0.00049680,-0.00119255,0.00004543,0.00007033,0.00032
 651,0.00002136,0.00000989,-0.00027569,-0.00007427,-0.00015702,0.000215
 34,0.00000221,-0.00003710,0.00007966,0.00000921,0.00001662,0.00000527,
 0.00000192,0.00000054,-0.00000236,0.00000052,-0.00000018,0.00000227,0.
 00000047,-0.00328544,-0.00269764,0.00031160,-0.01773380,0.01236899,0.0
 0153720,0.09888996,-0.09840003,-0.00867387,0.02910280,-0.00711735,-0.0
 0254823,-0.00053124,-0.00542590,0.00005373,-0.00014700,-0.00000465,0.0
 0000690,-0.00001093,-0.00000358,0.00001063,0.00000126,-0.00000003,0.00
 000081,-0.00000172,-0.00000206,0.00000040,-0.00000065,0.00000069,0.000
 00007,-0.00000003,0.00000030,-0.00000007,0.00000028,-0.00000040,0.0000
 0035,-0.00000151,0.00000021,0.00000003,0.00000025,-0.00000042,-0.00000
 041,-0.00073315,0.00061463,0.00010577,0.00057582,0.00095009,-0.0000491
 7,0.00145189,-0.00032446,-0.00012698,-0.00248253,0.00078171,0.00024458
 ,-0.10634896,0.10074125,-0.00009939,0.00000197,-0.00081344,-0.00012903
 ,0.00006935,-0.00062757,0.00006088,0.00013742,-0.00005686,0.00012317,-
 0.00008913,-0.00006486,-0.00001159,-0.00000573,0.00006218,0.00000109,0
 .00000183,0.00002001,0.00000036,0.00000097,0.00000137,-0.00000004,-0.0
 0000044,0.00000116,0.00074547,0.00028194,0.00602066,0.00153785,-0.0009
 4755,0.00234215,0.02439275,-0.00884475,-0.03537706,0.00019190,0.000125
 85,0.00217888,0.00031841,0.00006222,0.00560782,0.00001174,0.00001123,0
 .00002223,-0.00000910,-0.00000803,0.00002074,0.00000258,-0.00000615,-0
 .00000579,-0.00000331,0.00000335,-0.00000556,0.00000004,-0.00000237,-0
 .00000142,-0.00000032,0.00000211,-0.00000101,0.00000092,0.00000088,-0.
 00000095,0.00000020,-0.00000007,0.00000032,-0.00000077,-0.00000084,-0.
 00000058,0.00004520,-0.00007526,0.00059395,-0.00035250,0.00003156,-0.0
 0275531,0.00001531,0.00001746,0.00041223,0.00011114,-0.00008481,-0.001
 14758,-0.02656720,0.00931455,0.02583801,0.00035392,-0.00047549,0.00104
 987,-0.00013477,0.00030334,0.00009772,0.00072263,-0.00079810,-0.000219
 61,-0.00042803,0.00056494,0.00013486,-0.00055283,0.00038741,0.00001640
 ,0.00020209,0.00007779,0.00001173,-0.00000288,-0.00005020,-0.00000052,
 -0.00000487,0.00003363,-0.00000178,0.00106651,0.00141186,-0.00027222,-
 0.00645016,0.01130539,-0.01880233,-0.00199522,-0.00038461,0.00084040,-
 0.00056489,0.00077916,0.00136456,0.00062752,0.00064302,-0.00028057,-0.
 00003881,0.00001387,-0.00006837,0.00000465,-0.00004786,0.00001359,0.00
 001110,-0.00001843,0.00001199,-0.00003462,-0.00003072,0.00000450,-0.00
 000159,0.00001352,0.00000533,0.00000347,0.00000171,-0.00000034,0.00000
 383,-0.00001200,0.00000163,-0.00002775,0.00001124,-0.00000001,0.000007
 30,-0.00000831,0.00000205,0.00048996,-0.00054503,-0.00075843,0.0005564
 0,0.00046191,-0.00005052,0.00007893,0.00002389,-0.00012334,-0.14002288
 ,0.04573238,-0.08370026,0.00082227,0.00062102,-0.00130784,0.19213056,-
 0.00082247,-0.00046039,-0.00167521,0.00181556,-0.00038158,-0.00027504,
 -0.00225224,-0.00062877,0.00008634,0.00081944,0.00046828,-0.00000805,0
 .00100203,-0.00030982,0.00000039,-0.00035791,-0.00018457,-0.00001299,0
 .00003083,0.00008120,-0.00000718,0.00000292,-0.00005470,-0.00000069,-0
 .00312274,-0.00350073,0.00176760,0.03013275,-0.01405167,0.03155641,0.0
 0126962,-0.00090903,-0.00003681,0.00092920,0.00183301,-0.00068110,0.00
 105993,-0.00094820,0.00009447,0.00007071,-0.00000006,0.00000057,-0.000
 05289,0.00009221,0.00000587,0.00001382,0.00001523,0.,0.00008102,0.0000
 4176,-0.00003464,-0.00000145,-0.00000761,0.00000640,-0.00001133,0.0000
 0270,-0.00000780,-0.00000041,0.00001289,-0.00001082,0.00003817,-0.0000
 0709,-0.00000062,-0.00000324,0.00001096,0.00000828,-0.00003341,-0.0000
 3400,0.00089135,-0.00063118,-0.00057507,0.00009571,0.00003817,-0.00003
 176,-0.00000303,0.04328731,-0.11117882,0.05535718,-0.00005072,-0.00048
 806,0.00048898,-0.04922701,0.09837726,-0.00030350,-0.00009005,0.000349
 83,-0.00050583,0.00045696,0.00023659,0.00087359,-0.00032621,-0.0002397
 9,-0.00040240,0.00023112,0.00018934,-0.00052877,0.00028091,0.00005370,
 0.00018476,0.00008888,-0.00002751,-0.00001026,-0.00004519,-0.00000166,
 -0.00000353,0.00002908,-0.00000574,0.00122694,0.00315436,-0.00065652,-
 0.01554154,0.00851855,-0.00668199,-0.00079707,-0.00055178,0.00162609,-
 0.00047762,-0.00010944,0.00034776,0.00004983,0.00034976,-0.00010013,-0
 .00009203,0.00001678,-0.00003655,0.00000837,-0.00003504,-0.00001712,0.
 00000659,-0.00001183,0.00000944,-0.00004492,-0.00003121,0.00001795,-0.
 00000060,0.00001583,0.00000571,0.00000522,-0.00000610,0.00000489,-0.00
 000040,-0.00001170,0.00000633,-0.00002186,0.00000654,-0.00000073,0.000
 00615,-0.00000313,0.00000240,0.00030608,-0.00025670,-0.00047559,0.0004
 3098,0.00041635,-0.00003945,0.00002914,0.00004266,-0.00005070,-0.08210
 649,0.05726876,-0.17547508,0.00028267,0.00014981,-0.00100269,0.1465975
 6,-0.06639757,0.27269093,0.00020690,-0.00038896,-0.00096831,-0.0000760
 3,0.00018322,-0.00004856,0.00060765,-0.00066971,-0.00012010,-0.0003688
 2,0.00047372,-0.00000902,-0.00045174,0.00033170,-0.00001412,0.00016609
 ,0.00005887,0.00002824,-0.00000118,-0.00004092,0.00000461,-0.00000388,
 0.00002826,0.00000417,0.00095937,0.00099346,-0.00000933,-0.00155299,0.
 00993354,0.01806613,-0.00193184,-0.00030782,-0.00033376,-0.00066905,0.
 00071275,-0.00122386,0.00062133,0.00058352,0.00017945,-0.00001675,0.00
 001028,0.00004203,0.00000774,-0.00005069,0.00003374,0.00000446,-0.0000
 1631,0.00000800,-0.00002128,-0.00002129,-0.00000414,-0.00000174,0.0000
 0608,0.00000080,0.00000201,0.00000703,-0.00000396,0.00000510,-0.000007
 65,-0.00000188,-0.00002402,0.00001015,0.00000098,0.00000473,-0.0000101
 6,-0.00000049,0.00052406,-0.00050932,0.00060822,0.00048789,0.00039261,
 -0.00003197,0.00009462,0.00001685,0.00010151,-0.11694198,0.03754889,0.
 07527349,0.00101064,0.00061221,0.00098372,0.01847052,-0.00514215,-0.01
 550871,0.15128093,-0.00049446,-0.00043249,0.00175141,0.00190061,-0.000
 31931,0.00013510,-0.00227071,-0.00072006,-0.00002799,0.00082759,0.0005
 2113,0.00012389,0.00099285,-0.00029035,0.00003078,-0.00034898,-0.00017
 654,-0.00003757,0.00003001,0.00007970,-0.00001030,0.00000281,-0.000054
 71,-0.00000575,-0.00342722,-0.00376621,-0.00120852,0.02522319,-0.01411
 045,-0.03575859,0.00120013,-0.00094950,-0.00015523,0.00104744,0.001862
 62,0.00049907,0.00100574,-0.00095151,-0.00026382,0.00006414,0.00000258
 ,-0.00003852,-0.00005867,0.00009723,-0.00001060,0.00001718,0.00001563,
 0.00000218,0.00007559,0.00003808,-0.00002765,-0.00000110,-0.00000260,0
 .00001000,-0.00001064,-0.00000216,-0.00000530,-0.00000177,0.00001055,-
 0.00000806,0.00003796,-0.00000707,-0.00000118,-0.00000160,0.00001335,0
 .00001055,-0.00013916,-0.00002212,-0.00088245,-0.00064101,-0.00057576,
 0.00001402,0.00003743,-0.00003178,-0.00001844,0.03528141,-0.11236077,-
 0.06204145,-0.00010229,-0.00051878,-0.00047797,-0.00434292,0.01674188,
 0.00513920,-0.03993425,0.09966741,0.00033642,0.00025193,0.00043358,0.0
 0062081,-0.00041337,0.00016794,-0.00103794,0.00014250,-0.00004302,0.00
 047972,-0.00012581,0.00021844,0.00055226,-0.00028426,0.00005912,-0.000
 18944,-0.00007681,-0.00007378,0.00000781,0.00004687,-0.00000896,0.0000
 0381,-0.00003367,-0.00000874,-0.00148613,-0.00339026,-0.00047739,0.014
 56930,-0.00998394,-0.01145904,0.00139909,0.00066226,0.00152319,0.00063
 800,-0.00002955,0.00044360,-0.00021555,-0.00044172,-0.00012193,0.00009
 555,-0.00001560,-0.00006231,-0.00002453,0.00007046,-0.00004630,0.00000
 886,0.00001748,-0.00000318,0.00002607,0.00001934,0.00000643,0.00000123
 ,0.00000229,0.00000693,-0.00000243,-0.00001339,0.00000503,-0.00000566,
 0.00000437,0.00000367,0.00002522,-0.00000817,-0.00000198,-0.00000085,0
 .00001370,0.00000551,-0.00047826,0.00032384,-0.00051335,-0.00051123,-0
 .00047825,0.00004547,-0.00005765,-0.00004640,-0.00006554,0.07383146,-0
 .06453209,-0.19937478,-0.00063176,-0.00028678,-0.00111049,-0.00038300,
 -0.00509710,-0.08863186,-0.12885021,0.07474102,0.31424149,0.00055222,0
 .00025706,-0.00001912,0.00174351,0.00013795,0.00001877,-0.00129618,-0.
 00243276,-0.00034802,0.00014302,0.00173158,0.00016551,0.00012493,0.000
 44211,0.00002119,-0.00003720,-0.00007942,0.00001886,0.00003526,-0.0000
 0068,-0.00000479,-0.00000601,-0.00000024,-0.00000063,-0.00396787,0.002
 85556,0.00036502,-0.00999043,-0.00952291,0.00138839,0.00223686,-0.0025
 2329,-0.00005768,-0.00055132,0.00071379,0.00002686,0.00063880,0.000059
 55,-0.00004224,-0.00001874,0.00001545,-0.00003432,-0.00005995,0.000004
 78,0.00005779,0.00003437,-0.00001956,0.00002433,0.00003702,-0.00000704
 ,-0.00004170,-0.00000592,0.00001471,0.00001629,-0.00000864,0.00001195,
 -0.00001402,0.00000895,-0.00000639,-0.00001271,-0.00000938,0.00001430,
 0.00000010,0.00000993,-0.00000578,0.00001301,0.00212490,0.00082450,-0.
 00022715,0.00002140,-0.00036505,-0.00001165,0.00022372,0.00006241,-0.0
 0003279,-0.20834446,-0.10947805,0.01041657,0.00051341,0.00061519,-0.00
 006164,-0.06529237,-0.01888234,-0.03366234,-0.05239271,-0.01596929,0.0
 4127904,0.33353288,-0.00256027,0.00155988,0.00038084,0.00283367,0.0000
 5110,-0.00015039,-0.00274686,-0.00169540,-0.00008790,0.00098765,0.0012
 7255,0.00013526,0.00099574,-0.00009920,0.00001692,-0.00035257,-0.00021
 281,-0.00000854,0.00004592,0.00007453,-0.00001336,-0.00000131,-0.00005
 104,-0.00000241,-0.00087428,-0.00211913,-0.00007933,-0.04425058,-0.026
 13767,0.00345786,0.00587849,-0.00773239,-0.00054518,-0.00123253,0.0001
 9377,0.00017388,0.00018717,-0.00072357,-0.00004222,-0.00001086,0.00004
 470,-0.00001727,-0.00007390,0.00009008,0.00001946,0.00003177,0.0000018
 8,0.00001429,0.00009134,0.00003275,-0.00005252,-0.00000383,0.00000343,
 0.00001644,-0.00001376,0.00000712,-0.00001352,0.00000409,0.00000701,-0
 .00001662,0.00002984,0.00000217,-0.00000077,0.00000333,0.00000755,0.00
 001656,-0.00003418,-0.00370827,-0.00004643,-0.00087931,-0.00150227,0.0
 0007672,0.00006725,-0.00009894,-0.00001738,-0.09838155,-0.16933282,0.0
 0748323,-0.00002306,0.00036706,-0.00000857,-0.00644540,0.01607455,-0.0
 0828956,-0.00480391,0.01624202,0.00896112,0.15153192,0.17738135,-0.000
 04478,-0.00002252,0.00022047,-0.00010031,0.00001554,0.00005433,0.00007
 013,0.00006372,-0.00005706,-0.00000803,-0.00005952,0.00015648,-0.00003
 033,-0.00000840,0.00002352,0.00001314,0.00001340,-0.00003088,-0.000003
 59,-0.00000191,0.00000027,0.00000045,0.,-0.00000460,0.00034274,-0.0002
 0869,0.00015408,0.00155530,0.00082517,0.00848721,-0.00004189,0.0002045
 3,0.00162512,-0.00000378,-0.00004694,-0.00034685,-0.00004583,-0.000005
 17,-0.00011561,0.00000533,0.00000328,-0.00000858,0.00000160,0.00000911
 ,-0.00002113,0.00000273,0.00000230,0.00000124,-0.00001104,-0.00000348,
 0.00001213,-0.00000018,0.00000467,0.00000202,0.00000282,-0.00000686,0.
 00000411,-0.00000209,-0.00000185,0.00000381,0.00000043,-0.00000110,-0.
 00000028,0.00000117,0.00000270,0.00000138,-0.00023919,-0.00008265,-0.0
 0049018,-0.00001258,0.00003055,-0.00012063,-0.00002458,-0.00000571,-0.
 00006125,0.01026118,0.00828693,-0.07461123,-0.00005826,-0.00005776,-0.
 00015056,-0.04418302,-0.01611090,-0.00209786,0.05179335,0.01852214,-0.
 01515774,-0.01924089,-0.01136057,0.08252828\\0.00000381,-0.00000105,0.
 00000326,-0.00000092,0.00000300,-0.00000032,-0.00000849,0.00000148,0.0
 0000139,0.00000366,0.00000054,-0.00000267,0.00000294,-0.00000552,0.000
 00309,0.00000278,0.00000473,-0.00000105,-0.00000206,0.00000190,0.00000
 144,0.00000050,0.00000170,-0.00000228,-0.00000053,0.00000159,-0.000001
 86,-0.00000348,-0.00000274,-0.00000093,-0.00000041,-0.00000036,0.00000
 154,0.00000139,-0.00000249,0.00000313,-0.00000052,-0.00000134,0.000002
 81,0.00000046,-0.00000015,0.00000457,0.00000037,-0.00000218,-0.0000003
 7,-0.00000008,0.00000169,-0.00000267,0.00000155,0.00000080,-0.00000236
 ,0.00000151,-0.00000057,0.00000052,0.00000129,0.00000257,0.00000111,-0
 .00000060,0.00000058,-0.00000245,0.00000061,0.00000212,-0.00000072,0.0
 0000018,0.00000301,-0.00000269,-0.00000172,-0.00000016,-0.00000160,0.0
 0000104,-0.00000152,0.00000585,0.00000059,-0.00000117,0.00000517,-0.00
 000101,-0.00000113,-0.00000292,0.00000010,-0.00000178,0.00000128,-0.00
 000143,-0.00000273,-0.00000320,-0.00000022,0.00000028,-0.00000274,-0.0
 0000129,-0.00000108,-0.00000433\\\@


 UNLESS WE CHANGE DIRECTIONS, WE WILL WIND UP WHERE WE ARE HEADED.
     -- CONFUCIUS
 Job cpu time:       0 days  3 hours 58 minutes 19.3 seconds.
 Elapsed time:       0 days  3 hours 58 minutes 20.0 seconds.
 File lengths (MBytes):  RWF=    583 Int=      0 D2E=      0 Chk=     16 Scr=      1
 Normal termination of Gaussian 16 at Tue Sep 15 14:50:40 2020.
