 Entering Gaussian System, Link 0=/apps/gaussian/g16c01/g16/g16
 Initial command:
 /apps/gaussian/g16c01/g16/l1.exe "/jobfs/11271724.gadi-pbs/Gau-1890822.inp" -scrdir="/jobfs/11271724.gadi-pbs/"
 Entering Link 1 = /apps/gaussian/g16c01/g16/l1.exe PID=   1890823.
  
 Copyright (c) 1988-2019, Gaussian, Inc.  All Rights Reserved.
  
 This is part of the Gaussian(R) 16 program.  It is based on
 the Gaussian(R) 09 system (copyright 2009, Gaussian, Inc.),
 the Gaussian(R) 03 system (copyright 2003, Gaussian, Inc.),
 the Gaussian(R) 98 system (copyright 1998, Gaussian, Inc.),
 the Gaussian(R) 94 system (copyright 1995, Gaussian, Inc.),
 the Gaussian 92(TM) system (copyright 1992, Gaussian, Inc.),
 the Gaussian 90(TM) system (copyright 1990, Gaussian, Inc.),
 the Gaussian 88(TM) system (copyright 1988, Gaussian, Inc.),
 the Gaussian 86(TM) system (copyright 1986, Carnegie Mellon
 University), and the Gaussian 82(TM) system (copyright 1983,
 Carnegie Mellon University). Gaussian is a federally registered
 trademark of Gaussian, Inc.
  
 This software contains proprietary and confidential information,
 including trade secrets, belonging to Gaussian, Inc.
  
 This software is provided under written license and may be
 used, copied, transmitted, or stored only in accord with that
 written license.
  
 The following legend is applicable only to US Government
 contracts under FAR:
  
                    RESTRICTED RIGHTS LEGEND
  
 Use, reproduction and disclosure by the US Government is
 subject to restrictions as set forth in subparagraphs (a)
 and (c) of the Commercial Computer Software - Restricted
 Rights clause in FAR 52.227-19.
  
 Gaussian, Inc.
 340 Quinnipiac St., Bldg. 40, Wallingford CT 06492
  
  
 ---------------------------------------------------------------
 Warning -- This program may not be used in any manner that
 competes with the business of Gaussian, Inc. or will provide
 assistance to any competitor of Gaussian, Inc.  The licensee
 of this program is prohibited from giving any competitor of
 Gaussian, Inc. access to this program.  By using this program,
 the user acknowledges that Gaussian, Inc. is engaged in the
 business of creating and licensing software in the field of
 computational chemistry and represents and warrants to the
 licensee that it is not a competitor of Gaussian, Inc. and that
 it will not use this program in any manner prohibited above.
 ---------------------------------------------------------------
  

 Cite this work as:
 Gaussian 16, Revision C.01,
 M. J. Frisch, G. W. Trucks, H. B. Schlegel, G. E. Scuseria, 
 M. A. Robb, J. R. Cheeseman, G. Scalmani, V. Barone, 
 G. A. Petersson, H. Nakatsuji, X. Li, M. Caricato, A. V. Marenich, 
 J. Bloino, B. G. Janesko, R. Gomperts, B. Mennucci, H. P. Hratchian, 
 J. V. Ortiz, A. F. Izmaylov, J. L. Sonnenberg, D. Williams-Young, 
 F. Ding, F. Lipparini, F. Egidi, J. Goings, B. Peng, A. Petrone, 
 T. Henderson, D. Ranasinghe, V. G. Zakrzewski, J. Gao, N. Rega, 
 G. Zheng, W. Liang, M. Hada, M. Ehara, K. Toyota, R. Fukuda, 
 J. Hasegawa, M. Ishida, T. Nakajima, Y. Honda, O. Kitao, H. Nakai, 
 T. Vreven, K. Throssell, J. A. Montgomery, Jr., J. E. Peralta, 
 F. Ogliaro, M. J. Bearpark, J. J. Heyd, E. N. Brothers, K. N. Kudin, 
 V. N. Staroverov, T. A. Keith, R. Kobayashi, J. Normand, 
 K. Raghavachari, A. P. Rendell, J. C. Burant, S. S. Iyengar, 
 J. Tomasi, M. Cossi, J. M. Millam, M. Klene, C. Adamo, R. Cammi, 
 J. W. Ochterski, R. L. Martin, K. Morokuma, O. Farkas, 
 J. B. Foresman, and D. J. Fox, Gaussian, Inc., Wallingford CT, 2019.
 
 ******************************************
 Gaussian 16:  ES64L-G16RevC.01  3-Jul-2019
                15-Sep-2020 
 ******************************************
 %NprocShared=6
 Will use up to    6 processors via shared memory.
 %Mem=16000MB
 %chk=NM3.M062X_6-311pGd_opt_Pentadecane_GD3.chk
 ----------------------------------------------------------------------
 # M062X/6-311+G* SCF=Tight INT(grid=ultrafine) OPT IOP(2/17=4) Empiric
 alDispersion=GD3 SCRF=(SMD,Solvent=n-Pentadecane) MaxDisk=10000MB
 ----------------------------------------------------------------------
 1/18=20,19=15,26=6,38=1/1,3;
 2/9=110,12=2,17=4,18=5,40=1/2;
 3/5=4,6=6,7=11,11=2,25=1,30=1,70=32201,71=1,72=151,74=-55,75=-5,124=31/1,2,3;
 4//1;
 5/5=2,32=2,38=5,53=151/2;
 6/7=2,8=2,9=2,10=2,28=1/1;
 7//1,2,3,16;
 1/18=20,19=15,26=6/3(2);
 2/9=110,17=4/2;
 99//99;
 2/9=110,17=4/2;
 3/5=4,6=6,7=11,11=2,25=1,30=1,70=32205,71=1,72=151,74=-55,75=-5,124=31/1,2,3;
 4/5=5,16=3,69=1/1;
 5/5=2,32=2,38=5,53=151/2;
 7//1,2,3,16;
 1/18=20,19=15,26=6/3(-5);
 2/9=110,17=4/2;
 6/7=2,8=2,9=2,10=2,19=2,28=1/1;
 99/9=1/99;
 --------------------------------------
 NM3.M062X_6-311pGd_opt_Pentadecane_GD3
 --------------------------------------
 Symbolic Z-matrix:
 Charge =  0 Multiplicity = 1
 C                    -6.01715   1.19615   0.23393 
 N                    -4.75687   0.61108   0.10737 
 C                    -3.52297   1.2532    0.09286 
 O                    -3.3886    2.45268   0.23331 
 N                    -2.47129   0.39823  -0.06796 
 C                    -1.11829   0.92031  -0.20571 
 C                    -0.10047  -0.20188  -0.06338 
 C                     1.32598   0.31775  -0.20086 
 C                    -6.23769   2.57537   0.27517 
 C                    -7.54216   3.04407   0.38808 
 C                    -8.64139   2.2017    0.46202 
 C                    -8.3946    0.83579   0.42226 
 C                    -7.11507   0.32642   0.31076 
 H                    -4.7467   -0.39925   0.11116 
 H                    -2.64423  -0.52649  -0.43587 
 H                    -0.96961   1.67095   0.57211 
 H                    -0.99719   1.42736  -1.17015 
 H                    -0.28791  -0.966    -0.82677 
 H                    -0.236    -0.68401   0.90949 
 H                     1.48583   0.78354  -1.17664 
 H                     2.05254  -0.49     -0.09584 
 H                     1.54759   1.06568   0.56461 
 H                    -5.40701   3.26344   0.22718 
 Cl                   -9.73755  -0.27261   0.51614 
 H                    -6.96504  -0.74742   0.28412 
 C                    -7.74234   4.53427   0.39623 
 H                    -9.64924   2.5841    0.55176 
 F                    -7.47328   5.07651  -0.80412 
 F                    -8.99885   4.88085   0.70561 
 F                    -6.93614   5.14269   1.27831 
 

 GradGradGradGradGradGradGradGradGradGradGradGradGradGradGradGradGradGrad
 Berny optimization.
 Initialization pass.
                           ----------------------------
                           !    Initial Parameters    !
                           ! (Angstroms and Degrees)  !
 --------------------------                            --------------------------
 ! Name  Definition              Value          Derivative Info.                !
 --------------------------------------------------------------------------------
 ! R1    R(1,2)                  1.3952         estimate D2E/DX2                !
 ! R2    R(1,9)                  1.3973         estimate D2E/DX2                !
 ! R3    R(1,13)                 1.4028         estimate D2E/DX2                !
 ! R4    R(2,3)                  1.3911         estimate D2E/DX2                !
 ! R5    R(2,14)                 1.0104         estimate D2E/DX2                !
 ! R6    R(3,4)                  1.2151         estimate D2E/DX2                !
 ! R7    R(3,5)                  1.3649         estimate D2E/DX2                !
 ! R8    R(5,6)                  1.4568         estimate D2E/DX2                !
 ! R9    R(5,15)                 1.0101         estimate D2E/DX2                !
 ! R10   R(6,7)                  1.5217         estimate D2E/DX2                !
 ! R11   R(6,16)                 1.0911         estimate D2E/DX2                !
 ! R12   R(6,17)                 1.0963         estimate D2E/DX2                !
 ! R13   R(7,8)                  1.5244         estimate D2E/DX2                !
 ! R14   R(7,18)                 1.0963         estimate D2E/DX2                !
 ! R15   R(7,19)                 1.0942         estimate D2E/DX2                !
 ! R16   R(8,20)                 1.093          estimate D2E/DX2                !
 ! R17   R(8,21)                 1.0915         estimate D2E/DX2                !
 ! R18   R(8,22)                 1.0929         estimate D2E/DX2                !
 ! R19   R(9,10)                 1.3907         estimate D2E/DX2                !
 ! R20   R(9,23)                 1.0797         estimate D2E/DX2                !
 ! R21   R(10,11)                1.3868         estimate D2E/DX2                !
 ! R22   R(10,26)                1.5036         estimate D2E/DX2                !
 ! R23   R(11,12)                1.3886         estimate D2E/DX2                !
 ! R24   R(11,27)                1.0817         estimate D2E/DX2                !
 ! R25   R(12,13)                1.3817         estimate D2E/DX2                !
 ! R26   R(12,24)                1.7438         estimate D2E/DX2                !
 ! R27   R(13,25)                1.0846         estimate D2E/DX2                !
 ! R28   R(26,28)                1.3443         estimate D2E/DX2                !
 ! R29   R(26,29)                1.3396         estimate D2E/DX2                !
 ! R30   R(26,30)                1.341          estimate D2E/DX2                !
 ! A1    A(2,1,9)              123.9966         estimate D2E/DX2                !
 ! A2    A(2,1,13)             116.8691         estimate D2E/DX2                !
 ! A3    A(9,1,13)             119.1317         estimate D2E/DX2                !
 ! A4    A(1,2,3)              127.4892         estimate D2E/DX2                !
 ! A5    A(1,2,14)             115.345          estimate D2E/DX2                !
 ! A6    A(3,2,14)             116.9165         estimate D2E/DX2                !
 ! A7    A(2,3,4)              123.5415         estimate D2E/DX2                !
 ! A8    A(2,3,5)              113.3008         estimate D2E/DX2                !
 ! A9    A(4,3,5)              123.145          estimate D2E/DX2                !
 ! A10   A(3,5,6)              120.1517         estimate D2E/DX2                !
 ! A11   A(3,5,15)             118.9756         estimate D2E/DX2                !
 ! A12   A(6,5,15)             116.9145         estimate D2E/DX2                !
 ! A13   A(5,6,7)              110.3705         estimate D2E/DX2                !
 ! A14   A(5,6,16)             107.8007         estimate D2E/DX2                !
 ! A15   A(5,6,17)             110.5812         estimate D2E/DX2                !
 ! A16   A(7,6,16)             110.4575         estimate D2E/DX2                !
 ! A17   A(7,6,17)             110.4549         estimate D2E/DX2                !
 ! A18   A(16,6,17)            107.0906         estimate D2E/DX2                !
 ! A19   A(6,7,8)              111.4746         estimate D2E/DX2                !
 ! A20   A(6,7,18)             109.5444         estimate D2E/DX2                !
 ! A21   A(6,7,19)             108.9811         estimate D2E/DX2                !
 ! A22   A(8,7,18)             109.5604         estimate D2E/DX2                !
 ! A23   A(8,7,19)             110.2607         estimate D2E/DX2                !
 ! A24   A(18,7,19)            106.908          estimate D2E/DX2                !
 ! A25   A(7,8,20)             111.2628         estimate D2E/DX2                !
 ! A26   A(7,8,21)             111.2201         estimate D2E/DX2                !
 ! A27   A(7,8,22)             111.0919         estimate D2E/DX2                !
 ! A28   A(20,8,21)            107.6926         estimate D2E/DX2                !
 ! A29   A(20,8,22)            107.6969         estimate D2E/DX2                !
 ! A30   A(21,8,22)            107.7026         estimate D2E/DX2                !
 ! A31   A(1,9,10)             118.887          estimate D2E/DX2                !
 ! A32   A(1,9,23)             120.4154         estimate D2E/DX2                !
 ! A33   A(10,9,23)            120.6961         estimate D2E/DX2                !
 ! A34   A(9,10,11)            122.8938         estimate D2E/DX2                !
 ! A35   A(9,10,26)            117.344          estimate D2E/DX2                !
 ! A36   A(11,10,26)           119.7469         estimate D2E/DX2                !
 ! A37   A(10,11,12)           117.07           estimate D2E/DX2                !
 ! A38   A(10,11,27)           121.8835         estimate D2E/DX2                !
 ! A39   A(12,11,27)           121.0458         estimate D2E/DX2                !
 ! A40   A(11,12,13)           121.9734         estimate D2E/DX2                !
 ! A41   A(11,12,24)           119.1317         estimate D2E/DX2                !
 ! A42   A(13,12,24)           118.8949         estimate D2E/DX2                !
 ! A43   A(1,13,12)            120.0437         estimate D2E/DX2                !
 ! A44   A(1,13,25)            120.2816         estimate D2E/DX2                !
 ! A45   A(12,13,25)           119.6747         estimate D2E/DX2                !
 ! A46   A(10,26,28)           111.6085         estimate D2E/DX2                !
 ! A47   A(10,26,29)           112.4904         estimate D2E/DX2                !
 ! A48   A(10,26,30)           111.9131         estimate D2E/DX2                !
 ! A49   A(28,26,29)           106.8327         estimate D2E/DX2                !
 ! A50   A(28,26,30)           106.4992         estimate D2E/DX2                !
 ! A51   A(29,26,30)           107.1337         estimate D2E/DX2                !
 ! D1    D(9,1,2,3)              4.7196         estimate D2E/DX2                !
 ! D2    D(9,1,2,14)           178.7604         estimate D2E/DX2                !
 ! D3    D(13,1,2,3)          -175.8638         estimate D2E/DX2                !
 ! D4    D(13,1,2,14)           -1.823          estimate D2E/DX2                !
 ! D5    D(2,1,9,10)           179.2487         estimate D2E/DX2                !
 ! D6    D(2,1,9,23)            -1.1872         estimate D2E/DX2                !
 ! D7    D(13,1,9,10)           -0.1556         estimate D2E/DX2                !
 ! D8    D(13,1,9,23)          179.4086         estimate D2E/DX2                !
 ! D9    D(2,1,13,12)         -179.2874         estimate D2E/DX2                !
 ! D10   D(2,1,13,25)            0.7775         estimate D2E/DX2                !
 ! D11   D(9,1,13,12)            0.1588         estimate D2E/DX2                !
 ! D12   D(9,1,13,25)         -179.7762         estimate D2E/DX2                !
 ! D13   D(1,2,3,4)              2.2695         estimate D2E/DX2                !
 ! D14   D(1,2,3,5)           -178.9915         estimate D2E/DX2                !
 ! D15   D(14,2,3,4)          -171.6903         estimate D2E/DX2                !
 ! D16   D(14,2,3,5)             7.0487         estimate D2E/DX2                !
 ! D17   D(2,3,5,6)            175.3662         estimate D2E/DX2                !
 ! D18   D(2,3,5,15)            18.4314         estimate D2E/DX2                !
 ! D19   D(4,3,5,6)             -5.889          estimate D2E/DX2                !
 ! D20   D(4,3,5,15)          -162.8239         estimate D2E/DX2                !
 ! D21   D(3,5,6,7)            167.5266         estimate D2E/DX2                !
 ! D22   D(3,5,6,16)            46.8097         estimate D2E/DX2                !
 ! D23   D(3,5,6,17)           -69.9513         estimate D2E/DX2                !
 ! D24   D(15,5,6,7)           -35.0781         estimate D2E/DX2                !
 ! D25   D(15,5,6,16)         -155.795          estimate D2E/DX2                !
 ! D26   D(15,5,6,17)           87.444          estimate D2E/DX2                !
 ! D27   D(5,6,7,8)           -179.8908         estimate D2E/DX2                !
 ! D28   D(5,6,7,18)            58.6813         estimate D2E/DX2                !
 ! D29   D(5,6,7,19)           -57.964          estimate D2E/DX2                !
 ! D30   D(16,6,7,8)           -60.7756         estimate D2E/DX2                !
 ! D31   D(16,6,7,18)          177.7964         estimate D2E/DX2                !
 ! D32   D(16,6,7,19)           61.1511         estimate D2E/DX2                !
 ! D33   D(17,6,7,8)            57.513          estimate D2E/DX2                !
 ! D34   D(17,6,7,18)          -63.9149         estimate D2E/DX2                !
 ! D35   D(17,6,7,19)          179.4398         estimate D2E/DX2                !
 ! D36   D(6,7,8,20)           -60.0693         estimate D2E/DX2                !
 ! D37   D(6,7,8,21)           179.8697         estimate D2E/DX2                !
 ! D38   D(6,7,8,22)            59.9109         estimate D2E/DX2                !
 ! D39   D(18,7,8,20)           61.3493         estimate D2E/DX2                !
 ! D40   D(18,7,8,21)          -58.7117         estimate D2E/DX2                !
 ! D41   D(18,7,8,22)         -178.6705         estimate D2E/DX2                !
 ! D42   D(19,7,8,20)          178.7467         estimate D2E/DX2                !
 ! D43   D(19,7,8,21)           58.6857         estimate D2E/DX2                !
 ! D44   D(19,7,8,22)          -61.2731         estimate D2E/DX2                !
 ! D45   D(1,9,10,11)           -0.0057         estimate D2E/DX2                !
 ! D46   D(1,9,10,26)         -178.5746         estimate D2E/DX2                !
 ! D47   D(23,9,10,11)        -179.5686         estimate D2E/DX2                !
 ! D48   D(23,9,10,26)           1.8625         estimate D2E/DX2                !
 ! D49   D(9,10,11,12)           0.1608         estimate D2E/DX2                !
 ! D50   D(9,10,11,27)         179.8658         estimate D2E/DX2                !
 ! D51   D(26,10,11,12)        178.6966         estimate D2E/DX2                !
 ! D52   D(26,10,11,27)         -1.5984         estimate D2E/DX2                !
 ! D53   D(9,10,26,28)          69.1865         estimate D2E/DX2                !
 ! D54   D(9,10,26,29)        -170.7408         estimate D2E/DX2                !
 ! D55   D(9,10,26,30)         -50.0618         estimate D2E/DX2                !
 ! D56   D(11,10,26,28)       -109.4295         estimate D2E/DX2                !
 ! D57   D(11,10,26,29)         10.6433         estimate D2E/DX2                !
 ! D58   D(11,10,26,30)        131.3223         estimate D2E/DX2                !
 ! D59   D(10,11,12,13)         -0.1577         estimate D2E/DX2                !
 ! D60   D(10,11,12,24)        179.823          estimate D2E/DX2                !
 ! D61   D(27,11,12,13)       -179.8654         estimate D2E/DX2                !
 ! D62   D(27,11,12,24)          0.1153         estimate D2E/DX2                !
 ! D63   D(11,12,13,1)           0.0012         estimate D2E/DX2                !
 ! D64   D(11,12,13,25)        179.9367         estimate D2E/DX2                !
 ! D65   D(24,12,13,1)        -179.9795         estimate D2E/DX2                !
 ! D66   D(24,12,13,25)         -0.0441         estimate D2E/DX2                !
 --------------------------------------------------------------------------------
 Trust Radius=3.00D-01 FncErr=5.00D-06 GrdErr=5.00D-06 EigMax=2.50D+02 EigMin=1.00D-04
 Number of steps in this run=    157 maximum allowed number of steps=    180.
 GradGradGradGradGradGradGradGradGradGradGradGradGradGradGradGradGradGrad

                          Input orientation:                          
 ---------------------------------------------------------------------
 Center     Atomic      Atomic             Coordinates (Angstroms)
 Number     Number       Type             X           Y           Z
 ---------------------------------------------------------------------
      1          6           0       -6.017149    1.196155    0.233929
      2          7           0       -4.756870    0.611079    0.107373
      3          6           0       -3.522968    1.253196    0.092856
      4          8           0       -3.388598    2.452678    0.233314
      5          7           0       -2.471290    0.398225   -0.067964
      6          6           0       -1.118294    0.920314   -0.205708
      7          6           0       -0.100471   -0.201880   -0.063381
      8          6           0        1.325976    0.317749   -0.200860
      9          6           0       -6.237691    2.575371    0.275168
     10          6           0       -7.542163    3.044065    0.388076
     11          6           0       -8.641389    2.201697    0.462019
     12          6           0       -8.394598    0.835787    0.422257
     13          6           0       -7.115070    0.326424    0.310757
     14          1           0       -4.746704   -0.399250    0.111158
     15          1           0       -2.644232   -0.526485   -0.435867
     16          1           0       -0.969610    1.670948    0.572113
     17          1           0       -0.997188    1.427360   -1.170152
     18          1           0       -0.287909   -0.965997   -0.826766
     19          1           0       -0.235999   -0.684011    0.909489
     20          1           0        1.485835    0.783536   -1.176642
     21          1           0        2.052539   -0.490005   -0.095838
     22          1           0        1.547590    1.065684    0.564608
     23          1           0       -5.407013    3.263436    0.227184
     24         17           0       -9.737555   -0.272611    0.516137
     25          1           0       -6.965041   -0.747416    0.284123
     26          6           0       -7.742342    4.534269    0.396231
     27          1           0       -9.649237    2.584103    0.551759
     28          9           0       -7.473280    5.076506   -0.804117
     29          9           0       -8.998847    4.880851    0.705611
     30          9           0       -6.936140    5.142693    1.278313
 ---------------------------------------------------------------------
                    Distance matrix (angstroms):
                    1          2          3          4          5
     1  C    0.000000
     2  N    1.395218   0.000000
     3  C    2.498819   1.391057   0.000000
     4  O    2.913440   2.297720   1.215130   0.000000
     5  N    3.647046   2.302156   1.364868   2.270022   0.000000
     6  C    4.926271   3.665089   2.445895   2.774015   1.456759
     7  C    6.086869   4.729916   3.722249   4.236329   2.445594
     8  C    7.408247   6.097710   4.947078   5.193615   3.800443
     9  C    1.397346   2.465650   3.025079   2.852041   4.363883
    10  C    2.400875   3.708918   4.410022   4.198308   5.737786
    11  C    2.819535   4.212521   5.218638   5.263755   6.450079
    12  C    2.411969   3.658239   4.900563   5.264036   5.959644
    13  C    1.402770   2.384010   3.716125   4.291101   4.659751
    14  H    2.043140   1.010387   2.056318   3.161150   2.417760
    15  H    3.846126   2.460163   2.054018   3.142817   1.010124
    16  H    5.081087   3.960131   2.631319   2.564642   2.069919
    17  H    5.217750   4.053837   2.829326   2.956321   2.108771
    18  H    6.214835   4.830258   4.029408   4.735545   2.684034
    19  H    6.116625   4.770630   3.901771   4.498323   2.668927
    20  H    7.645570   6.375720   5.188479   5.341733   4.127526
    21  H    8.250560   6.900849   5.844709   6.194650   4.610288
    22  H    7.573088   6.337345   5.095907   5.138041   4.122748
    23  H    2.155450   2.733503   2.758394   2.175170   4.112787
    24  Cl   4.009779   5.074960   6.413139   6.914944   7.320505
    25  H    2.162981   2.598609   3.985838   4.799389   4.650834
    26  C    3.761069   4.938411   5.353559   4.828525   6.716124
    27  H    3.901215   5.293918   6.285943   6.270110   7.528947
    28  F    4.272585   5.305632   5.570208   4.964409   6.888260
    29  F    4.763401   6.048406   6.597014   6.131393   7.956214
    30  F    4.184548   5.162930   5.308789   4.573102   6.652618
                    6          7          8          9         10
     6  C    0.000000
     7  C    1.521690   0.000000
     8  C    2.517452   1.524357   0.000000
     9  C    5.401729   6.744865   7.907750   0.000000
    10  C    6.791832   8.131344   9.296426   1.390709   0.000000
    11  C    7.660598   8.888223  10.165483   2.439736   1.386849
    12  C    7.303840   8.372881   9.754291   2.774894   2.367342
    13  C    6.048203   7.044408   8.456541   2.414295   2.752083
    14  H    3.873888   4.653698   6.122817   3.331412   4.443838
    15  H    2.115345   2.591300   4.065773   4.800003   6.116980
    16  H    1.091129   2.160263   2.774590   5.353394   6.716976
    17  H    1.096319   2.164132   2.750973   5.556055   6.919430
    18  H    2.152539   1.096251   2.155084   7.011095   8.377389
    19  H    2.143821   1.094209   2.162444   6.859026   8.218908
    20  H    2.782609   2.174112   1.093006   8.060476   9.437324
    21  H    3.472067   2.172445   1.091507   8.846585  10.236314
    22  H    2.778752   2.171910   1.092914   7.935587   9.304234
    23  H    4.906193   6.344465   7.361619   1.079704   2.152411
    24  Cl   8.731310   9.654752  11.102447   4.518640   3.979508
    25  H    6.099648   6.894976   8.373216   3.401475   3.836562
    26  C    7.569743   9.002252  10.018481   2.473038   1.503610
    27  H    8.724617   9.965894  11.232012   3.422752   2.162896
    28  F    7.616946   9.097711  10.021806   2.991189   2.357304
    29  F    8.866761  10.276507  11.324555   3.622775   2.365700
    30  F    7.340172   8.780146   9.681457   2.843462   2.358818
                   11         12         13         14         15
    11  C    0.000000
    12  C    1.388595   0.000000
    13  C    2.422639   1.381693   0.000000
    14  H    4.696446   3.863836   2.485075   0.000000
    15  H    6.649442   5.971505   4.612298   2.176193   0.000000
    16  H    7.690905   7.473312   6.296247   4.331817   2.940934
    17  H    7.854769   7.589954   6.390120   4.363157   2.658842
    18  H    9.026400   8.397910   7.040912   4.591488   2.428628
    19  H    8.898209   8.313237   6.978615   4.589649   2.763038
    20  H   10.356499  10.009104   8.740531   6.473172   4.395720
    21  H   11.041583  10.543662   9.212867   6.802998   4.709204
    22  H   10.252627   9.945865   8.697852   6.478410   4.594271
    23  H    3.412276   3.854503   3.398600   3.723539   4.736676
    24  Cl   2.706789   1.743815   2.697860   5.008856   7.161424
    25  H    3.396919   2.137580   1.084597   2.252145   4.385954
    26  C    2.500701   3.755646   4.255201   5.778817   7.231483
    27  H    1.081686   2.155805   3.402528   5.755811   7.727953
    28  F    3.351433   4.509602   4.892293   6.185131   7.405999
    29  F    2.713849   4.099749   4.944424   6.805406   8.421602
    30  F    3.496235   4.627025   4.915752   6.071986   7.314265
                   16         17         18         19         20
    16  H    0.000000
    17  H    1.759427   0.000000
    18  H    3.061872   2.519752   0.000000
    19  H    2.489546   3.059772   1.759771   0.000000
    20  H    3.142428   2.565142   2.515839   3.077394   0.000000
    21  H    3.774819   3.759158   2.497703   2.507135   1.763858
    22  H    2.588957   3.100984   3.071271   2.522215   1.765042
    23  H    4.727107   4.976975   6.723403   6.541197   7.458686
    24  Cl   8.980947   9.062422   9.569743   9.518589  11.399361
    25  H    6.471215   6.516122   6.772441   6.758336   8.711771
    26  C    7.355232   7.589700   9.344369   9.156367  10.084701
    27  H    8.727554   8.897246  10.106335   9.970837  11.411365
    28  F    7.469240   7.442446   9.388392   9.407349   9.941534
    29  F    8.648118   8.914686  10.602559  10.382521  11.413125
    30  F    6.939108   7.420905   9.270730   8.886979   9.795852
                   21         22         23         24         25
    21  H    0.000000
    22  H    1.763896   0.000000
    23  H    8.356888   7.301403   0.000000
    24  Cl  11.807967  11.364325   5.598277   0.000000
    25  H    9.029251   8.708094   4.303211   2.822428   0.000000
    26  C   11.019308   9.917776   2.664086   5.205895   5.339753
    27  H   12.116149  11.299324   4.308516   2.858300   4.286672
    28  F   11.055718   9.966755   2.936028   5.956765   5.946481
    29  F   12.313469  11.216181   3.968147   5.209583   5.999284
    30  F   10.696351   9.439548   2.640967   6.144456   5.973494
                   26         27         28         29         30
    26  C    0.000000
    27  H    2.731956   0.000000
    28  F    1.344340   3.575648   0.000000
    29  F    1.339641   2.392013   2.155206   0.000000
    30  F    1.340973   3.799363   2.151607   2.156689   0.000000
 Stoichiometry    C11H12ClF3N2O
 Framework group  C1[X(C11H12ClF3N2O)]
 Deg. of freedom    84
 Full point group                 C1      NOp   1
 Largest Abelian subgroup         C1      NOp   1
 Largest concise Abelian subgroup C1      NOp   1
                         Standard orientation:                         
 ---------------------------------------------------------------------
 Center     Atomic      Atomic             Coordinates (Angstroms)
 Number     Number       Type             X           Y           Z
 ---------------------------------------------------------------------
      1          6           0       -0.192559    0.735847    0.019987
      2          7           0        1.183622    0.962648    0.056358
      3          6           0        2.199816    0.014771   -0.006221
      4          8           0        1.999864   -1.175784   -0.144567
      5          7           0        3.449669    0.556976    0.075909
      6          6           0        4.620634   -0.308102    0.127195
      7          6           0        5.888818    0.503469   -0.093261
      8          6           0        7.131043   -0.378813   -0.047192
      9          6           0       -0.775000   -0.534249    0.006083
     10          6           0       -2.161734   -0.637231   -0.014753
     11          6           0       -2.999052    0.468296   -0.022312
     12          6           0       -2.395019    1.718586   -0.011522
     13          6           0       -1.021522    1.867425    0.009217
     14          1           0        1.462442    1.933708    0.042793
     15          1           0        3.554560    1.490892    0.446244
     16          1           0        4.511308   -1.063998   -0.652056
     17          1           0        4.666652   -0.837966    1.085862
     18          1           0        5.963508    1.282822    0.674069
     19          1           0        5.821727    1.013242   -1.059141
     20          1           0        7.226080   -0.879346    0.919812
     21          1           0        8.037876    0.206995   -0.208038
     22          1           0        7.093387   -1.151660   -0.819041
     23          1           0       -0.156500   -1.419244    0.004381
     24         17           0       -3.397108    3.145655   -0.025003
     25          1           0       -0.589255    2.862136    0.016038
     26          6           0       -2.751960   -2.020028    0.003982
     27          1           0       -4.076032    0.369202   -0.040727
     28          9           0       -2.557232   -2.625422    1.188394
     29          9           0       -4.073211   -2.016292   -0.217195
     30          9           0       -2.198186   -2.813157   -0.924721
 ---------------------------------------------------------------------
 Rotational constants (GHZ):           0.5230621           0.1568819           0.1236239
 Standard basis: 6-311+G(d) (5D, 7F)
 There are   458 symmetry adapted cartesian basis functions of A   symmetry.
 There are   440 symmetry adapted basis functions of A   symmetry.
   440 basis functions,   725 primitive gaussians,   458 cartesian basis functions
    72 alpha electrons       72 beta electrons
       nuclear repulsion energy      1418.9453821686 Hartrees.
 NAtoms=   30 NActive=   30 NUniq=   30 SFac= 1.00D+00 NAtFMM=   60 NAOKFM=F Big=F
 Integral buffers will be    131072 words long.
 Raffenetti 2 integral format.
 Two-electron integral symmetry is turned on.
 Nuclear repulsion after empirical dispersion term =     1418.9440150871 Hartrees.
 ------------------------------------------------------------------------------
 Polarizable Continuum Model (PCM)
 =================================
 Model                : PCM.
 Atomic radii         : SMD-Coulomb.
 Polarization charges : Total charges.
 Charge compensation  : None.
 Solution method      : On-the-fly selection.
 Cavity type          : VdW (van der Waals Surface) (Alpha=1.000).
 Cavity algorithm     : GePol (No added spheres)
                        Default sphere list used, NSphG=   30.
                        Lebedev-Laikov grids with approx.  5.0 points / Ang**2.
                        Smoothing algorithm: York/Karplus (Gamma=1.0000).
                        Polarization charges: spherical gaussians, with
                                              point-specific exponents (IZeta= 3).
                        Self-potential: point-specific (ISelfS= 7).
                        Self-field    : sphere-specific E.n sum rule (ISelfD= 2).
 1st derivatives      : Analytical E(r).r(x)/FMM algorithm (CHGder, D1EAlg=3).
                        Cavity 1st derivative terms included.
 Solvent              : n-Pentadecane, Eps=   2.033300 Eps(inf)=   2.049192
 ------------------------------------------------------------------------------
 ------------------------------------------------------------------------------
 Atomic radii for non-electrostatic terms: SMD-CDS.
 ------------------------------------------------------------------------------
 Nuclear repulsion after PCM non-electrostatic terms =     1418.9366790214 Hartrees.
 One-electron integrals computed using PRISM.
 NBasis=   440 RedAO= T EigKep=  1.22D-06  NBF=   440
 NBsUse=   438 1.00D-06 EigRej=  9.27D-07 NBFU=   438
 ExpMin= 4.38D-02 ExpMax= 1.06D+05 ExpMxC= 3.62D+03 IAcc=3 IRadAn=         5 AccDes= 0.00D+00
 Harris functional with IExCor= 1009 and IRadAn=       5 diagonalized for initial guess.
 HarFok:  IExCor= 1009 AccDes= 0.00D+00 IRadAn=         5 IDoV= 1 UseB2=F ITyADJ=14
 ICtDFT=  3500011 ScaDFX=  1.000000  1.000000  1.000000  1.000000
 FoFCou: FMM=F IPFlag=           0 FMFlag=      100000 FMFlg1=           0
         NFxFlg=           0 DoJE=T BraDBF=F KetDBF=T FulRan=T
         wScrn=  0.000000 ICntrl=       500 IOpCl=  0 I1Cent=   200000004 NGrid=           0
         NMat0=    1 NMatS0=      1 NMatT0=    0 NMatD0=    1 NMtDS0=    0 NMtDT0=    0
 Petite list used in FoFCou.
 Requested convergence on RMS density matrix=1.00D-08 within 128 cycles.
 Requested convergence on MAX density matrix=1.00D-06.
 Requested convergence on             energy=1.00D-06.
 No special actions if energy rises.
 Inv3:  Mode=1 IEnd=    18570432.
 Iteration    1 A*A^-1 deviation from unit magnitude is 6.99D-15 for   2483.
 Iteration    1 A*A^-1 deviation from orthogonality  is 1.71D-15 for   2486   2485.
 Iteration    1 A^-1*A deviation from unit magnitude is 7.22D-15 for   2483.
 Iteration    1 A^-1*A deviation from orthogonality  is 3.30D-15 for   2011   1142.
 Error on total polarization charges =  0.02664
 SCF Done:  E(RM062X) =  -1370.81511072     A.U. after   15 cycles
            NFock= 15  Conv=0.66D-08     -V/T= 2.0029
 SMD-CDS (non-electrostatic) energy       (kcal/mol) =      -4.60
 (included in total energy above)

 **********************************************************************

            Population analysis using the SCF Density.

 **********************************************************************

 Orbital symmetries:
       Occupied  (A) (A) (A) (A) (A) (A) (A) (A) (A) (A) (A) (A)
                 (A) (A) (A) (A) (A) (A) (A) (A) (A) (A) (A) (A)
                 (A) (A) (A) (A) (A) (A) (A) (A) (A) (A) (A) (A)
                 (A) (A) (A) (A) (A) (A) (A) (A) (A) (A) (A) (A)
                 (A) (A) (A) (A) (A) (A) (A) (A) (A) (A) (A) (A)
                 (A) (A) (A) (A) (A) (A) (A) (A) (A) (A) (A) (A)
       Virtual   (A) (A) (A) (A) (A) (A) (A) (A) (A) (A) (A) (A)
                 (A) (A) (A) (A) (A) (A) (A) (A) (A) (A) (A) (A)
                 (A) (A) (A) (A) (A) (A) (A) (A) (A) (A) (A) (A)
                 (A) (A) (A) (A) (A) (A) (A) (A) (A) (A) (A) (A)
                 (A) (A) (A) (A) (A) (A) (A) (A) (A) (A) (A) (A)
                 (A) (A) (A) (A) (A) (A) (A) (A) (A) (A) (A) (A)
                 (A) (A) (A) (A) (A) (A) (A) (A) (A) (A) (A) (A)
                 (A) (A) (A) (A) (A) (A) (A) (A) (A) (A) (A) (A)
                 (A) (A) (A) (A) (A) (A) (A) (A) (A) (A) (A) (A)
                 (A) (A) (A) (A) (A) (A) (A) (A) (A) (A) (A) (A)
                 (A) (A) (A) (A) (A) (A) (A) (A) (A) (A) (A) (A)
                 (A) (A) (A) (A) (A) (A) (A) (A) (A) (A) (A) (A)
                 (A) (A) (A) (A) (A) (A) (A) (A) (A) (A) (A) (A)
                 (A) (A) (A) (A) (A) (A) (A) (A) (A) (A) (A) (A)
                 (A) (A) (A) (A) (A) (A) (A) (A) (A) (A) (A) (A)
                 (A) (A) (A) (A) (A) (A) (A) (A) (A) (A) (A) (A)
                 (A) (A) (A) (A) (A) (A) (A) (A) (A) (A) (A) (A)
                 (A) (A) (A) (A) (A) (A) (A) (A) (A) (A) (A) (A)
                 (A) (A) (A) (A) (A) (A) (A) (A) (A) (A) (A) (A)
                 (A) (A) (A) (A) (A) (A) (A) (A) (A) (A) (A) (A)
                 (A) (A) (A) (A) (A) (A) (A) (A) (A) (A) (A) (A)
                 (A) (A) (A) (A) (A) (A) (A) (A) (A) (A) (A) (A)
                 (A) (A) (A) (A) (A) (A) (A) (A) (A) (A) (A) (A)
                 (A) (A) (A) (A) (A) (A) (A) (A) (A) (A) (A) (A)
                 (A) (A) (A) (A) (A) (A) (A) (A) (A) (A) (A) (A)
                 (A) (A) (A) (A) (A) (A) (A) (A) (A) (A) (A) (A)
                 (A) (A) (A) (A) (A) (A) (A) (A) (A) (A) (A) (A)
                 (A) (A) (A) (A) (A) (A) (A) (A) (A) (A) (A) (A)
                 (A) (A) (A) (A) (A) (A) (A) (A) (A) (A) (A) (A)
                 (A) (A) (A) (A) (A) (A) (A) (A) (A) (A) (A) (A)
                 (A) (A) (A) (A) (A) (A)
 The electronic state is 1-A.
 Alpha  occ. eigenvalues -- -102.68710 -25.28078 -25.27664 -25.27546 -19.59833
 Alpha  occ. eigenvalues --  -14.79904 -14.77653 -10.80448 -10.68631 -10.62492
 Alpha  occ. eigenvalues --  -10.62099 -10.58478 -10.57374 -10.57217 -10.56866
 Alpha  occ. eigenvalues --  -10.56182 -10.54246 -10.52830  -9.82979  -7.55490
 Alpha  occ. eigenvalues --   -7.54816  -7.54806  -1.47224  -1.37924  -1.37453
 Alpha  occ. eigenvalues --   -1.19234  -1.07612  -1.04182  -1.01107  -0.95909
 Alpha  occ. eigenvalues --   -0.90110  -0.88306  -0.85063  -0.81770  -0.78964
 Alpha  occ. eigenvalues --   -0.74240  -0.73371  -0.69927  -0.69505  -0.69372
 Alpha  occ. eigenvalues --   -0.67110  -0.66964  -0.63751  -0.60103  -0.59593
 Alpha  occ. eigenvalues --   -0.57775  -0.57601  -0.56576  -0.55505  -0.54254
 Alpha  occ. eigenvalues --   -0.53563  -0.53252  -0.53093  -0.51640  -0.51397
 Alpha  occ. eigenvalues --   -0.51026  -0.49460  -0.49257  -0.47762  -0.46359
 Alpha  occ. eigenvalues --   -0.46155  -0.44142  -0.43197  -0.42804  -0.41076
 Alpha  occ. eigenvalues --   -0.40352  -0.39149  -0.38831  -0.35994  -0.33231
 Alpha  occ. eigenvalues --   -0.32238  -0.28863
 Alpha virt. eigenvalues --   -0.01402  -0.00326   0.00243   0.01744   0.02216
 Alpha virt. eigenvalues --    0.03070   0.03283   0.03583   0.03800   0.04876
 Alpha virt. eigenvalues --    0.05136   0.05336   0.05827   0.06525   0.06792
 Alpha virt. eigenvalues --    0.07130   0.07299   0.07452   0.08120   0.08975
 Alpha virt. eigenvalues --    0.09171   0.09384   0.09785   0.10133   0.11518
 Alpha virt. eigenvalues --    0.12009   0.12136   0.12378   0.12835   0.13069
 Alpha virt. eigenvalues --    0.13334   0.13986   0.14304   0.14843   0.15639
 Alpha virt. eigenvalues --    0.16230   0.17430   0.17615   0.17908   0.18284
 Alpha virt. eigenvalues --    0.18641   0.18799   0.19209   0.19634   0.19724
 Alpha virt. eigenvalues --    0.20513   0.20858   0.21291   0.21683   0.21873
 Alpha virt. eigenvalues --    0.22255   0.22937   0.23138   0.23332   0.24053
 Alpha virt. eigenvalues --    0.24197   0.25116   0.25295   0.25441   0.26302
 Alpha virt. eigenvalues --    0.26519   0.26603   0.26884   0.27473   0.28267
 Alpha virt. eigenvalues --    0.28380   0.28621   0.28852   0.29137   0.29634
 Alpha virt. eigenvalues --    0.29913   0.29980   0.30605   0.30725   0.31583
 Alpha virt. eigenvalues --    0.32803   0.32883   0.33266   0.34477   0.35151
 Alpha virt. eigenvalues --    0.35634   0.36081   0.36538   0.36979   0.37687
 Alpha virt. eigenvalues --    0.37952   0.38448   0.39183   0.39390   0.40527
 Alpha virt. eigenvalues --    0.40962   0.42520   0.43261   0.43811   0.44310
 Alpha virt. eigenvalues --    0.44780   0.45513   0.46504   0.47181   0.47686
 Alpha virt. eigenvalues --    0.48228   0.48619   0.49446   0.50128   0.50760
 Alpha virt. eigenvalues --    0.51203   0.52623   0.53547   0.54265   0.56646
 Alpha virt. eigenvalues --    0.57114   0.57425   0.58683   0.60025   0.60643
 Alpha virt. eigenvalues --    0.62133   0.62645   0.62973   0.64029   0.64273
 Alpha virt. eigenvalues --    0.65265   0.66751   0.67112   0.67585   0.68497
 Alpha virt. eigenvalues --    0.70384   0.70605   0.70648   0.71497   0.71884
 Alpha virt. eigenvalues --    0.72466   0.72890   0.73201   0.74052   0.74311
 Alpha virt. eigenvalues --    0.74617   0.75961   0.76166   0.76725   0.77555
 Alpha virt. eigenvalues --    0.78315   0.79230   0.80125   0.81157   0.83454
 Alpha virt. eigenvalues --    0.84584   0.86485   0.86934   0.89422   0.89891
 Alpha virt. eigenvalues --    0.90765   0.91569   0.91711   0.93038   0.94031
 Alpha virt. eigenvalues --    0.95022   0.95650   0.96562   0.97322   0.98567
 Alpha virt. eigenvalues --    0.99427   1.00508   1.01881   1.03488   1.04813
 Alpha virt. eigenvalues --    1.05402   1.07248   1.08862   1.09775   1.11807
 Alpha virt. eigenvalues --    1.12450   1.15153   1.16456   1.18774   1.21254
 Alpha virt. eigenvalues --    1.22383   1.23317   1.24426   1.24814   1.25208
 Alpha virt. eigenvalues --    1.26463   1.28997   1.31560   1.32676   1.33985
 Alpha virt. eigenvalues --    1.36374   1.37337   1.39558   1.43037   1.44081
 Alpha virt. eigenvalues --    1.44541   1.46894   1.47538   1.48880   1.49224
 Alpha virt. eigenvalues --    1.50636   1.51384   1.53179   1.53810   1.54209
 Alpha virt. eigenvalues --    1.55132   1.56763   1.57932   1.58414   1.59285
 Alpha virt. eigenvalues --    1.59950   1.61167   1.61641   1.63627   1.63691
 Alpha virt. eigenvalues --    1.66325   1.68060   1.72141   1.74420   1.75839
 Alpha virt. eigenvalues --    1.76437   1.77375   1.78063   1.78583   1.80564
 Alpha virt. eigenvalues --    1.83110   1.84675   1.85026   1.86200   1.87191
 Alpha virt. eigenvalues --    1.90343   1.90959   1.93137   1.94693   1.95477
 Alpha virt. eigenvalues --    1.97297   1.99416   2.01459   2.05836   2.06709
 Alpha virt. eigenvalues --    2.07859   2.10028   2.10516   2.12878   2.14817
 Alpha virt. eigenvalues --    2.17654   2.21639   2.22773   2.24225   2.27466
 Alpha virt. eigenvalues --    2.30105   2.31627   2.33523   2.34008   2.37676
 Alpha virt. eigenvalues --    2.38626   2.42735   2.46365   2.46843   2.52039
 Alpha virt. eigenvalues --    2.54623   2.54688   2.55921   2.57582   2.59829
 Alpha virt. eigenvalues --    2.60252   2.62530   2.64875   2.65279   2.68184
 Alpha virt. eigenvalues --    2.70871   2.73737   2.76951   2.79503   2.82386
 Alpha virt. eigenvalues --    2.82715   2.84209   2.86812   2.90088   2.93489
 Alpha virt. eigenvalues --    2.94988   2.97840   2.99816   3.01557   3.03019
 Alpha virt. eigenvalues --    3.04094   3.05824   3.11159   3.11607   3.11978
 Alpha virt. eigenvalues --    3.17531   3.20581   3.24727   3.26046   3.26835
 Alpha virt. eigenvalues --    3.28683   3.31319   3.35650   3.37486   3.40867
 Alpha virt. eigenvalues --    3.42204   3.43824   3.45585   3.51474   3.56807
 Alpha virt. eigenvalues --    3.65714   3.67129   3.70498   3.75726   3.78561
 Alpha virt. eigenvalues --    3.80665   3.81810   3.84362   3.84620   3.86812
 Alpha virt. eigenvalues --    3.87425   3.88527   3.97145   3.98521   4.00235
 Alpha virt. eigenvalues --    4.01066   4.01373   4.02935   4.06162   4.07740
 Alpha virt. eigenvalues --    4.11487   4.22859   4.27824   4.31702   4.54322
 Alpha virt. eigenvalues --    4.58455   4.76353   4.79836   4.89050   4.98788
 Alpha virt. eigenvalues --    5.01624   5.18259   5.20696   5.42794   5.90509
 Alpha virt. eigenvalues --    6.45467   6.49066   6.50535   6.52171   6.53726
 Alpha virt. eigenvalues --    6.59149   6.63287   6.87599   6.90863   9.96773
 Alpha virt. eigenvalues --   23.45092  23.58226  23.65285  23.73655  23.80728
 Alpha virt. eigenvalues --   23.91966  23.93425  23.97069  24.09477  24.11298
 Alpha virt. eigenvalues --   24.20023  25.93196  26.22643  26.72940  35.59059
 Alpha virt. eigenvalues --   35.69111  50.14273  66.88752  66.91161  66.96762
 Alpha virt. eigenvalues --  216.06925
          Condensed to atoms (all electrons):
               1          2          3          4          5          6
     1  C   30.876066  -0.429618  -0.935640  -0.153888  -0.254058  -0.589610
     2  N   -0.429618   7.984247   0.257064  -0.083932  -0.685792  -0.397189
     3  C   -0.935640   0.257064   7.820882   0.635430   0.092917  -0.964803
     4  O   -0.153888  -0.083932   0.635430   8.081159  -0.180871  -0.104326
     5  N   -0.254058  -0.685792   0.092917  -0.180871   7.843795   0.591935
     6  C   -0.589610  -0.397189  -0.964803  -0.104326   0.591935   8.017344
     7  C   -0.006917   0.021663   0.176797   0.012484  -0.152550  -0.746268
     8  C   -0.015243  -0.006479  -0.176833  -0.001611   0.003879   0.311272
     9  C   -4.862847   0.275063   0.128493   0.203824  -0.053788   0.048200
    10  C   -4.355032   0.146656   0.164397   0.077664   0.081148   0.061738
    11  C   -8.228749   0.093429  -0.174731  -0.044975  -0.050046  -0.011479
    12  C    3.838183  -0.078071  -0.842337   0.039589   0.064724  -0.070112
    13  C   -3.127872  -0.032959  -0.482372  -0.102348  -0.175315  -0.144991
    14  H    0.013838   0.231328  -0.035128  -0.001410   0.067318   0.015991
    15  H   -0.032427   0.093861   0.031017  -0.002357   0.226148  -0.074295
    16  H    0.005581   0.013366   0.047754   0.000155  -0.048359   0.344356
    17  H    0.009914   0.004941   0.068776  -0.003353  -0.089861   0.381527
    18  H   -0.004001  -0.000419  -0.020865  -0.000302   0.002451  -0.053669
    19  H    0.004443  -0.000541   0.032875  -0.000031   0.003128  -0.093581
    20  H    0.000207   0.000034   0.009259  -0.000013   0.000233  -0.039773
    21  H    0.000030  -0.000010   0.002894   0.000023  -0.001353   0.071281
    22  H   -0.000297  -0.000072  -0.009237  -0.000101  -0.000011  -0.047689
    23  H   -0.028182  -0.023785   0.060452   0.006341   0.003344   0.005258
    24  Cl   0.214846  -0.014350  -0.042345   0.000109   0.000042  -0.001317
    25  H    0.105615  -0.019242  -0.005755   0.000077  -0.001037  -0.000814
    26  C   -5.030701   0.040949   0.036444  -0.012278   0.014369   0.010724
    27  H    0.034548   0.000636   0.002440  -0.000007   0.000012   0.000021
    28  F    0.044404   0.000418   0.000637   0.000249   0.000039   0.000027
    29  F    0.082118   0.000103   0.000450   0.000033  -0.000005   0.000009
    30  F    0.092301  -0.000002   0.003013  -0.000280   0.000013   0.000043
               7          8          9         10         11         12
     1  C   -0.006917  -0.015243  -4.862847  -4.355032  -8.228749   3.838183
     2  N    0.021663  -0.006479   0.275063   0.146656   0.093429  -0.078071
     3  C    0.176797  -0.176833   0.128493   0.164397  -0.174731  -0.842337
     4  O    0.012484  -0.001611   0.203824   0.077664  -0.044975   0.039589
     5  N   -0.152550   0.003879  -0.053788   0.081148  -0.050046   0.064724
     6  C   -0.746268   0.311272   0.048200   0.061738  -0.011479  -0.070112
     7  C    6.239799  -0.170517  -0.003110  -0.004616   0.001682  -0.000687
     8  C   -0.170517   6.050889   0.002335   0.000956   0.000031  -0.000891
     9  C   -0.003110   0.002335  16.710705   3.279592  -1.318530  -4.175100
    10  C   -0.004616   0.000956   3.279592  30.842195 -12.890095   3.736327
    11  C    0.001682   0.000031  -1.318530 -12.890095  26.925891  -9.626920
    12  C   -0.000687  -0.000891  -4.175100   3.736327  -9.626920  22.932365
    13  C    0.016434  -0.002880  -3.921213  -9.504995   7.066166  -5.972819
    14  H   -0.002291  -0.000008   0.051665   0.032936  -0.022931   0.011522
    15  H    0.003063   0.005845   0.024031   0.000415   0.000518  -0.004694
    16  H    0.001865  -0.023634  -0.005979  -0.000775   0.000243  -0.000001
    17  H   -0.061563  -0.005635  -0.000101   0.000069   0.000089   0.000047
    18  H    0.448843  -0.032246   0.000450   0.000031   0.000004  -0.000071
    19  H    0.450488  -0.055129  -0.000006  -0.000012  -0.000007   0.000091
    20  H    0.012481   0.363875   0.000031  -0.000002  -0.000000   0.000001
    21  H   -0.114152   0.391772   0.000022   0.000000  -0.000000   0.000000
    22  H    0.008635   0.393949  -0.000026   0.000000   0.000001  -0.000002
    23  H   -0.000270   0.000032   0.343364  -0.086412  -0.002776  -0.020763
    24  Cl  -0.000027  -0.000003   0.086060  -0.038145  -0.095208  -0.835085
    25  H    0.000053  -0.000002  -0.039740   0.064816  -0.074215   0.118939
    26  C   -0.000009   0.000100  -0.755342  -5.365618   4.725778  -3.618273
    27  H   -0.000000   0.000000  -0.042872   0.087671   0.108615   0.154134
    28  F   -0.000000  -0.000000  -0.040019   0.097328  -0.114452   0.028515
    29  F   -0.000000  -0.000000   0.114494  -0.144909  -0.092245   0.134328
    30  F    0.000003   0.000000  -0.036176  -0.032623  -0.066744   0.045979
              13         14         15         16         17         18
     1  C   -3.127872   0.013838  -0.032427   0.005581   0.009914  -0.004001
     2  N   -0.032959   0.231328   0.093861   0.013366   0.004941  -0.000419
     3  C   -0.482372  -0.035128   0.031017   0.047754   0.068776  -0.020865
     4  O   -0.102348  -0.001410  -0.002357   0.000155  -0.003353  -0.000302
     5  N   -0.175315   0.067318   0.226148  -0.048359  -0.089861   0.002451
     6  C   -0.144991   0.015991  -0.074295   0.344356   0.381527  -0.053669
     7  C    0.016434  -0.002291   0.003063   0.001865  -0.061563   0.448843
     8  C   -0.002880  -0.000008   0.005845  -0.023634  -0.005635  -0.032246
     9  C   -3.921213   0.051665   0.024031  -0.005979  -0.000101   0.000450
    10  C   -9.504995   0.032936   0.000415  -0.000775   0.000069   0.000031
    11  C    7.066166  -0.022931   0.000518   0.000243   0.000089   0.000004
    12  C   -5.972819   0.011522  -0.004694  -0.000001   0.000047  -0.000071
    13  C   20.908476  -0.092774   0.001511   0.003289   0.000501   0.000055
    14  H   -0.092774   0.339758   0.001260  -0.000002   0.000222   0.000055
    15  H    0.001511   0.001260   0.364893   0.002203   0.001786   0.003578
    16  H    0.003289  -0.000002   0.002203   0.423969  -0.037193   0.005000
    17  H    0.000501   0.000222   0.001786  -0.037193   0.461586  -0.008902
    18  H    0.000055   0.000055   0.003578   0.005000  -0.008902   0.467711
    19  H   -0.000087  -0.000011  -0.000844  -0.007781   0.006054  -0.043889
    20  H   -0.000003  -0.000000   0.000034  -0.000175   0.003240  -0.008358
    21  H   -0.000009   0.000000  -0.000018  -0.000223  -0.000104  -0.003387
    22  H    0.000015   0.000001  -0.000022   0.003429  -0.000793   0.006424
    23  H   -0.004745   0.000012  -0.000023  -0.000029  -0.000005  -0.000000
    24  Cl  -0.087753   0.001419   0.000020   0.000002   0.000001   0.000000
    25  H    0.177314   0.006708   0.000018  -0.000000  -0.000000  -0.000000
    26  C    1.809191   0.000631   0.000038  -0.000055  -0.000010   0.000001
    27  H   -0.030151   0.000002   0.000000  -0.000000  -0.000000   0.000000
    28  F   -0.016372   0.000002  -0.000000  -0.000000  -0.000000   0.000000
    29  F   -0.016870   0.000001  -0.000000   0.000000   0.000000  -0.000000
    30  F   -0.020234  -0.000003   0.000000  -0.000000  -0.000000   0.000000
              19         20         21         22         23         24
     1  C    0.004443   0.000207   0.000030  -0.000297  -0.028182   0.214846
     2  N   -0.000541   0.000034  -0.000010  -0.000072  -0.023785  -0.014350
     3  C    0.032875   0.009259   0.002894  -0.009237   0.060452  -0.042345
     4  O   -0.000031  -0.000013   0.000023  -0.000101   0.006341   0.000109
     5  N    0.003128   0.000233  -0.001353  -0.000011   0.003344   0.000042
     6  C   -0.093581  -0.039773   0.071281  -0.047689   0.005258  -0.001317
     7  C    0.450488   0.012481  -0.114152   0.008635  -0.000270  -0.000027
     8  C   -0.055129   0.363875   0.391772   0.393949   0.000032  -0.000003
     9  C   -0.000006   0.000031   0.000022  -0.000026   0.343364   0.086060
    10  C   -0.000012  -0.000002   0.000000   0.000000  -0.086412  -0.038145
    11  C   -0.000007  -0.000000  -0.000000   0.000001  -0.002776  -0.095208
    12  C    0.000091   0.000001   0.000000  -0.000002  -0.020763  -0.835085
    13  C   -0.000087  -0.000003  -0.000009   0.000015  -0.004745  -0.087753
    14  H   -0.000011  -0.000000   0.000000   0.000001   0.000012   0.001419
    15  H   -0.000844   0.000034  -0.000018  -0.000022  -0.000023   0.000020
    16  H   -0.007781  -0.000175  -0.000223   0.003429  -0.000029   0.000002
    17  H    0.006054   0.003240  -0.000104  -0.000793  -0.000005   0.000001
    18  H   -0.043889  -0.008358  -0.003387   0.006424  -0.000000   0.000000
    19  H    0.444010   0.005920  -0.003399  -0.008352   0.000000   0.000000
    20  H    0.005920   0.449811  -0.025536  -0.035574   0.000000  -0.000000
    21  H   -0.003399  -0.025536   0.433001  -0.023844   0.000000  -0.000000
    22  H   -0.008352  -0.035574  -0.023844   0.446951  -0.000000   0.000000
    23  H    0.000000   0.000000   0.000000  -0.000000   0.340165   0.000044
    24  Cl   0.000000  -0.000000  -0.000000   0.000000   0.000044  17.561242
    25  H    0.000000   0.000000   0.000000  -0.000000  -0.000008  -0.010452
    26  C    0.000002   0.000000   0.000000  -0.000000   0.067076  -0.129279
    27  H    0.000000   0.000000   0.000000  -0.000000  -0.000124  -0.015438
    28  F   -0.000000   0.000000   0.000000  -0.000000  -0.002417  -0.000635
    29  F   -0.000000  -0.000000  -0.000000  -0.000000  -0.000093   0.000973
    30  F    0.000000   0.000000   0.000000  -0.000000   0.001747  -0.000575
              25         26         27         28         29         30
     1  C    0.105615  -5.030701   0.034548   0.044404   0.082118   0.092301
     2  N   -0.019242   0.040949   0.000636   0.000418   0.000103  -0.000002
     3  C   -0.005755   0.036444   0.002440   0.000637   0.000450   0.003013
     4  O    0.000077  -0.012278  -0.000007   0.000249   0.000033  -0.000280
     5  N   -0.001037   0.014369   0.000012   0.000039  -0.000005   0.000013
     6  C   -0.000814   0.010724   0.000021   0.000027   0.000009   0.000043
     7  C    0.000053  -0.000009  -0.000000  -0.000000  -0.000000   0.000003
     8  C   -0.000002   0.000100   0.000000  -0.000000  -0.000000   0.000000
     9  C   -0.039740  -0.755342  -0.042872  -0.040019   0.114494  -0.036176
    10  C    0.064816  -5.365618   0.087671   0.097328  -0.144909  -0.032623
    11  C   -0.074215   4.725778   0.108615  -0.114452  -0.092245  -0.066744
    12  C    0.118939  -3.618273   0.154134   0.028515   0.134328   0.045979
    13  C    0.177314   1.809191  -0.030151  -0.016372  -0.016870  -0.020234
    14  H    0.006708   0.000631   0.000002   0.000002   0.000001  -0.000003
    15  H    0.000018   0.000038   0.000000  -0.000000  -0.000000   0.000000
    16  H   -0.000000  -0.000055  -0.000000  -0.000000   0.000000  -0.000000
    17  H   -0.000000  -0.000010  -0.000000  -0.000000   0.000000  -0.000000
    18  H   -0.000000   0.000001   0.000000   0.000000  -0.000000   0.000000
    19  H    0.000000   0.000002   0.000000  -0.000000  -0.000000   0.000000
    20  H    0.000000   0.000000   0.000000   0.000000  -0.000000   0.000000
    21  H    0.000000   0.000000   0.000000   0.000000  -0.000000   0.000000
    22  H   -0.000000  -0.000000  -0.000000  -0.000000  -0.000000  -0.000000
    23  H   -0.000008   0.067076  -0.000124  -0.002417  -0.000093   0.001747
    24  Cl  -0.010452  -0.129279  -0.015438  -0.000635   0.000973  -0.000575
    25  H    0.402407   0.001699  -0.000177  -0.000000  -0.000000   0.000001
    26  C    0.001699  13.041573   0.011453   0.178197   0.065172   0.183245
    27  H   -0.000177   0.011453   0.368600  -0.000032   0.008378   0.000284
    28  F   -0.000000   0.178197  -0.000032   8.972409  -0.036080  -0.053690
    29  F   -0.000000   0.065172   0.008378  -0.036080   9.048705  -0.024002
    30  F    0.000001   0.183245   0.000284  -0.053690  -0.024002   8.984835
 Mulliken charges:
               1
     1  C   -1.267013
     2  N   -0.391297
     3  C    0.118055
     4  O   -0.365056
     5  N   -0.302449
     6  C   -0.519811
     7  C   -0.131312
     8  C   -1.033825
     9  C   -0.013478
    10  C   -0.250706
    11  C   -0.108344
    12  C    0.141082
    13  C   -0.246188
    14  H    0.379892
    15  H    0.354442
    16  H    0.272993
    17  H    0.268768
    18  H    0.241507
    19  H    0.266657
    20  H    0.264307
    21  H    0.273011
    22  H    0.266617
    23  H    0.341794
    24  Cl   0.405854
    25  H    0.273795
    26  C    0.724925
    27  H    0.312007
    28  F   -0.058527
    29  F   -0.140562
    30  F   -0.077137
 Sum of Mulliken charges =  -0.00000
 Mulliken charges with hydrogens summed into heavy atoms:
               1
     1  C   -1.267013
     2  N   -0.011405
     3  C    0.118055
     4  O   -0.365056
     5  N    0.051993
     6  C    0.021950
     7  C    0.376852
     8  C   -0.229890
     9  C    0.328316
    10  C   -0.250706
    11  C    0.203663
    12  C    0.141082
    13  C    0.027606
    24  Cl   0.405854
    26  C    0.724925
    28  F   -0.058527
    29  F   -0.140562
    30  F   -0.077137
 Electronic spatial extent (au):  <R**2>=           8127.4454
 Charge=              0.0000 electrons
 Dipole moment (field-independent basis, Debye):
    X=              5.6417    Y=              5.4479    Z=              0.7817  Tot=              7.8816
 Quadrupole moment (field-independent basis, Debye-Ang):
   XX=            -97.9944   YY=           -115.6728   ZZ=           -115.3360
   XY=              7.0204   XZ=              2.8685   YZ=              0.9423
 Traceless Quadrupole moment (field-independent basis, Debye-Ang):
   XX=             11.6734   YY=             -6.0051   ZZ=             -5.6683
   XY=              7.0204   XZ=              2.8685   YZ=              0.9423
 Octapole moment (field-independent basis, Debye-Ang**2):
  XXX=             79.6792  YYY=             -8.3074  ZZZ=             -0.4157  XYY=             19.8024
  XXY=             14.3030  XXZ=              7.8289  XZZ=             -6.9611  YZZ=            -13.3644
  YYZ=              2.2916  XYZ=              3.1507
 Hexadecapole moment (field-independent basis, Debye-Ang**3):
 XXXX=          -7628.6707 YYYY=          -2042.5158 ZZZZ=           -210.9110 XXXY=            128.4606
 XXXZ=             17.7345 YYYX=            123.2908 YYYZ=              4.6083 ZZZX=              4.3200
 ZZZY=              1.7544 XXYY=          -1757.8308 XXZZ=          -1405.5119 YYZZ=           -390.9195
 XXYZ=             15.4453 YYXZ=              8.1437 ZZXY=             27.9145
 N-N= 1.418936679021D+03 E-N=-6.068398380657D+03  KE= 1.366887100714D+03
 D1PCM: PCM CHGder 1st derivatives, ID1Alg=3 FixD1E=F DoIter=F DoCFld=F I1PDM=0.
 Calling FoFJK, ICntrl=      2127 FMM=F ISym2X=0 I1Cent= 0 IOpClX= 0 NMat=1 NMatS=1 NMatT=0.
 ***** Axes restored to original set *****
 -------------------------------------------------------------------
 Center     Atomic                   Forces (Hartrees/Bohr)
 Number     Number              X              Y              Z
 -------------------------------------------------------------------
      1        6           0.000034697   -0.000013647   -0.000001790
      2        7          -0.000005434    0.000061933   -0.000001745
      3        6           0.000018626   -0.000065136   -0.000012601
      4        8          -0.000001632    0.000045540    0.000005731
      5        7          -0.000070711    0.000016612   -0.000010087
      6        6          -0.000020940   -0.000009386   -0.000012655
      7        6           0.000019513    0.000028285    0.000020568
      8        6          -0.000002218   -0.000000446   -0.000004133
      9        6          -0.000000236    0.000003931    0.000005037
     10        6           0.000001384    0.000004001    0.000001130
     11        6          -0.000015256    0.000011124    0.000001356
     12        6           0.000021457    0.000010864   -0.000003984
     13        6          -0.000039379    0.000007669   -0.000004248
     14        1           0.000013247   -0.000066353   -0.000006019
     15        1           0.000013916   -0.000008055    0.000001427
     16        1           0.000006915   -0.000001150    0.000003548
     17        1           0.000000172   -0.000001519    0.000002605
     18        1          -0.000001255    0.000005692    0.000005187
     19        1          -0.000000798   -0.000002522   -0.000004588
     20        1          -0.000000772    0.000000030    0.000003246
     21        1           0.000001007   -0.000000952    0.000000449
     22        1          -0.000000004   -0.000001454    0.000001476
     23        1          -0.000001410   -0.000000648    0.000000095
     24       17          -0.000010677   -0.000002257   -0.000003720
     25        1           0.000028943   -0.000024863    0.000004920
     26        6          -0.000005924   -0.000045092   -0.000001977
     27        1           0.000013172    0.000001138   -0.000003591
     28        9           0.000001805    0.000013903   -0.000001090
     29        9          -0.000003062    0.000015287    0.000006254
     30        9           0.000004856    0.000017473    0.000009199
 -------------------------------------------------------------------
 Cartesian Forces:  Max     0.000070711 RMS     0.000018936

 GradGradGradGradGradGradGradGradGradGradGradGradGradGradGradGradGradGrad
 Berny optimization.
 FormGI is forming the generalized inverse of G from B-inverse, IUseBI=4.
 Internal  Forces:  Max     0.000085506 RMS     0.000017820
 Search for a local minimum.
 Step number   1 out of a maximum of  157
 All quantities printed in internal units (Hartrees-Bohrs-Radians)
 Mixed Optimization -- En-DIIS/RFO-DIIS
 Second derivative matrix not updated -- first step.
 ITU=  0
     Eigenvalues ---    0.00444   0.00479   0.00718   0.00941   0.01657
     Eigenvalues ---    0.01709   0.01755   0.01802   0.01810   0.01984
     Eigenvalues ---    0.01995   0.02107   0.02157   0.02166   0.02191
     Eigenvalues ---    0.02224   0.02251   0.02268   0.02291   0.03725
     Eigenvalues ---    0.04450   0.04934   0.05520   0.05532   0.05549
     Eigenvalues ---    0.08184   0.09210   0.10612   0.10818   0.12079
     Eigenvalues ---    0.12661   0.15188   0.15962   0.16000   0.16000
     Eigenvalues ---    0.16000   0.16000   0.16000   0.16000   0.21892
     Eigenvalues ---    0.21904   0.22014   0.22186   0.23481   0.23506
     Eigenvalues ---    0.23508   0.24993   0.24995   0.24999   0.25000
     Eigenvalues ---    0.25000   0.25000   0.25000   0.25000   0.29951
     Eigenvalues ---    0.30204   0.31094   0.32001   0.34092   0.34100
     Eigenvalues ---    0.34331   0.34468   0.34478   0.34639   0.34682
     Eigenvalues ---    0.35445   0.35791   0.36030   0.37373   0.42335
     Eigenvalues ---    0.42980   0.45908   0.45952   0.46094   0.46422
     Eigenvalues ---    0.46920   0.47135   0.47551   0.48381   0.51976
     Eigenvalues ---    0.56243   0.56987   0.57285   0.97574
 RFO step:  Lambda=-3.18188175D-07 EMin= 4.43747574D-03
 Linear search not attempted -- first point.
 Iteration  1 RMS(Cart)=  0.00193994 RMS(Int)=  0.00000105
 Iteration  2 RMS(Cart)=  0.00000217 RMS(Int)=  0.00000001
 Iteration  3 RMS(Cart)=  0.00000000 RMS(Int)=  0.00000001
 Variable       Old X    -DE/DX   Delta X   Delta X   Delta X     New X
                                 (Linear)    (Quad)   (Total)
    R1        2.63658  -0.00003   0.00000  -0.00006  -0.00006   2.63652
    R2        2.64060   0.00001   0.00000   0.00002   0.00002   2.64062
    R3        2.65085   0.00001   0.00000   0.00001   0.00001   2.65087
    R4        2.62872  -0.00004   0.00000  -0.00008  -0.00008   2.62864
    R5        1.90936   0.00007   0.00000   0.00014   0.00014   1.90950
    R6        2.29626   0.00005   0.00000   0.00005   0.00005   2.29631
    R7        2.57923  -0.00006   0.00000  -0.00011  -0.00011   2.57912
    R8        2.75288   0.00000   0.00000   0.00001   0.00001   2.75288
    R9        1.90886   0.00000   0.00000   0.00001   0.00001   1.90887
   R10        2.87558  -0.00001   0.00000  -0.00002  -0.00002   2.87555
   R11        2.06194   0.00000   0.00000   0.00001   0.00001   2.06194
   R12        2.07174  -0.00000   0.00000  -0.00001  -0.00001   2.07173
   R13        2.88062  -0.00000   0.00000  -0.00001  -0.00001   2.88060
   R14        2.07161  -0.00001   0.00000  -0.00002  -0.00002   2.07159
   R15        2.06776  -0.00000   0.00000  -0.00001  -0.00001   2.06775
   R16        2.06548  -0.00000   0.00000  -0.00001  -0.00001   2.06547
   R17        2.06265   0.00000   0.00000   0.00000   0.00000   2.06265
   R18        2.06531  -0.00000   0.00000  -0.00000  -0.00000   2.06531
   R19        2.62806  -0.00001   0.00000  -0.00002  -0.00002   2.62804
   R20        2.04035  -0.00000   0.00000  -0.00000  -0.00000   2.04034
   R21        2.62077  -0.00001   0.00000  -0.00002  -0.00002   2.62074
   R22        2.84141   0.00000   0.00000   0.00001   0.00001   2.84142
   R23        2.62406   0.00002   0.00000   0.00004   0.00004   2.62410
   R24        2.04409  -0.00001   0.00000  -0.00003  -0.00003   2.04406
   R25        2.61102   0.00001   0.00000   0.00003   0.00003   2.61105
   R26        3.29533   0.00001   0.00000   0.00003   0.00003   3.29536
   R27        2.04959   0.00003   0.00000   0.00008   0.00008   2.04967
   R28        2.54044   0.00001   0.00000   0.00001   0.00001   2.54045
   R29        2.53155   0.00001   0.00000   0.00001   0.00001   2.53157
   R30        2.53407   0.00002   0.00000   0.00003   0.00003   2.53410
    A1        2.16415  -0.00005   0.00000  -0.00018  -0.00018   2.16397
    A2        2.03975   0.00004   0.00000   0.00017   0.00017   2.03992
    A3        2.07924   0.00000   0.00000   0.00001   0.00001   2.07925
    A4        2.22511  -0.00009   0.00000  -0.00039  -0.00039   2.22471
    A5        2.01315   0.00005   0.00000   0.00025   0.00025   2.01340
    A6        2.04058   0.00003   0.00000   0.00011   0.00011   2.04069
    A7        2.15621  -0.00003   0.00000  -0.00012  -0.00012   2.15609
    A8        1.97747   0.00004   0.00000   0.00016   0.00016   1.97763
    A9        2.14929  -0.00001   0.00000  -0.00006  -0.00006   2.14923
   A10        2.09704  -0.00006   0.00000  -0.00024  -0.00024   2.09680
   A11        2.07652   0.00005   0.00000   0.00032   0.00032   2.07684
   A12        2.04054   0.00002   0.00000   0.00010   0.00010   2.04065
   A13        1.92633   0.00003   0.00000   0.00017   0.00017   1.92650
   A14        1.88148  -0.00000   0.00000  -0.00003  -0.00003   1.88144
   A15        1.93001  -0.00001   0.00000   0.00001   0.00001   1.93001
   A16        1.92785  -0.00002   0.00000  -0.00020  -0.00020   1.92764
   A17        1.92780  -0.00000   0.00000   0.00006   0.00006   1.92787
   A18        1.86908   0.00001   0.00000  -0.00002  -0.00002   1.86907
   A19        1.94560   0.00001   0.00000   0.00005   0.00005   1.94565
   A20        1.91191  -0.00001   0.00000  -0.00005  -0.00005   1.91186
   A21        1.90208  -0.00000   0.00000   0.00002   0.00002   1.90210
   A22        1.91219  -0.00000   0.00000  -0.00002  -0.00002   1.91217
   A23        1.92441  -0.00000   0.00000   0.00003   0.00003   1.92444
   A24        1.86590  -0.00000   0.00000  -0.00003  -0.00003   1.86586
   A25        1.94190  -0.00000   0.00000  -0.00000  -0.00000   1.94190
   A26        1.94116  -0.00000   0.00000  -0.00001  -0.00001   1.94115
   A27        1.93892  -0.00000   0.00000   0.00000   0.00000   1.93892
   A28        1.87959   0.00000   0.00000   0.00000   0.00000   1.87959
   A29        1.87967   0.00000   0.00000   0.00001   0.00001   1.87967
   A30        1.87976  -0.00000   0.00000  -0.00000  -0.00000   1.87976
   A31        2.07497   0.00001   0.00000   0.00005   0.00005   2.07502
   A32        2.10164  -0.00001   0.00000  -0.00002  -0.00002   2.10162
   A33        2.10654  -0.00001   0.00000  -0.00003  -0.00003   2.10652
   A34        2.14490  -0.00001   0.00000  -0.00004  -0.00004   2.14486
   A35        2.04804   0.00000   0.00000   0.00001   0.00001   2.04805
   A36        2.08998   0.00001   0.00000   0.00003   0.00003   2.09001
   A37        2.04326   0.00000   0.00000   0.00000   0.00000   2.04326
   A38        2.12727  -0.00001   0.00000  -0.00004  -0.00004   2.12723
   A39        2.11265   0.00001   0.00000   0.00004   0.00004   2.11269
   A40        2.12884   0.00001   0.00000   0.00005   0.00005   2.12888
   A41        2.07924  -0.00001   0.00000  -0.00006  -0.00006   2.07918
   A42        2.07511   0.00000   0.00000   0.00001   0.00001   2.07512
   A43        2.09516  -0.00002   0.00000  -0.00007  -0.00007   2.09509
   A44        2.09931  -0.00002   0.00000  -0.00012  -0.00012   2.09919
   A45        2.08872   0.00003   0.00000   0.00019   0.00019   2.08891
   A46        1.94794   0.00001   0.00000   0.00005   0.00005   1.94799
   A47        1.96333   0.00002   0.00000   0.00008   0.00008   1.96341
   A48        1.95325   0.00001   0.00000   0.00004   0.00004   1.95329
   A49        1.86458  -0.00001   0.00000  -0.00003  -0.00003   1.86455
   A50        1.85876  -0.00002   0.00000  -0.00007  -0.00007   1.85869
   A51        1.86984  -0.00002   0.00000  -0.00008  -0.00008   1.86975
    D1        0.08237  -0.00001   0.00000  -0.00037  -0.00037   0.08201
    D2        3.11996  -0.00001   0.00000  -0.00066  -0.00066   3.11930
    D3       -3.06940  -0.00000   0.00000  -0.00011  -0.00011  -3.06951
    D4       -0.03182  -0.00001   0.00000  -0.00041  -0.00041  -0.03222
    D5        3.12848   0.00001   0.00000   0.00028   0.00028   3.12876
    D6       -0.02072   0.00000   0.00000   0.00011   0.00011  -0.02061
    D7       -0.00272   0.00000   0.00000   0.00002   0.00002  -0.00269
    D8        3.13127  -0.00000   0.00000  -0.00015  -0.00015   3.13112
    D9       -3.12916  -0.00000   0.00000  -0.00009  -0.00009  -3.12924
   D10        0.01357   0.00000   0.00000   0.00002   0.00002   0.01359
   D11        0.00277   0.00000   0.00000   0.00016   0.00016   0.00293
   D12       -3.13769   0.00001   0.00000   0.00026   0.00026  -3.13743
   D13        0.03961  -0.00001   0.00000  -0.00064  -0.00064   0.03897
   D14       -3.12399  -0.00002   0.00000  -0.00123  -0.00123  -3.12522
   D15       -2.99656  -0.00001   0.00000  -0.00035  -0.00035  -2.99691
   D16        0.12302  -0.00002   0.00000  -0.00094  -0.00094   0.12208
   D17        3.06072   0.00001   0.00000   0.00049   0.00049   3.06121
   D18        0.32169   0.00000   0.00000  -0.00005  -0.00005   0.32164
   D19       -0.10278  -0.00001   0.00000  -0.00010  -0.00010  -0.10288
   D20       -2.84181  -0.00001   0.00000  -0.00064  -0.00064  -2.84245
   D21        2.92389  -0.00002   0.00000  -0.00129  -0.00129   2.92260
   D22        0.81698  -0.00001   0.00000  -0.00112  -0.00112   0.81586
   D23       -1.22088  -0.00001   0.00000  -0.00108  -0.00108  -1.22196
   D24       -0.61223  -0.00001   0.00000  -0.00071  -0.00071  -0.61294
   D25       -2.71914   0.00000   0.00000  -0.00054  -0.00054  -2.71968
   D26        1.52619   0.00000   0.00000  -0.00050  -0.00050   1.52568
   D27       -3.13969   0.00000   0.00000  -0.00006  -0.00006  -3.13975
   D28        1.02418   0.00000   0.00000  -0.00004  -0.00004   1.02415
   D29       -1.01166   0.00000   0.00000   0.00002   0.00002  -1.01164
   D30       -1.06074   0.00000   0.00000  -0.00012  -0.00012  -1.06086
   D31        3.10313   0.00000   0.00000  -0.00010  -0.00010   3.10304
   D32        1.06729   0.00000   0.00000  -0.00004  -0.00004   1.06725
   D33        1.00379  -0.00001   0.00000  -0.00023  -0.00023   1.00356
   D34       -1.11553  -0.00001   0.00000  -0.00021  -0.00021  -1.11573
   D35        3.13182  -0.00000   0.00000  -0.00015  -0.00015   3.13167
   D36       -1.04841   0.00000   0.00000   0.00011   0.00011  -1.04829
   D37        3.13932   0.00000   0.00000   0.00011   0.00011   3.13943
   D38        1.04564   0.00000   0.00000   0.00012   0.00012   1.04576
   D39        1.07075   0.00000   0.00000   0.00007   0.00007   1.07081
   D40       -1.02471   0.00000   0.00000   0.00007   0.00007  -1.02465
   D41       -3.11839   0.00000   0.00000   0.00008   0.00008  -3.11831
   D42        3.11972  -0.00000   0.00000   0.00003   0.00003   3.11975
   D43        1.02426  -0.00000   0.00000   0.00003   0.00003   1.02429
   D44       -1.06942  -0.00000   0.00000   0.00004   0.00004  -1.06938
   D45       -0.00010  -0.00000   0.00000  -0.00018  -0.00018  -0.00028
   D46       -3.11671  -0.00001   0.00000  -0.00026  -0.00026  -3.11698
   D47       -3.13406  -0.00000   0.00000  -0.00001  -0.00001  -3.13408
   D48        0.03251  -0.00000   0.00000  -0.00009  -0.00009   0.03241
   D49        0.00281   0.00000   0.00000   0.00016   0.00016   0.00296
   D50        3.13925   0.00000   0.00000   0.00009   0.00009   3.13934
   D51        3.11884   0.00000   0.00000   0.00024   0.00024   3.11908
   D52       -0.02790   0.00000   0.00000   0.00017   0.00017  -0.02773
   D53        1.20753  -0.00000   0.00000   0.00014   0.00014   1.20767
   D54       -2.97999   0.00000   0.00000   0.00019   0.00019  -2.97980
   D55       -0.87374   0.00000   0.00000   0.00017   0.00017  -0.87357
   D56       -1.90990  -0.00000   0.00000   0.00006   0.00006  -1.90984
   D57        0.18576   0.00000   0.00000   0.00011   0.00011   0.18587
   D58        2.29201   0.00000   0.00000   0.00009   0.00009   2.29210
   D59       -0.00275   0.00000   0.00000   0.00003   0.00003  -0.00273
   D60        3.13850  -0.00000   0.00000  -0.00005  -0.00005   3.13845
   D61       -3.13924   0.00000   0.00000   0.00010   0.00010  -3.13915
   D62        0.00201   0.00000   0.00000   0.00001   0.00001   0.00203
   D63        0.00002  -0.00000   0.00000  -0.00018  -0.00018  -0.00016
   D64        3.14049  -0.00001   0.00000  -0.00029  -0.00029   3.14020
   D65       -3.14123  -0.00000   0.00000  -0.00010  -0.00010  -3.14134
   D66       -0.00077  -0.00000   0.00000  -0.00020  -0.00020  -0.00097
         Item               Value     Threshold  Converged?
 Maximum Force            0.000086     0.000450     YES
 RMS     Force            0.000018     0.000300     YES
 Maximum Displacement     0.006487     0.001800     NO 
 RMS     Displacement     0.001940     0.001200     NO 
 Predicted change in Energy=-1.590939D-07
 GradGradGradGradGradGradGradGradGradGradGradGradGradGradGradGradGradGrad

                          Input orientation:                          
 ---------------------------------------------------------------------
 Center     Atomic      Atomic             Coordinates (Angstroms)
 Number     Number       Type             X           Y           Z
 ---------------------------------------------------------------------
      1          6           0       -6.017478    1.195286    0.232766
      2          7           0       -4.757457    0.609884    0.105473
      3          6           0       -3.523677    1.252134    0.090295
      4          8           0       -3.389563    2.451748    0.230083
      5          7           0       -2.471786    0.397340   -0.069577
      6          6           0       -1.118985    0.919981   -0.207184
      7          6           0       -0.100422   -0.201158   -0.061992
      8          6           0        1.325751    0.319225   -0.199379
      9          6           0       -6.237332    2.574605    0.274540
     10          6           0       -7.541466    3.043949    0.388504
     11          6           0       -8.641058    2.202105    0.462789
     12          6           0       -8.394962    0.836066    0.422454
     13          6           0       -7.115756    0.326041    0.310112
     14          1           0       -4.747279   -0.400521    0.109490
     15          1           0       -2.644133   -0.527897   -0.436450
     16          1           0       -0.971357    1.672012    0.569493
     17          1           0       -0.997447    1.425500   -1.172371
     18          1           0       -0.286739   -0.966800   -0.824107
     19          1           0       -0.236343   -0.681632    0.911638
     20          1           0        1.485976    0.783388   -1.175871
     21          1           0        2.052802   -0.487836   -0.092405
     22          1           0        1.546298    1.068667    0.564921
     23          1           0       -5.406335    3.262265    0.226308
     24         17           0       -9.738485   -0.271628    0.516816
     25          1           0       -6.966090   -0.747888    0.283306
     26          6           0       -7.740839    4.534261    0.397555
     27          1           0       -9.648629    2.585014    0.553272
     28          9           0       -7.472412    5.077019   -0.802708
     29          9           0       -8.996886    4.881473    0.708115
     30          9           0       -6.933623    5.141869    1.279295
 ---------------------------------------------------------------------
                    Distance matrix (angstroms):
                    1          2          3          4          5
     1  C    0.000000
     2  N    1.395188   0.000000
     3  C    2.498514   1.391017   0.000000
     4  O    2.912840   2.297635   1.215155   0.000000
     5  N    3.646925   2.302197   1.364810   2.269957   0.000000
     6  C    4.925909   3.665024   2.445683   2.773633   1.456764
     7  C    6.086747   4.730096   3.722086   4.235760   2.445736
     8  C    7.407918   6.097774   4.946836   5.192907   3.800558
     9  C    1.397355   2.465510   3.024368   2.850765   4.363283
    10  C    2.400906   3.708839   4.409326   4.196915   5.737250
    11  C    2.819533   4.212505   5.218121   5.262573   6.449846
    12  C    2.411939   3.658288   4.900291   5.263217   5.959747
    13  C    1.402778   2.384118   3.716046   4.290635   4.660011
    14  H    2.043331   1.010464   2.056414   3.161229   2.417957
    15  H    3.846643   2.460562   2.054158   3.142963   1.010130
    16  H    5.079762   3.959543   2.630639   2.563378   2.069900
    17  H    5.218057   4.054108   2.829526   2.956735   2.108777
    18  H    6.215542   4.830877   4.029587   4.735536   2.684143
    19  H    6.115980   4.770575   3.901361   4.497264   2.669114
    20  H    7.645635   6.375923   5.188402   5.341442   4.127565
    21  H    8.250337   6.900998   5.844484   6.193908   4.610418
    22  H    7.572124   6.337106   5.095447   5.136902   4.122896
    23  H    2.155443   2.733270   2.757449   2.173550   4.111803
    24  Cl   4.009790   5.075126   6.413081   6.914319   7.320949
    25  H    2.162949   2.598698   3.985919   4.799172   4.651327
    26  C    3.761101   4.938280   5.352684   4.826853   6.715300
    27  H    3.901196   5.293885   6.285376   6.268821   7.528674
    28  F    4.272808   5.305758   5.569534   4.962697   6.887898
    29  F    4.763486   6.048339   6.596197   6.129776   7.955450
    30  F    4.184503   5.162601   5.307683   4.571429   6.651166
[...]
 6911,0.00028339,-0.00002464,-0.00012346,-0.00000246,0.00000609,-0.0000
 8720,0.00003611,-0.00000263,-0.00000962,0.00000844,-0.00005461,-0.0000
 2701,0.00001610,0.00000088,0.00001196,0.00000800,0.00000408,0.00000151
 ,-0.00000695,0.00000241,-0.00000735,0.00000057,-0.00002795,0.00000603,
 0.00000018,0.00000537,-0.00000635,0.00000194,0.00014979,0.00018092,-0.
 00001143,0.10260156,0.12241561,0.00041249,-0.00060807,0.00514851,0.000
 23776,0.00016122,0.00010019,-0.00017268,-0.00006185,-0.00013562,0.0000
 5984,0.00001790,0.00005885,0.00010131,-0.00002245,-0.00000064,-0.00002
 384,-0.00002087,0.00000019,0.00000230,0.00000941,-0.00000445,0.0000006
 0,-0.00000487,0.00000118,-0.00006117,0.00019779,-0.00101516,0.00035491
 ,-0.00011173,0.00461320,0.00043419,0.00023485,0.00417216,0.00688893,0.
 00413630,-0.02341784,0.00319985,0.00243512,0.00391903,-0.00001119,0.00
 001752,0.00000452,-0.00000652,0.00001380,-0.00000956,0.00000215,0.0000
 0228,0.00000008,0.00000509,0.00000334,-0.00000200,-0.00000032,-0.00000
 041,-0.00000012,-0.00000030,-0.00000087,0.00000211,-0.00000030,0.00000
 010,0.00000030,0.00000380,-0.00000029,-0.00000029,0.00000014,0.0000014
 6,0.00000021,-0.00006252,0.00002427,-0.00059302,-0.01080822,-0.0065833
 6,0.01245263,0.00692656,-0.02283163,-0.00054117,0.00250388,-0.00155573
 ,-0.00048233,-0.00037501,-0.00047557,-0.00009425,0.00000732,0.00045289
 ,0.00004588,0.00012640,0.00005373,-0.00000416,-0.00006505,-0.00003424,
 0.00000697,0.00000951,0.00001228,-0.00000458,-0.00000014,-0.00000627,0
 .00000234,-0.00360871,-0.00290857,0.00068901,-0.00141880,-0.00031674,0
 .00005315,-0.00524902,0.00131798,0.00095930,-0.00044940,0.02921759,0.0
 0067930,-0.06410718,0.03764404,0.00306441,-0.00210329,0.00068720,0.000
 28069,-0.00005264,0.00000462,0.00003388,0.00001033,0.00000530,0.000001
 05,0.00001685,0.00000743,-0.00001080,-0.00000371,0.00000072,0.00000406
 ,-0.00000396,0.00000039,-0.00000450,0.00000139,0.00000205,-0.00000240,
 0.00000574,-0.00000105,-0.00000010,0.00000107,0.00000226,0.00000128,0.
 00045063,-0.00109034,-0.00007289,0.00049175,0.00108985,-0.00029852,0.0
 6668404,0.00578619,-0.01391349,-0.00077616,0.00215900,0.00177653,-0.00
 003588,-0.00070811,-0.00020913,-0.00000387,0.00016960,0.00055671,0.000
 04069,0.00005189,-0.00000299,0.00000438,-0.00004171,-0.00000605,0.0000
 0140,0.00000262,0.00000325,-0.00000084,-0.00000036,-0.00000279,0.00000
 016,-0.00327804,-0.00075950,0.00019348,-0.00066023,0.00070283,0.000081
 17,0.00187288,0.00150426,-0.00020214,-0.00114999,-0.00833090,-0.000082
 61,0.03963946,-0.33931020,-0.00785849,-0.00124768,-0.00020042,0.000042
 51,-0.00003264,0.00001164,0.00000577,0.00000626,0.00000215,0.00000065,
 0.00001132,0.00000246,-0.00000646,-0.00000207,0.00000186,0.00000122,-0
 .00000273,0.00000117,-0.00000189,0.00000044,0.00000082,-0.00000147,0.0
 0000363,-0.00000082,0.,0.00000041,0.00000133,0.00000115,0.00053426,-0.
 00064314,-0.00004490,-0.00037701,0.00153801,0.00013954,-0.04270761,0.3
 5764155,-0.00007974,0.00136744,0.00477999,-0.00025982,0.00058832,-0.00
 311549,-0.00009135,0.00003182,-0.00087963,-0.00002101,-0.00003028,0.00
 014640,-0.00000069,-0.00000869,0.00003130,0.00001254,-0.00001603,0.000
 09767,0.00000732,0.00000716,0.00001931,-0.00000045,-0.00000108,-0.0000
 0356,0.00057399,0.00017541,0.00524643,0.00010674,0.00000491,-0.0006869
 5,0.00098474,-0.00018061,0.00587107,0.00017727,-0.00259057,0.00239691,
 0.00320443,-0.00762605,-0.03542378,0.00000049,-0.00030007,0.00059805,0
 .00002836,0.00001465,0.00004503,0.00000763,-0.00001155,-0.00000451,-0.
 00001136,0.00000507,-0.00001095,0.00000111,-0.00000683,-0.00000431,-0.
 00000363,0.00000531,-0.00000826,0.00000389,0.00000295,-0.00000323,-0.0
 0000044,0.00000079,0.00000101,-0.00000255,-0.00000378,-0.00000069,-0.0
 0000682,0.00007577,-0.00024209,-0.00030165,0.00001651,-0.00297371,-0.0
 0429512,0.00852371,0.02421690,-0.00525232,0.00501103,0.00104971,-0.000
 77859,0.00069319,0.00006636,0.00033723,0.00320342,0.00036412,0.0005095
 1,-0.00224975,-0.00024990,0.00049637,-0.00090305,-0.00000758,-0.000183
 60,-0.00000934,0.00000103,-0.00002829,0.00004322,-0.00001038,0.0000199
 2,-0.00002658,0.00001026,0.00091548,0.02939338,-0.00131358,-0.09384478
 ,0.01895118,0.00192408,0.01257007,-0.02111474,0.00006107,-0.00226441,-
 0.00502061,0.00078753,-0.00412369,-0.00104112,0.00019412,-0.00029197,0
 .00015624,0.00008737,0.00006122,0.00004236,-0.00007311,-0.00003931,0.0
 0001158,-0.00003367,0.00001992,0.00003370,0.00001136,0.00000402,-0.000
 03279,-0.00002192,0.00000156,-0.00000153,0.00001628,-0.00001049,0.0000
 1857,0.00000507,0.00003523,-0.00002513,0.00000164,-0.00002070,0.000008
 88,-0.00001616,-0.00231498,0.00104440,0.00015897,-0.00137119,-0.002008
 55,0.00000289,-0.00031708,-0.00003881,-0.00001712,0.54628178,0.0052723
 6,-0.00009363,-0.00090860,-0.00717187,0.00087383,0.00059403,0.00721284
 ,0.00272845,-0.00037361,-0.00269778,-0.00188642,-0.00000811,-0.0030798
 1,0.00084393,-0.00001176,0.00097888,0.00055952,-0.00002231,-0.00011004
 ,-0.00021131,0.00007299,-0.00001806,0.00013916,-0.00001063,0.01274535,
 -0.00894423,-0.00102295,0.01535323,-0.21901869,0.00035672,-0.00493138,
 -0.01823901,0.00030371,-0.00528944,-0.00241960,0.00011687,-0.00154527,
 0.00385805,0.00024210,-0.00014895,-0.00025721,0.00007669,0.00014419,-0
 .00026721,0.00002904,-0.00006035,-0.00003173,-0.00001314,-0.00025106,-
 0.00009432,0.00013252,0.00001498,0.00000564,-0.00002667,0.00003389,0.0
 0000093,0.00002374,-0.00000762,-0.00001606,0.00003498,-0.00008915,0.00
 000406,0.00000448,-0.00000650,-0.00003123,-0.00003122,-0.00062469,0.00
 085588,0.00008611,0.00250657,0.00259707,-0.00014829,-0.00008941,0.0000
 3928,0.00008996,-0.01660732,0.61713300,0.00082014,-0.00084706,0.006302
 92,0.00002498,-0.00011257,-0.00010214,0.00002847,0.00012958,0.00047340
 ,-0.00003624,-0.00007386,-0.00070655,0.00005158,-0.00001115,-0.0002200
 1,-0.00002961,-0.00002119,0.00017369,0.00001164,0.00000182,0.00001036,
 -0.00000263,0.00000832,0.00001745,0.00057743,-0.00296663,-0.00163995,0
 .00204009,-0.00203416,-0.06716954,-0.00124414,0.00081311,0.00172474,0.
 00100228,0.00000087,0.00676267,0.00018356,0.00000801,-0.00107588,0.000
 03932,-0.00002214,0.00013448,0.00001447,-0.00004691,0.00013435,-0.0000
 1872,-0.00002065,-0.00000161,0.00004336,0.00001720,-0.00005829,0.00000
 077,-0.00002828,-0.00001057,-0.00000896,0.00003629,-0.00002476,0.00001
 434,0.00000785,-0.00002212,-0.00000367,0.00000375,0.00000294,-0.000011
 13,-0.00001823,-0.00000421,-0.00019631,0.00003548,-0.00200277,0.000050
 43,0.00009064,-0.00001508,0.00000323,-0.00001389,-0.00031516,-0.003226
 00,0.00601938,0.49668604,-0.00000823,-0.00027778,-0.00008640,0.0004638
 6,0.00002480,-0.00009822,-0.00015897,-0.00038840,-0.00001966,-0.000189
 00,0.00025036,0.00000445,0.00000673,0.00005259,0.00001534,0.00000512,0
 .00000524,-0.00000407,0.00000083,0.00000041,0.00000129,0.00000003,0.00
 000071,0.00000030,-0.00097172,-0.00380354,0.00055750,-0.01609853,0.008
 98862,0.00176606,-0.31562260,0.09843632,0.02525961,-0.00021408,-0.0012
 9470,0.00017371,0.00138801,-0.00010989,0.00037732,-0.00001775,0.000020
 17,0.00000381,-0.00000731,0.00000656,0.00000353,0.00000382,-0.00000137
 ,0.00000101,0.00000267,-0.00000179,-0.00000113,-0.00000097,0.00000061,
 -0.00000013,-0.00000049,0.00000083,-0.00000031,0.00000032,-0.00000017,
 0.,-0.00000059,0.00000019,0.00000002,0.,-0.00000040,0.00000002,-0.0004
 6656,0.00060144,0.00011076,0.00050710,-0.00075007,-0.00028749,0.000153
 35,-0.00006017,0.00001852,-0.00252942,0.00138780,0.00018816,0.33129975
 ,-0.00039457,-0.00127224,0.00003799,-0.00003985,0.00033387,0.00003331,
 0.00009065,-0.00024591,-0.00003903,-0.00018845,0.00019204,0.00001468,-
 0.00006870,0.00009194,-0.00000330,0.00002279,0.00000881,0.00000077,-0.
 00000005,-0.00000416,0.00000215,-0.00000089,0.00000324,-0.00000036,-0.
 00330412,-0.00280373,0.00010265,-0.01713884,0.01232278,0.00148888,0.09
 707754,-0.09412385,-0.00921123,0.02820936,-0.00695117,-0.00247871,-0.0
 0033845,-0.00526353,-0.00014681,-0.00012984,-0.00000762,0.00000458,-0.
 00000982,-0.00000553,0.00000829,0.00000059,-0.00000008,0.00000107,-0.0
 0000458,-0.00000333,0.00000202,-0.00000072,0.00000117,0.00000026,0.000
 00003,0.00000031,-0.00000022,0.00000004,-0.00000038,0.00000038,-0.0000
 0200,0.00000016,0.00000006,0.00000030,-0.00000050,-0.00000028,-0.00073
 742,0.00060563,0.00008362,0.00060487,0.00045502,-0.00000476,0.00136948
 ,-0.00025646,-0.00014095,-0.00213390,0.00061583,0.00041314,-0.10405468
 ,0.09904210,-0.00011135,0.00005048,-0.00089304,-0.00005897,0.00001873,
 -0.00058835,0.00001220,0.00005782,-0.00005987,0.00006240,-0.00003915,-
 0.00007704,0.00000603,-0.00000362,0.00005792,-0.00000129,0.00000377,0.
 00001902,0.00000152,0.00000186,0.00000167,-0.00000014,-0.00000018,0.00
 000061,0.00055314,0.00006810,0.00589030,0.00113753,-0.00072152,0.00291
 924,0.02568649,-0.00935531,-0.03562821,0.00060234,0.00000095,0.0019210
 5,0.00034080,-0.00012454,0.00546344,0.00000781,0.00001159,0.00002457,-
 0.00000464,-0.00000544,0.00002771,0.00000385,-0.00000778,-0.00000449,-
 0.00000140,0.00000295,-0.00000756,-0.00000003,-0.00000238,-0.00000099,
 -0.00000062,0.00000233,-0.00000191,0.00000114,0.00000088,-0.00000143,0
 .00000023,0.00000006,0.00000044,-0.00000080,-0.00000110,-0.00000023,0.
 00004674,-0.00005686,0.00065073,-0.00026787,0.00009263,-0.00251633,0.0
 0003658,-0.00000518,0.00041076,-0.00025408,-0.00005615,-0.00299235,-0.
 02774084,0.01027475,0.02667875,0.00010247,-0.00121895,-0.00069911,0.00
 028662,0.00007037,-0.00006776,-0.00020574,-0.00064196,0.00000149,0.000
 02400,0.00046210,-0.00005386,-0.00002174,0.00014972,-0.00002966,0.0000
 0459,-0.00001631,0.00001858,0.00001055,-0.00000362,0.00000108,-0.00000
 434,0.00000344,-0.00000092,-0.00075393,-0.00021444,0.00026102,0.010421
 24,-0.00035939,0.00212262,-0.00079170,0.00047888,-0.00057898,0.0000752
 5,0.00079529,-0.00015419,0.00081200,0.00002221,0.00001135,0.00000986,-
 0.00001418,0.00001318,-0.00001355,-0.00000917,0.00002780,0.00000712,-0
 .00000580,0.00000673,0.00000766,-0.00000284,-0.00001286,-0.00000077,0.
 00000392,0.00000461,-0.00000288,0.00000488,-0.00000657,0.00000401,-0.0
 0000304,-0.00000444,-0.00000554,0.00000562,-0.00000048,0.00000349,-0.0
 0000272,0.00000415,0.00035875,-0.00010379,0.00051540,0.00013890,0.0001
 0153,0.00005001,0.00006335,0.00001112,0.00006374,-0.07707990,-0.015958
 49,0.02935060,0.00019074,0.00032370,0.00018577,0.09275628,-0.00174223,
 0.00159368,-0.00104688,0.00207182,-0.00021892,-0.00017174,-0.00217271,
 -0.00082535,0.00017142,0.00077470,0.00057609,-0.00010581,0.00093573,-0
 .00024669,-0.00003176,-0.00030595,-0.00017485,0.00002869,0.00003588,0.
 00006426,-0.00001981,0.00000408,-0.00004061,0.00000591,-0.00197051,-0.
 00108627,-0.00012807,-0.00973232,-0.02299737,0.04127877,0.00398645,-0.
 00152552,0.00096657,0.00128102,-0.00047913,-0.00217954,-0.00058980,-0.
 00135363,0.00025247,0.00001692,0.00008276,0.00005208,-0.00004129,0.000
 07270,0.00001339,0.00001598,0.00000685,0.00000539,0.00008259,0.0000305
 4,-0.00005035,-0.00000498,-0.00000525,0.00000769,-0.00001188,0.0000049
 3,-0.00001208,0.00000471,0.00000557,-0.00001466,0.00002620,-0.00000017
 ,-0.00000098,0.00000073,0.00000678,0.00000974,0.00020764,-0.00032841,0
 .00092986,-0.00079697,-0.00096008,-0.00005757,0.00004927,-0.00001848,0
 .00005496,-0.01417717,-0.12808990,0.08255439,-0.00007827,0.00006528,0.
 00107539,0.02616642,0.12134256,0.00075504,-0.00020794,0.00051910,-0.00
 123801,0.00021979,0.00023148,0.00116919,0.00051607,-0.00025118,-0.0004
 1398,-0.00035066,0.00034101,-0.00051138,0.00011788,0.00009523,0.000163
 90,0.00010013,-0.00008098,-0.00002547,-0.00003382,0.00000809,-0.000001
 23,0.00001784,-0.00000988,0.00155202,0.00018921,0.00142188,0.00647859,
 0.01483984,-0.01379284,-0.00235036,0.00209239,-0.00034760,-0.00026390,
 0.00014190,0.00086056,-0.00007053,0.00053616,-0.00014508,-0.00004068,-
 0.00002893,-0.00010145,0.00001445,-0.00001807,-0.00006166,-0.00000376,
 0.00000373,-0.00000127,-0.00006161,-0.00002254,0.00004787,0.00000236,0
 .00001306,-0.00000086,0.00000949,-0.00001600,0.00001591,-0.00000834,-0
 .00000546,0.00001541,-0.00001094,-0.00000256,-0.00000039,0.00000285,0.
 00000359,-0.00000330,-0.00026941,0.00005753,-0.00107784,0.00047423,0.0
 0067157,0.00006493,-0.00007102,0.00003144,-0.00007671,0.02712538,0.084
 96218,-0.20695110,-0.00016947,-0.00029110,-0.00067426,-0.05859403,-0.1
 1231568,0.33943600,-0.00090851,-0.00083862,-0.00022556,-0.00032593,0.0
 0082891,-0.00000010,0.00100304,-0.00084473,-0.00017176,-0.00055023,0.0
 0058833,0.00006603,-0.00068550,0.00046665,-0.00001595,0.00021698,0.000
 08628,0.00001058,-0.00000400,-0.00005209,0.00001645,-0.00001278,0.0000
 3326,-0.00000626,0.00251510,0.00539803,0.00045479,-0.02570472,0.009045
 65,0.00801172,-0.00294434,-0.00311321,-0.00022769,0.00004214,-0.000031
 33,-0.00029610,0.00041146,0.00039771,0.00006169,-0.00018172,-0.0000258
 7,0.00001974,0.00000765,-0.00006958,0.00003398,0.00000626,-0.00001279,
 0.00001391,-0.00004238,-0.00002793,0.00000965,0.00000078,0.00001402,0.
 00000649,0.00000309,0.00000323,-0.00000670,0.00000490,-0.00001022,0.00
 000055,-0.00002930,0.00001235,0.00000010,0.00000806,-0.00000951,0.0000
 0338,0.00075822,-0.00042628,0.00000526,0.00071921,0.00062765,-0.000035
 23,0.00018636,0.00003293,-0.00000102,-0.23732544,0.07486089,0.04053919
 ,0.00199195,0.00030285,0.00010219,-0.03516395,-0.00597308,0.04675988,0
 .37501313,0.00078964,0.00034056,0.00038193,0.00181127,-0.00094575,-0.0
 0011812,-0.00201001,-0.00049773,0.00012172,0.00072273,0.00032752,-0.00
 000427,0.00091761,-0.00031702,0.00001121,-0.00028170,-0.00015058,-0.00
 000200,0.00002634,0.00006415,-0.00002131,0.00000849,-0.00004163,0.0000
 0455,-0.00295001,-0.00756031,-0.00043679,0.04352794,-0.00952258,-0.009
 65606,0.00045193,-0.00276759,-0.00049859,0.00150099,0.00168364,0.00009
 295,0.00068917,-0.00073156,-0.00018447,0.00022809,0.00005323,-0.000031
 16,-0.00003835,0.00008626,-0.00001467,0.00001282,0.00001219,-0.0000017
 2,0.00007073,0.00002964,-0.00003199,-0.00000366,-0.00000542,0.00000358
 ,-0.00000819,-0.00000167,-0.00000266,0.00000017,0.00000652,-0.00000746
 ,0.00002867,-0.00000447,-0.00000109,-0.00000099,0.00000984,0.00000569,
 -0.00025802,0.00020687,-0.00011111,-0.00065950,-0.00062696,0.00003279,
 0.00005018,-0.00008854,-0.00000639,0.06241292,-0.11020208,-0.01579382,
 0.00122008,-0.00308959,-0.00049829,-0.01511195,0.01545875,0.00663526,-
 0.07354649,0.10304401,0.00037522,0.00043584,-0.00033205,0.00006603,-0.
 00020857,-0.00007729,-0.00022349,0.00011370,-0.00001335,0.00011413,-0.
 00007605,0.00008993,0.00012638,-0.00008821,0.00003323,-0.00003707,-0.0
 0001506,-0.00002167,-0.00000026,0.00000969,-0.00000615,0.00000272,-0.0
 0000729,-0.00000173,-0.00031883,-0.00152723,0.00140994,0.00701618,-0.0
 0141235,0.00678875,0.00053695,0.00062395,0.00019894,0.00016127,-0.0000
 9627,0.00015642,-0.00023318,-0.00009081,0.00003687,0.00004539,0.000007
 64,-0.00007224,-0.00000403,0.00002146,-0.00002784,0.00000246,0.0000053
 4,-0.00000225,0.00000203,0.00000245,0.00000614,-0.00000006,0.00000190,
 0.00000058,0.00000059,-0.00000599,0.00000500,-0.00000280,0.00000042,0.
 00000314,0.00000598,-0.00000270,-0.00000064,0.00000036,0.00000451,0.00
 000020,-0.00011376,0.00003244,-0.00008462,-0.00014263,-0.00011864,0.00
 004786,-0.00003435,-0.00001326,-0.00006844,0.04011491,-0.01852007,-0.0
 8101284,-0.00014851,-0.00034128,-0.00041985,0.05913290,-0.00057445,-0.
 03528157,-0.07341559,0.01895971,0.09910733,0.00023945,-0.00037299,0.00
 083295,0.00093341,0.00005406,0.00002000,-0.00076384,-0.00131373,-0.000
 13786,0.00013883,0.00090304,0.00024298,0.00010918,0.00021907,0.0000265
 2,-0.00002871,-0.00005008,-0.00002870,0.00001878,0.00000403,-0.0000040
 2,-0.00000502,-0.00000541,-0.00000606,-0.00182489,0.00059768,0.0015424
 8,-0.00015418,-0.00758644,-0.01004641,0.00098752,-0.00064690,-0.000051
 16,0.00035672,0.00028207,0.00044461,0.00037398,-0.00019867,-0.00013577
 ,0.00000480,0.00000667,-0.00007611,-0.00003295,0.00001488,-0.00000298,
 0.00002306,0.00000085,0.00001464,0.00001022,-0.00000553,-0.00000717,-0
 .00000361,0.00001566,0.00001236,-0.00000232,-0.00000558,-0.00000430,0.
 00000233,-0.00000609,-0.00000190,-0.00000295,0.00000766,-0.00000125,0.
 00000993,0.00000289,0.00000965,0.00085782,0.00033155,-0.00082507,-0.00
 005747,-0.00021161,0.00001202,0.00011546,0.00002516,-0.00009801,-0.133
 47614,-0.06182375,-0.07020662,0.00027193,0.00054469,-0.00034472,0.0087
 6717,0.00193702,-0.02040327,-0.07900955,-0.01960091,-0.03302895,0.2021
 4105,-0.00186873,0.00195867,0.00095251,0.00231748,-0.00017398,-0.00019
 284,-0.00229043,-0.00107926,0.00004058,0.00082012,0.00074735,0.0001135
 6,0.00092769,-0.00020410,0.00003939,-0.00029406,-0.00017613,-0.0000147
 0,0.00003610,0.00006336,-0.00002337,0.00000396,-0.00004303,-0.00000074
 ,-0.00122307,-0.00137341,0.00008654,-0.03107717,-0.02458944,-0.0311351
 7,0.00490064,-0.00384716,-0.00215019,0.00073572,-0.00058157,0.00177603
 ,-0.00062680,-0.00119729,-0.00016687,0.00001800,0.00009483,-0.00006590
 ,-0.00005119,0.00008681,-0.00002318,0.00002570,0.00000999,0.00000854,0
 .00007195,0.00002530,-0.00003626,-0.00000514,0.00000526,0.00001209,-0.
 00001007,-0.00000462,-0.00000622,0.00000162,0.00000245,-0.00000919,0.0
 0002577,0.00000057,-0.00000182,0.00000545,0.00001145,0.00001247,-0.000
 04580,-0.00035721,-0.00067279,-0.00086964,-0.00124531,0.00019768,0.000
 04988,-0.00004093,-0.00004186,-0.05563366,-0.14045201,-0.06812927,-0.0
 0017550,0.00028991,-0.00078478,0.00506749,0.01903987,0.00214320,-0.007
 71701,0.01523031,0.00287917,0.08688071,0.13779931,-0.00066362,0.000146
 60,0.00014966,0.00103380,-0.00006684,0.00003522,-0.00090753,-0.0007137
 6,-0.00015765,0.00030659,0.00048095,0.00031076,0.00030367,-0.00001299,
 0.00007965,-0.00008355,-0.00005961,-0.00005658,0.00001330,0.00002033,-
 0.00001160,0.00000101,-0.00001620,-0.00000621,-0.00109901,0.00049994,0
 .00136300,-0.01321122,-0.01043867,-0.00267040,0.00218537,-0.00299202,-
 0.00076555,-0.00052252,0.00028499,0.00026666,0.00035512,-0.00026065,-0
 .00008855,0.00001504,0.00002942,-0.00009439,-0.00002698,0.00004045,-0.
 00004158,0.00001965,0.00001068,0.00000448,0.00001349,0.00000327,0.0000
 0416,-0.00000216,0.00001277,0.00000962,-0.00000092,-0.00001345,0.00000
 365,-0.00000272,-0.00000280,0.00000331,0.00000745,0.00000137,-0.000001
 68,0.00000725,0.00000889,0.00000653,0.00023588,-0.00020324,-0.00056871
 ,-0.00031896,-0.00060526,0.00009786,0.00005506,-0.00002024,-0.00004334
 ,-0.06675866,-0.07199198,-0.14809812,0.00007481,0.00018941,-0.00020030
 ,-0.03156816,-0.01069733,-0.08419952,-0.02171360,0.00117257,0.00953821
 ,0.13225213,0.09519339,0.22513142\\0.00000624,-0.00000234,0.00000857,-
 0.00000078,0.00000985,-0.00001207,-0.00000623,-0.00001514,-0.00000163,
 0.00000514,0.00001298,-0.00000197,-0.00000862,-0.00001070,0.00000992,0
 .00000497,0.00000324,-0.00000235,-0.00000091,0.00000347,-0.00000168,-0
 .00000122,-0.00000003,0.00000003,-0.00000147,0.00000360,0.00000230,0.0
 0000352,0.00000296,-0.00000002,-0.00000393,-0.00000282,0.00000124,0.00
 000998,0.00000561,0.00000100,-0.00001359,-0.00000103,-0.00000042,0.000
 00204,-0.00000147,0.00000213,0.00000443,0.00000012,-0.00000011,0.00000
 086,-0.00000035,-0.00000137,-0.00000105,-0.00000068,0.00000041,0.00000
 066,-0.00000417,0.00000170,-0.00000068,0.00000004,0.00000084,-0.000000
 55,-0.00000066,-0.00000061,-0.00000020,-0.00000092,-0.00000067,0.00000
 056,-0.00000038,-0.00000095,-0.00000219,-0.00000038,-0.00000285,-0.000
 00334,-0.00000141,0.00000216,0.00000500,0.00000048,0.00000417,-0.00000
 154,-0.00000930,-0.00000271,0.00000021,0.00000019,-0.00000038,0.000000
 19,0.00000267,-0.00000344,-0.00000087,0.00000244,-0.00000116,0.0000033
 9,0.00000413,-0.00000010\\\@


 A BIRD IN THE HAND IS SAFER THAN ONE OVERHEAD.

                       -- NEWTON'S SEVENTH LAW
 Job cpu time:       0 days  3 hours 36 minutes 47.9 seconds.
 Elapsed time:       0 days  3 hours 36 minutes 48.7 seconds.
 File lengths (MBytes):  RWF=    695 Int=      0 D2E=      0 Chk=     27 Scr=      1
 Normal termination of Gaussian 16 at Tue Sep 15 14:41:09 2020.
