 Entering Gaussian System, Link 0=/apps/gaussian/g16c01/g16/g16
 Initial command:
 /apps/gaussian/g16c01/g16/l1.exe "/jobfs/11271680.gadi-pbs/Gau-1888288.inp" -scrdir="/jobfs/11271680.gadi-pbs/"
 Entering Link 1 = /apps/gaussian/g16c01/g16/l1.exe PID=   1888291.
  
 Copyright (c) 1988-2019, Gaussian, Inc.  All Rights Reserved.
  
 This is part of the Gaussian(R) 16 program.  It is based on
 the Gaussian(R) 09 system (copyright 2009, Gaussian, Inc.),
 the Gaussian(R) 03 system (copyright 2003, Gaussian, Inc.),
 the Gaussian(R) 98 system (copyright 1998, Gaussian, Inc.),
 the Gaussian(R) 94 system (copyright 1995, Gaussian, Inc.),
 the Gaussian 92(TM) system (copyright 1992, Gaussian, Inc.),
 the Gaussian 90(TM) system (copyright 1990, Gaussian, Inc.),
 the Gaussian 88(TM) system (copyright 1988, Gaussian, Inc.),
 the Gaussian 86(TM) system (copyright 1986, Carnegie Mellon
 University), and the Gaussian 82(TM) system (copyright 1983,
 Carnegie Mellon University). Gaussian is a federally registered
 trademark of Gaussian, Inc.
  
 This software contains proprietary and confidential information,
 including trade secrets, belonging to Gaussian, Inc.
  
 This software is provided under written license and may be
 used, copied, transmitted, or stored only in accord with that
 written license.
  
 The following legend is applicable only to US Government
 contracts under FAR:
  
                    RESTRICTED RIGHTS LEGEND
  
 Use, reproduction and disclosure by the US Government is
 subject to restrictions as set forth in subparagraphs (a)
 and (c) of the Commercial Computer Software - Restricted
 Rights clause in FAR 52.227-19.
  
 Gaussian, Inc.
 340 Quinnipiac St., Bldg. 40, Wallingford CT 06492
  
  
 ---------------------------------------------------------------
 Warning -- This program may not be used in any manner that
 competes with the business of Gaussian, Inc. or will provide
 assistance to any competitor of Gaussian, Inc.  The licensee
 of this program is prohibited from giving any competitor of
 Gaussian, Inc. access to this program.  By using this program,
 the user acknowledges that Gaussian, Inc. is engaged in the
 business of creating and licensing software in the field of
 computational chemistry and represents and warrants to the
 licensee that it is not a competitor of Gaussian, Inc. and that
 it will not use this program in any manner prohibited above.
 ---------------------------------------------------------------
  

 Cite this work as:
 Gaussian 16, Revision C.01,
 M. J. Frisch, G. W. Trucks, H. B. Schlegel, G. E. Scuseria, 
 M. A. Robb, J. R. Cheeseman, G. Scalmani, V. Barone, 
 G. A. Petersson, H. Nakatsuji, X. Li, M. Caricato, A. V. Marenich, 
 J. Bloino, B. G. Janesko, R. Gomperts, B. Mennucci, H. P. Hratchian, 
 J. V. Ortiz, A. F. Izmaylov, J. L. Sonnenberg, D. Williams-Young, 
 F. Ding, F. Lipparini, F. Egidi, J. Goings, B. Peng, A. Petrone, 
 T. Henderson, D. Ranasinghe, V. G. Zakrzewski, J. Gao, N. Rega, 
 G. Zheng, W. Liang, M. Hada, M. Ehara, K. Toyota, R. Fukuda, 
 J. Hasegawa, M. Ishida, T. Nakajima, Y. Honda, O. Kitao, H. Nakai, 
 T. Vreven, K. Throssell, J. A. Montgomery, Jr., J. E. Peralta, 
 F. Ogliaro, M. J. Bearpark, J. J. Heyd, E. N. Brothers, K. N. Kudin, 
 V. N. Staroverov, T. A. Keith, R. Kobayashi, J. Normand, 
 K. Raghavachari, A. P. Rendell, J. C. Burant, S. S. Iyengar, 
 J. Tomasi, M. Cossi, J. M. Millam, M. Klene, C. Adamo, R. Cammi, 
 J. W. Ochterski, R. L. Martin, K. Morokuma, O. Farkas, 
 J. B. Foresman, and D. J. Fox, Gaussian, Inc., Wallingford CT, 2019.
 
 ******************************************
 Gaussian 16:  ES64L-G16RevC.01  3-Jul-2019
                15-Sep-2020 
 ******************************************
 %NprocShared=6
 Will use up to    6 processors via shared memory.
 %Mem=16000MB
 %chk=NM3_c2.M062X_6-311pGd_opt_GD3.chk
 ----------------------------------------------------------------------
 # M062X/6-311+G* SCF=Tight INT(grid=ultrafine) OPT IOP(2/17=4) Empiric
 alDispersion=GD3 MaxDisk=10000MB
 ----------------------------------------------------------------------
 1/18=20,19=15,26=4,38=1/1,3;
 2/9=110,12=2,17=4,18=5,40=1/2;
 3/5=4,6=6,7=11,11=2,25=1,30=1,71=1,74=-55,75=-5,124=31/1,2,3;
 4//1;
 5/5=2,32=2,38=5/2;
 6/7=2,8=2,9=2,10=2,28=1/1;
 7//1,2,3,16;
 1/18=20,19=15,26=4/3(2);
 2/9=110,17=4/2;
 99//99;
 2/9=110,17=4/2;
 3/5=4,6=6,7=11,11=2,25=1,30=1,71=1,74=-55,75=-5,124=31/1,2,3;
 4/5=5,16=3,69=1/1;
 5/5=2,32=2,38=5/2;
 7//1,2,3,16;
 1/18=20,19=15,26=4/3(-5);
 2/9=110,17=4/2;
 6/7=2,8=2,9=2,10=2,19=2,28=1/1;
 99/9=1/99;
 -----------------------------
 NM3_c2.M062X_6-311pGd_opt_GD3
 -----------------------------
 Symbolic Z-matrix:
 Charge =  0 Multiplicity = 1
 C                    -5.99176   1.40374   0.21975 
 N                    -4.75785   0.74606   0.193 
 C                    -3.50008   1.31934   0.02907 
 O                    -3.31611   2.50386  -0.14456 
 N                    -2.48202   0.39953   0.05436 
 C                    -1.10369   0.87202   0.01244 
 C                    -0.14688  -0.29685  -0.16994 
 C                     1.30396   0.17117  -0.22423 
 C                    -7.14075   0.60545   0.22784 
 C                    -8.39346   1.19376   0.27137 
 C                    -8.54814   2.57368   0.30996 
 C                    -7.39635   3.34575   0.30116 
 C                    -6.1226    2.79581   0.25695 
 H                    -4.80937  -0.2597    0.13332 
 H                    -2.64103  -0.47544   0.53283 
 H                    -0.85948   1.43235   0.92272 
 H                    -1.01995   1.57041  -0.82168 
 H                    -0.40808  -0.83125  -1.08809 
 H                    -0.2716   -1.00667   0.65655 
 H                     1.46182   0.86224  -1.05551 
 H                     1.98613  -0.66981  -0.35655 
 H                     1.58687   0.68817   0.69579 
 H                    -7.05539  -0.4754    0.19322 
 Cl                   -7.55001   5.07889   0.34255 
 H                    -5.25113   3.43167   0.24018 
 C                    -9.61116   0.31617   0.34245 
 H                    -9.52743   3.03301   0.3369 
 F                    -9.94284   0.03639   1.61405 
 F                    -10.67996   0.89299  -0.21922 
 F                    -9.41932  -0.86031  -0.2726 
 

 GradGradGradGradGradGradGradGradGradGradGradGradGradGradGradGradGradGrad
 Berny optimization.
 Initialization pass.
                           ----------------------------
                           !    Initial Parameters    !
                           ! (Angstroms and Degrees)  !
 --------------------------                            --------------------------
 ! Name  Definition              Value          Derivative Info.                !
 --------------------------------------------------------------------------------
 ! R1    R(1,2)                  1.3985         estimate D2E/DX2                !
 ! R2    R(1,9)                  1.3991         estimate D2E/DX2                !
 ! R3    R(1,13)                 1.3987         estimate D2E/DX2                !
 ! R4    R(2,3)                  1.3919         estimate D2E/DX2                !
 ! R5    R(2,14)                 1.0089         estimate D2E/DX2                !
 ! R6    R(3,4)                  1.2112         estimate D2E/DX2                !
 ! R7    R(3,5)                  1.3723         estimate D2E/DX2                !
 ! R8    R(5,6)                  1.4577         estimate D2E/DX2                !
 ! R9    R(5,15)                 1.0098         estimate D2E/DX2                !
 ! R10   R(6,7)                  1.5215         estimate D2E/DX2                !
 ! R11   R(6,16)                 1.0965         estimate D2E/DX2                !
 ! R12   R(6,17)                 1.0911         estimate D2E/DX2                !
 ! R13   R(7,8)                  1.5254         estimate D2E/DX2                !
 ! R14   R(7,18)                 1.094          estimate D2E/DX2                !
 ! R15   R(7,19)                 1.0966         estimate D2E/DX2                !
 ! R16   R(8,20)                 1.0925         estimate D2E/DX2                !
 ! R17   R(8,21)                 1.0909         estimate D2E/DX2                !
 ! R18   R(8,22)                 1.0926         estimate D2E/DX2                !
 ! R19   R(9,10)                 1.3847         estimate D2E/DX2                !
 ! R20   R(9,23)                 1.0848         estimate D2E/DX2                !
 ! R21   R(10,11)                1.3891         estimate D2E/DX2                !
 ! R22   R(10,26)                1.5027         estimate D2E/DX2                !
 ! R23   R(11,12)                1.3866         estimate D2E/DX2                !
 ! R24   R(11,27)                1.082          estimate D2E/DX2                !
 ! R25   R(12,13)                1.3881         estimate D2E/DX2                !
 ! R26   R(12,24)                1.7404         estimate D2E/DX2                !
 ! R27   R(13,25)                1.0789         estimate D2E/DX2                !
 ! R28   R(26,28)                1.3436         estimate D2E/DX2                !
 ! R29   R(26,29)                1.3381         estimate D2E/DX2                !
 ! R30   R(26,30)                1.3413         estimate D2E/DX2                !
 ! A1    A(2,1,9)              117.1528         estimate D2E/DX2                !
 ! A2    A(2,1,13)             123.4422         estimate D2E/DX2                !
 ! A3    A(9,1,13)             119.3988         estimate D2E/DX2                !
 ! A4    A(1,2,3)              127.2888         estimate D2E/DX2                !
 ! A5    A(1,2,14)             115.1452         estimate D2E/DX2                !
 ! A6    A(3,2,14)             116.7289         estimate D2E/DX2                !
 ! A7    A(2,3,4)              123.8416         estimate D2E/DX2                !
 ! A8    A(2,3,5)              113.088          estimate D2E/DX2                !
 ! A9    A(4,3,5)              123.0558         estimate D2E/DX2                !
 ! A10   A(3,5,6)              118.9275         estimate D2E/DX2                !
 ! A11   A(3,5,15)             118.2085         estimate D2E/DX2                !
 ! A12   A(6,5,15)             116.3185         estimate D2E/DX2                !
 ! A13   A(5,6,7)              110.4297         estimate D2E/DX2                !
 ! A14   A(5,6,16)             110.6331         estimate D2E/DX2                !
 ! A15   A(5,6,17)             107.5798         estimate D2E/DX2                !
 ! A16   A(7,6,16)             110.6121         estimate D2E/DX2                !
 ! A17   A(7,6,17)             110.5987         estimate D2E/DX2                !
 ! A18   A(16,6,17)            106.8861         estimate D2E/DX2                !
 ! A19   A(6,7,8)              111.5107         estimate D2E/DX2                !
 ! A20   A(6,7,18)             109.0097         estimate D2E/DX2                !
 ! A21   A(6,7,19)             109.5977         estimate D2E/DX2                !
 ! A22   A(8,7,18)             110.3093         estimate D2E/DX2                !
 ! A23   A(8,7,19)             109.4874         estimate D2E/DX2                !
 ! A24   A(18,7,19)            106.8095         estimate D2E/DX2                !
 ! A25   A(7,8,20)             111.0133         estimate D2E/DX2                !
 ! A26   A(7,8,21)             111.2564         estimate D2E/DX2                !
 ! A27   A(7,8,22)             111.1914         estimate D2E/DX2                !
 ! A28   A(20,8,21)            107.7579         estimate D2E/DX2                !
 ! A29   A(20,8,22)            107.6966         estimate D2E/DX2                !
 ! A30   A(21,8,22)            107.7581         estimate D2E/DX2                !
 ! A31   A(1,9,10)             120.0487         estimate D2E/DX2                !
 ! A32   A(1,9,23)             120.2451         estimate D2E/DX2                !
 ! A33   A(10,9,23)            119.7048         estimate D2E/DX2                !
 ! A34   A(9,10,11)            121.5795         estimate D2E/DX2                !
 ! A35   A(9,10,26)            119.1103         estimate D2E/DX2                !
 ! A36   A(11,10,26)           119.2492         estimate D2E/DX2                !
 ! A37   A(10,11,12)           117.4155         estimate D2E/DX2                !
 ! A38   A(10,11,27)           121.5469         estimate D2E/DX2                !
 ! A39   A(12,11,27)           121.0353         estimate D2E/DX2                !
 ! A40   A(11,12,13)           122.8073         estimate D2E/DX2                !
 ! A41   A(11,12,24)           118.7489         estimate D2E/DX2                !
 ! A42   A(13,12,24)           118.4436         estimate D2E/DX2                !
 ! A43   A(1,13,12)            118.7501         estimate D2E/DX2                !
 ! A44   A(1,13,25)            120.7027         estimate D2E/DX2                !
 ! A45   A(12,13,25)           120.5435         estimate D2E/DX2                !
 ! A46   A(10,26,28)           111.4956         estimate D2E/DX2                !
 ! A47   A(10,26,29)           112.065          estimate D2E/DX2                !
 ! A48   A(10,26,30)           112.0027         estimate D2E/DX2                !
 ! A49   A(28,26,29)           106.8486         estimate D2E/DX2                !
 ! A50   A(28,26,30)           106.6559         estimate D2E/DX2                !
 ! A51   A(29,26,30)           107.4491         estimate D2E/DX2                !
 ! D1    D(9,1,2,3)            172.1394         estimate D2E/DX2                !
 ! D2    D(9,1,2,14)             3.042          estimate D2E/DX2                !
 ! D3    D(13,1,2,3)            -8.7739         estimate D2E/DX2                !
 ! D4    D(13,1,2,14)         -177.8712         estimate D2E/DX2                !
 ! D5    D(2,1,9,10)           179.1723         estimate D2E/DX2                !
 ! D6    D(2,1,9,23)            -1.2484         estimate D2E/DX2                !
 ! D7    D(13,1,9,10)            0.0469         estimate D2E/DX2                !
 ! D8    D(13,1,9,23)          179.6262         estimate D2E/DX2                !
 ! D9    D(2,1,13,12)         -179.0613         estimate D2E/DX2                !
 ! D10   D(2,1,13,25)            1.6347         estimate D2E/DX2                !
 ! D11   D(9,1,13,12)            0.006          estimate D2E/DX2                !
 ! D12   D(9,1,13,25)         -179.298          estimate D2E/DX2                !
 ! D13   D(1,2,3,4)             -1.6201         estimate D2E/DX2                !
 ! D14   D(1,2,3,5)            179.7338         estimate D2E/DX2                !
 ! D15   D(14,2,3,4)           167.3279         estimate D2E/DX2                !
 ! D16   D(14,2,3,5)           -11.3182         estimate D2E/DX2                !
 ! D17   D(2,3,5,6)           -174.6567         estimate D2E/DX2                !
 ! D18   D(2,3,5,15)           -24.05           estimate D2E/DX2                !
 ! D19   D(4,3,5,6)              6.685          estimate D2E/DX2                !
 ! D20   D(4,3,5,15)           157.2917         estimate D2E/DX2                !
 ! D21   D(3,5,6,7)           -171.148          estimate D2E/DX2                !
 ! D22   D(3,5,6,16)            66.0545         estimate D2E/DX2                !
 ! D23   D(3,5,6,17)           -50.3614         estimate D2E/DX2                !
 ! D24   D(15,5,6,7)            37.7025         estimate D2E/DX2                !
 ! D25   D(15,5,6,16)          -85.095          estimate D2E/DX2                !
 ! D26   D(15,5,6,17)          158.4892         estimate D2E/DX2                !
 ! D27   D(5,6,7,8)            179.7131         estimate D2E/DX2                !
 ! D28   D(5,6,7,18)            57.6822         estimate D2E/DX2                !
 ! D29   D(5,6,7,19)           -58.891          estimate D2E/DX2                !
 ! D30   D(16,6,7,8)           -57.4772         estimate D2E/DX2                !
 ! D31   D(16,6,7,18)         -179.508          estimate D2E/DX2                !
 ! D32   D(16,6,7,19)           63.9187         estimate D2E/DX2                !
 ! D33   D(17,6,7,8)            60.7453         estimate D2E/DX2                !
 ! D34   D(17,6,7,18)          -61.2856         estimate D2E/DX2                !
 ! D35   D(17,6,7,19)         -177.8589         estimate D2E/DX2                !
 ! D36   D(6,7,8,20)           -59.9139         estimate D2E/DX2                !
 ! D37   D(6,7,8,21)          -179.9142         estimate D2E/DX2                !
 ! D38   D(6,7,8,22)            59.9655         estimate D2E/DX2                !
 ! D39   D(18,7,8,20)           61.3638         estimate D2E/DX2                !
 ! D40   D(18,7,8,21)          -58.6365         estimate D2E/DX2                !
 ! D41   D(18,7,8,22)         -178.7568         estimate D2E/DX2                !
 ! D42   D(19,7,8,20)          178.6261         estimate D2E/DX2                !
 ! D43   D(19,7,8,21)           58.6259         estimate D2E/DX2                !
 ! D44   D(19,7,8,22)          -61.4944         estimate D2E/DX2                !
 ! D45   D(1,9,10,11)           -0.1024         estimate D2E/DX2                !
 ! D46   D(1,9,10,26)         -177.2398         estimate D2E/DX2                !
 ! D47   D(23,9,10,11)        -179.684          estimate D2E/DX2                !
 ! D48   D(23,9,10,26)           3.1786         estimate D2E/DX2                !
 ! D49   D(9,10,11,12)           0.0999         estimate D2E/DX2                !
 ! D50   D(9,10,11,27)         179.5609         estimate D2E/DX2                !
 ! D51   D(26,10,11,12)        177.2335         estimate D2E/DX2                !
 ! D52   D(26,10,11,27)         -3.3055         estimate D2E/DX2                !
 ! D53   D(9,10,26,28)          89.0378         estimate D2E/DX2                !
 ! D54   D(9,10,26,29)        -151.242          estimate D2E/DX2                !
 ! D55   D(9,10,26,30)         -30.3938         estimate D2E/DX2                !
 ! D56   D(11,10,26,28)        -88.1672         estimate D2E/DX2                !
 ! D57   D(11,10,26,29)         31.5529         estimate D2E/DX2                !
 ! D58   D(11,10,26,30)        152.4011         estimate D2E/DX2                !
 ! D59   D(10,11,12,13)         -0.0456         estimate D2E/DX2                !
 ! D60   D(10,11,12,24)        179.7719         estimate D2E/DX2                !
 ! D61   D(27,11,12,13)       -179.5096         estimate D2E/DX2                !
 ! D62   D(27,11,12,24)          0.3079         estimate D2E/DX2                !
 ! D63   D(11,12,13,1)          -0.0061         estimate D2E/DX2                !
 ! D64   D(11,12,13,25)        179.299          estimate D2E/DX2                !
 ! D65   D(24,12,13,1)        -179.8241         estimate D2E/DX2                !
 ! D66   D(24,12,13,25)         -0.519          estimate D2E/DX2                !
 --------------------------------------------------------------------------------
 Trust Radius=3.00D-01 FncErr=1.00D-07 GrdErr=1.00D-06 EigMax=2.50D+02 EigMin=1.00D-04
 Number of steps in this run=    157 maximum allowed number of steps=    180.
 GradGradGradGradGradGradGradGradGradGradGradGradGradGradGradGradGradGrad

                          Input orientation:                          
 ---------------------------------------------------------------------
 Center     Atomic      Atomic             Coordinates (Angstroms)
 Number     Number       Type             X           Y           Z
 ---------------------------------------------------------------------
      1          6           0       -5.991756    1.403744    0.219746
      2          7           0       -4.757854    0.746065    0.192997
      3          6           0       -3.500083    1.319336    0.029072
      4          8           0       -3.316108    2.503865   -0.144556
      5          7           0       -2.482023    0.399530    0.054365
      6          6           0       -1.103694    0.872024    0.012444
      7          6           0       -0.146882   -0.296846   -0.169936
      8          6           0        1.303961    0.171166   -0.224226
      9          6           0       -7.140750    0.605455    0.227838
     10          6           0       -8.393462    1.193758    0.271367
     11          6           0       -8.548143    2.573676    0.309961
     12          6           0       -7.396353    3.345747    0.301156
     13          6           0       -6.122599    2.795806    0.256951
     14          1           0       -4.809374   -0.259700    0.133324
     15          1           0       -2.641025   -0.475443    0.532826
     16          1           0       -0.859478    1.432352    0.922720
     17          1           0       -1.019951    1.570410   -0.821677
     18          1           0       -0.408083   -0.831251   -1.088091
     19          1           0       -0.271604   -1.006671    0.656547
     20          1           0        1.461817    0.862239   -1.055507
     21          1           0        1.986128   -0.669812   -0.356546
     22          1           0        1.586869    0.688174    0.695785
     23          1           0       -7.055390   -0.475399    0.193225
     24         17           0       -7.550013    5.078889    0.342553
     25          1           0       -5.251129    3.431665    0.240184
     26          6           0       -9.611161    0.316173    0.342448
     27          1           0       -9.527427    3.033012    0.336904
     28          9           0       -9.942844    0.036386    1.614052
     29          9           0      -10.679963    0.892994   -0.219224
     30          9           0       -9.419318   -0.860314   -0.272602
 ---------------------------------------------------------------------
                    Distance matrix (angstroms):
                    1          2          3          4          5
     1  C    0.000000
     2  N    1.398489   0.000000
     3  C    2.500383   1.391940   0.000000
     4  O    2.915832   2.298355   1.211240   0.000000
     5  N    3.654315   2.306233   1.372271   2.272331   0.000000
     6  C    4.921265   3.660786   2.437836   2.753603   1.457669
     7  C    6.099706   4.741355   3.727681   4.229494   2.447067
     8  C    7.412412   6.103293   4.945836   5.176183   3.803083
     9  C    1.399114   2.387295   3.715318   4.286085   4.666501
    10  C    2.411421   3.663907   4.900982   5.260123   5.968500
    11  C    2.812827   4.209529   5.209143   5.252204   6.449035
    12  C    2.398102   3.705634   4.400147   4.189967   5.735132
    13  C    1.398692   2.463343   3.018192   2.850058   4.363137
    14  H    2.042681   1.008850   2.053890   3.153467   2.420202
    15  H    3.854447   2.467495   2.052555   3.129035   1.009844
    16  H    5.180276   4.025024   2.790013   2.884830   2.110311
    17  H    5.082439   3.959928   2.633984   2.569468   2.067865
    18  H    6.154921   4.801002   3.928555   4.524364   2.668568
    19  H    6.222623   4.838740   4.028289   4.715361   2.688118
    20  H    7.581244   6.344807   5.099579   5.133550   4.123081
    21  H    8.263074   6.912887   5.848412   6.183112   4.612669
    22  H    7.627202   6.364877   5.169135   5.295478   4.129240
    23  H    2.159445   2.602046   3.986004   4.792947   4.658376
    24  Cl   3.993736   5.156731   5.534838   4.979355   6.903909
    25  H    2.159030   2.730933   2.751847   2.180171   4.110513
    26  C    3.781264   4.874600   6.200791   6.682130   7.135442
    27  H    3.894767   5.291471   6.273780   6.252383   7.526803
    28  F    4.407364   5.422837   6.757758   7.286617   7.630750
    29  F    4.736333   5.938257   7.196811   7.538358   8.217334
    30  F    4.137216   4.952422   6.315000   6.970171   7.058341
                    6          7          8          9         10
     6  C    0.000000
     7  C    1.521516   0.000000
     8  C    2.518734   1.525427   0.000000
     9  C    6.046776   7.063042   8.467947   0.000000
    10  C    7.301456   8.391825   9.763776   1.384659   0.000000
    11  C    7.642248   8.891085  10.154869   2.421032   1.389097
    12  C    6.767586   8.126823   9.276285   2.753164   2.371955
    13  C    5.380532   6.742101   7.891392   2.415599   2.779134
    14  H    3.876529   4.672492   6.138921   2.488522   3.870050
    15  H    2.109468   2.597407   4.068679   4.637767   5.995425
    16  H    1.096455   2.166061   2.754369   6.373460   7.565850
    17  H    1.091106   2.161865   2.777661   6.284649   7.463597
    18  H    2.143875   1.093994   2.163839   7.008894   8.349554
    19  H    2.153309   1.096578   2.155335   7.068798   8.423469
    20  H    2.778932   2.171549   1.092487   8.701556   9.949725
    21  H    3.472811   2.173398   1.090919   9.234052  10.564235
    22  H    2.782065   2.173852   1.092591   8.740547  10.002138
    23  H    6.104991   6.920351   8.394705   1.084772   2.140707
    24  Cl   7.704655   9.163379  10.139025   4.493581   3.976269
    25  H    4.879021   6.334298   7.335921   3.399748   3.857908
    26  C    8.531990   9.497942  10.930784   2.489929   1.502664
    27  H    8.702553   9.966919  11.217130   3.406047   2.161719
    28  F    9.021863   9.962657  11.396844   3.177603   2.354336
    29  F    9.579094  10.600187  12.005645   3.578907   2.357802
    30  F    8.498933   9.290109  10.772884   2.755139   2.359554
                   11         12         13         14         15
    11  C    0.000000
    12  C    1.386647   0.000000
    13  C    2.436271   1.388106   0.000000
    14  H    4.694424   4.440707   3.328057   0.000000
    15  H    6.651379   6.104778   4.785241   2.215374   0.000000
    16  H    7.797029   6.839456   5.477471   4.368966   2.639244
    17  H    7.678595   6.713500   5.357429   4.315212   2.940761
    18  H    8.933569   8.259131   6.900752   4.603247   2.782086
    19  H    9.024417   8.356548   6.989467   4.628508   2.431392
    20  H   10.246601   9.299222   7.936284   6.480733   4.598425
    21  H   11.042433  10.226839   8.839589   6.825468   4.715857
    22  H   10.316126   9.376391   8.004411   6.490513   4.388126
    23  H    3.396881   3.837846   3.402197   2.257145   4.427408
    24  Cl   2.696927   1.740432   2.693938   6.004616   7.415185
    25  H    3.407538   2.147810   1.078915   3.719240   4.707842
    26  C    2.495472   3.753051   4.280882   4.840715   7.017527
    27  H    1.081995   2.154195   3.414017   5.757033   7.731117
    28  F    3.175482   4.377235   4.904120   5.350957   7.399161
    29  F    2.765753   4.131451   4.961553   5.993064   8.189184
    30  F    3.590350   4.702397   4.951363   4.666594   6.836820
                   16         17         18         19         20
    16  H    0.000000
    17  H    1.757195   0.000000
    18  H    3.061213   2.492657   0.000000
    19  H    2.522951   3.063743   1.758739   0.000000
    20  H    3.102713   2.591401   2.522994   3.070620   0.000000
    21  H    3.762060   3.777758   2.508679   2.497436   1.763697
    22  H    2.567084   3.142697   3.077451   2.515544   1.764358
    23  H    6.523879   6.453053   6.779018   6.820313   8.711569
    24  Cl   7.641797   7.503770   9.379960   9.492516  10.047278
    25  H    4.873366   4.742856   6.587250   6.683402   7.303726
    26  C    8.841635   8.759976   9.384011   9.438003  11.174225
    27  H    8.833947   8.709688  10.006277  10.104033  11.287806
    28  F    9.215975   9.375715   9.948168   9.774337  11.742014
    29  F    9.901357   9.702458  10.451769  10.616480  12.170586
    30  F    8.941811   8.761238   9.048106   9.195946  11.044422
                   21         22         23         24         25
    21  H    0.000000
    22  H    1.763784   0.000000
    23  H    9.060303   8.734707   0.000000
    24  Cl  11.156804  10.143262   5.578267   0.000000
    25  H    8.340029   7.381906   4.303802   2.829963   0.000000
    26  C   11.660097  11.209777   2.679705   5.189585   5.359722
    27  H   12.114195  11.364623   4.294247   2.845314   4.295929
    28  F   12.111249  11.584573   3.258537   5.724438   5.952111
    29  F   12.762880  12.302617   3.896171   5.256796   6.010670
    30  F   11.407346  11.156691   2.439941   6.256744   6.004818
                   26         27         28         29         30
    26  C    0.000000
    27  H    2.718134   0.000000
    28  F    1.343604   3.283816   0.000000
    29  F    1.338110   2.493450   2.153607   0.000000
    30  F    1.341347   3.942229   2.153512   2.160131   0.000000
 Stoichiometry    C11H12ClF3N2O
 Framework group  C1[X(C11H12ClF3N2O)]
 Deg. of freedom    84
 Full point group                 C1      NOp   1
 Largest Abelian subgroup         C1      NOp   1
 Largest concise Abelian subgroup C1      NOp   1
                         Standard orientation:                         
 ---------------------------------------------------------------------
 Center     Atomic      Atomic             Coordinates (Angstroms)
 Number     Number       Type             X           Y           Z
 ---------------------------------------------------------------------
      1          6           0       -0.136200   -0.056761    0.030045
      2          7           0        1.163368   -0.571491    0.074173
      3          6           0        2.355755    0.138752   -0.031971
      4          8           0        2.414557    1.335406   -0.209911
      5          7           0        3.467815   -0.660422    0.056181
      6          6           0        4.784775   -0.036014    0.079224
      7          6           0        5.874810   -1.090799   -0.040208
      8          6           0        7.264874   -0.462754   -0.025756
      9          6           0       -1.187292   -0.979270   -0.011215
     10          6           0       -2.498622   -0.535492   -0.038731
     11          6           0       -2.808849    0.818444   -0.024361
     12          6           0       -1.752006    1.715212    0.016641
     13          6           0       -0.424061    1.311916    0.044104
     14          1           0        1.228124   -1.576999    0.023801
     15          1           0        3.383196   -1.544866    0.536164
     16          1           0        4.916837    0.553662    0.994131
     17          1           0        4.833054    0.662375   -0.757695
     18          1           0        5.723397   -1.656677   -0.964156
     19          1           0        5.787547   -1.805214    0.787125
     20          1           0        7.387370    0.236729   -0.855964
     21          1           0        8.042997   -1.222359   -0.113103
     22          1           0        7.439681    0.088292    0.901361
     23          1           0       -0.979594   -2.043829   -0.028679
     24         17           0       -2.100969    3.420251    0.029700
     25          1           0        0.370301    2.041734    0.064426
     26          6           0       -3.612284   -1.544150   -0.019668
     27          1           0       -3.833525    1.164761   -0.052939
     28          9           0       -3.976342   -1.851916    1.236522
     29          9           0       -4.708279   -1.094684   -0.642012
     30          9           0       -3.257940   -2.695205   -0.610198
 ---------------------------------------------------------------------
 Rotational constants (GHZ):           0.5801258           0.1449030           0.1186651
 Standard basis: 6-311+G(d) (5D, 7F)
 There are   458 symmetry adapted cartesian basis functions of A   symmetry.
 There are   440 symmetry adapted basis functions of A   symmetry.
   440 basis functions,   725 primitive gaussians,   458 cartesian basis functions
    72 alpha electrons       72 beta electrons
       nuclear repulsion energy      1411.6979067843 Hartrees.
 NAtoms=   30 NActive=   30 NUniq=   30 SFac= 1.00D+00 NAtFMM=   60 NAOKFM=F Big=F
 Integral buffers will be    131072 words long.
 Raffenetti 2 integral format.
 Two-electron integral symmetry is turned on.
 Nuclear repulsion after empirical dispersion term =     1411.6965665476 Hartrees.
 One-electron integrals computed using PRISM.
 NBasis=   440 RedAO= T EigKep=  1.47D-06  NBF=   440
 NBsUse=   438 1.00D-06 EigRej=  8.97D-07 NBFU=   438
 ExpMin= 4.38D-02 ExpMax= 1.06D+05 ExpMxC= 3.62D+03 IAcc=3 IRadAn=         5 AccDes= 0.00D+00
 Harris functional with IExCor= 1009 and IRadAn=       5 diagonalized for initial guess.
 HarFok:  IExCor= 1009 AccDes= 0.00D+00 IRadAn=         5 IDoV= 1 UseB2=F ITyADJ=14
 ICtDFT=  3500011 ScaDFX=  1.000000  1.000000  1.000000  1.000000
 FoFCou: FMM=F IPFlag=           0 FMFlag=      100000 FMFlg1=           0
         NFxFlg=           0 DoJE=T BraDBF=F KetDBF=T FulRan=T
         wScrn=  0.000000 ICntrl=       500 IOpCl=  0 I1Cent=   200000004 NGrid=           0
         NMat0=    1 NMatS0=      1 NMatT0=    0 NMatD0=    1 NMtDS0=    0 NMtDT0=    0
 Petite list used in FoFCou.
 Requested convergence on RMS density matrix=1.00D-08 within 128 cycles.
 Requested convergence on MAX density matrix=1.00D-06.
 Requested convergence on             energy=1.00D-06.
 No special actions if energy rises.
 SCF Done:  E(RM062X) =  -1370.79917497     A.U. after   15 cycles
            NFock= 15  Conv=0.81D-08     -V/T= 2.0028

 **********************************************************************

            Population analysis using the SCF Density.

 **********************************************************************

 Orbital symmetries:
       Occupied  (A) (A) (A) (A) (A) (A) (A) (A) (A) (A) (A) (A)
                 (A) (A) (A) (A) (A) (A) (A) (A) (A) (A) (A) (A)
                 (A) (A) (A) (A) (A) (A) (A) (A) (A) (A) (A) (A)
                 (A) (A) (A) (A) (A) (A) (A) (A) (A) (A) (A) (A)
                 (A) (A) (A) (A) (A) (A) (A) (A) (A) (A) (A) (A)
                 (A) (A) (A) (A) (A) (A) (A) (A) (A) (A) (A) (A)
       Virtual   (A) (A) (A) (A) (A) (A) (A) (A) (A) (A) (A) (A)
                 (A) (A) (A) (A) (A) (A) (A) (A) (A) (A) (A) (A)
                 (A) (A) (A) (A) (A) (A) (A) (A) (A) (A) (A) (A)
                 (A) (A) (A) (A) (A) (A) (A) (A) (A) (A) (A) (A)
                 (A) (A) (A) (A) (A) (A) (A) (A) (A) (A) (A) (A)
                 (A) (A) (A) (A) (A) (A) (A) (A) (A) (A) (A) (A)
                 (A) (A) (A) (A) (A) (A) (A) (A) (A) (A) (A) (A)
                 (A) (A) (A) (A) (A) (A) (A) (A) (A) (A) (A) (A)
                 (A) (A) (A) (A) (A) (A) (A) (A) (A) (A) (A) (A)
                 (A) (A) (A) (A) (A) (A) (A) (A) (A) (A) (A) (A)
                 (A) (A) (A) (A) (A) (A) (A) (A) (A) (A) (A) (A)
                 (A) (A) (A) (A) (A) (A) (A) (A) (A) (A) (A) (A)
                 (A) (A) (A) (A) (A) (A) (A) (A) (A) (A) (A) (A)
                 (A) (A) (A) (A) (A) (A) (A) (A) (A) (A) (A) (A)
                 (A) (A) (A) (A) (A) (A) (A) (A) (A) (A) (A) (A)
                 (A) (A) (A) (A) (A) (A) (A) (A) (A) (A) (A) (A)
                 (A) (A) (A) (A) (A) (A) (A) (A) (A) (A) (A) (A)
                 (A) (A) (A) (A) (A) (A) (A) (A) (A) (A) (A) (A)
                 (A) (A) (A) (A) (A) (A) (A) (A) (A) (A) (A) (A)
                 (A) (A) (A) (A) (A) (A) (A) (A) (A) (A) (A) (A)
                 (A) (A) (A) (A) (A) (A) (A) (A) (A) (A) (A) (A)
                 (A) (A) (A) (A) (A) (A) (A) (A) (A) (A) (A) (A)
                 (A) (A) (A) (A) (A) (A) (A) (A) (A) (A) (A) (A)
                 (A) (A) (A) (A) (A) (A) (A) (A) (A) (A) (A) (A)
                 (A) (A) (A) (A) (A) (A) (A) (A) (A) (A) (A) (A)
                 (A) (A) (A) (A) (A) (A) (A) (A) (A) (A) (A) (A)
                 (A) (A) (A) (A) (A) (A) (A) (A) (A) (A) (A) (A)
                 (A) (A) (A) (A) (A) (A) (A) (A) (A) (A) (A) (A)
                 (A) (A) (A) (A) (A) (A) (A) (A) (A) (A) (A) (A)
                 (A) (A) (A) (A) (A) (A) (A) (A) (A) (A) (A) (A)
                 (A) (A) (A) (A) (A) (A)
 The electronic state is 1-A.
 Alpha  occ. eigenvalues -- -102.68203 -25.28449 -25.28358 -25.27924 -19.60682
 Alpha  occ. eigenvalues --  -14.80788 -14.78635 -10.80995 -10.69408 -10.62565
 Alpha  occ. eigenvalues --  -10.62485 -10.59104 -10.58422 -10.57673 -10.57224
 Alpha  occ. eigenvalues --  -10.56653 -10.55465 -10.54020  -9.82473  -7.54988
 Alpha  occ. eigenvalues --   -7.54310  -7.54294  -1.47718  -1.38448  -1.37943
 Alpha  occ. eigenvalues --   -1.20149  -1.08421  -1.05038  -1.01266  -0.96158
 Alpha  occ. eigenvalues --   -0.90797  -0.88981  -0.85607  -0.82128  -0.79823
 Alpha  occ. eigenvalues --   -0.75019  -0.73196  -0.70520  -0.70423  -0.70002
 Alpha  occ. eigenvalues --   -0.69632  -0.66220  -0.64693  -0.60492  -0.60097
 Alpha  occ. eigenvalues --   -0.58307  -0.57961  -0.57622  -0.56051  -0.55155
 Alpha  occ. eigenvalues --   -0.54136  -0.53823  -0.53692  -0.52183  -0.51998
 Alpha  occ. eigenvalues --   -0.51649  -0.49873  -0.49686  -0.48536  -0.47235
 Alpha  occ. eigenvalues --   -0.46599  -0.44584  -0.44264  -0.43271  -0.42180
 Alpha  occ. eigenvalues --   -0.41508  -0.39067  -0.38619  -0.36811  -0.34261
 Alpha  occ. eigenvalues --   -0.32300  -0.29491
 Alpha virt. eigenvalues --   -0.01530  -0.01396  -0.00435   0.01048   0.01905
 Alpha virt. eigenvalues --    0.02283   0.02918   0.03014   0.03912   0.04357
 Alpha virt. eigenvalues --    0.04739   0.05157   0.05529   0.06001   0.06382
 Alpha virt. eigenvalues --    0.06464   0.06661   0.07443   0.07837   0.08305
 Alpha virt. eigenvalues --    0.08759   0.09038   0.09553   0.09776   0.11121
 Alpha virt. eigenvalues --    0.11457   0.11803   0.12136   0.12346   0.12926
 Alpha virt. eigenvalues --    0.13051   0.13782   0.14247   0.15012   0.15271
 Alpha virt. eigenvalues --    0.15981   0.16564   0.16979   0.17362   0.17862
 Alpha virt. eigenvalues --    0.17985   0.18474   0.18772   0.19388   0.19678
 Alpha virt. eigenvalues --    0.19979   0.20302   0.20478   0.21169   0.21435
 Alpha virt. eigenvalues --    0.22129   0.22374   0.22489   0.22899   0.23640
 Alpha virt. eigenvalues --    0.24094   0.24333   0.24421   0.24583   0.25240
 Alpha virt. eigenvalues --    0.26159   0.26290   0.26441   0.26904   0.27240
 Alpha virt. eigenvalues --    0.27342   0.28040   0.28370   0.28576   0.28885
 Alpha virt. eigenvalues --    0.29213   0.29612   0.29952   0.30256   0.31456
 Alpha virt. eigenvalues --    0.31891   0.32252   0.32568   0.33012   0.34092
 Alpha virt. eigenvalues --    0.34752   0.35471   0.35906   0.36238   0.36918
 Alpha virt. eigenvalues --    0.37589   0.38473   0.38715   0.39946   0.40309
 Alpha virt. eigenvalues --    0.41395   0.42098   0.42468   0.42801   0.43273
 Alpha virt. eigenvalues --    0.44445   0.44791   0.45953   0.46951   0.47442
 Alpha virt. eigenvalues --    0.47631   0.48470   0.48764   0.49040   0.49986
 Alpha virt. eigenvalues --    0.50701   0.51591   0.51926   0.52817   0.53050
 Alpha virt. eigenvalues --    0.56925   0.57671   0.58441   0.59092   0.60782
 Alpha virt. eigenvalues --    0.61432   0.62054   0.63117   0.63416   0.64353
 Alpha virt. eigenvalues --    0.65209   0.65589   0.66155   0.66995   0.67490
 Alpha virt. eigenvalues --    0.68098   0.68968   0.69517   0.70427   0.70943
 Alpha virt. eigenvalues --    0.71783   0.72100   0.72726   0.73205   0.73523
 Alpha virt. eigenvalues --    0.74653   0.75627   0.75677   0.76348   0.77246
 Alpha virt. eigenvalues --    0.77527   0.78895   0.79234   0.80984   0.81876
 Alpha virt. eigenvalues --    0.83127   0.85110   0.86620   0.88730   0.89825
 Alpha virt. eigenvalues --    0.90497   0.90758   0.91739   0.92367   0.93753
 Alpha virt. eigenvalues --    0.94182   0.95003   0.95637   0.96596   0.97181
 Alpha virt. eigenvalues --    0.99169   1.00104   1.01490   1.03135   1.04429
 Alpha virt. eigenvalues --    1.05505   1.06315   1.07144   1.08315   1.09318
 Alpha virt. eigenvalues --    1.12236   1.13241   1.15409   1.16863   1.19442
 Alpha virt. eigenvalues --    1.21068   1.23033   1.23888   1.24300   1.25628
 Alpha virt. eigenvalues --    1.26632   1.27098   1.28676   1.32488   1.33777
 Alpha virt. eigenvalues --    1.37317   1.38844   1.39413   1.42833   1.43053
 Alpha virt. eigenvalues --    1.44158   1.46464   1.46987   1.47759   1.48373
 Alpha virt. eigenvalues --    1.48738   1.50326   1.52420   1.52710   1.54066
 Alpha virt. eigenvalues --    1.54470   1.56154   1.57229   1.57978   1.58605
 Alpha virt. eigenvalues --    1.59053   1.60518   1.61512   1.61701   1.62820
 Alpha virt. eigenvalues --    1.64737   1.66801   1.71072   1.74109   1.74596
 Alpha virt. eigenvalues --    1.75158   1.76614   1.77416   1.77757   1.79073
 Alpha virt. eigenvalues --    1.80838   1.83411   1.84398   1.85739   1.86838
 Alpha virt. eigenvalues --    1.90101   1.90813   1.91903   1.93330   1.94903
 Alpha virt. eigenvalues --    1.97488   1.99298   2.00374   2.04598   2.04984
 Alpha virt. eigenvalues --    2.07955   2.08822   2.10548   2.11378   2.14771
 Alpha virt. eigenvalues --    2.18187   2.20091   2.21730   2.22844   2.28237
 Alpha virt. eigenvalues --    2.30527   2.31283   2.32839   2.33679   2.36313
 Alpha virt. eigenvalues --    2.37194   2.40206   2.45832   2.47164   2.51267
 Alpha virt. eigenvalues --    2.53341   2.53732   2.54722   2.56965   2.58717
 Alpha virt. eigenvalues --    2.59626   2.61696   2.63681   2.63887   2.66708
 Alpha virt. eigenvalues --    2.71209   2.72174   2.77024   2.78174   2.81158
 Alpha virt. eigenvalues --    2.82453   2.84531   2.85734   2.90711   2.92901
 Alpha virt. eigenvalues --    2.93297   2.96862   2.99740   3.00858   3.01586
 Alpha virt. eigenvalues --    3.04228   3.04882   3.08506   3.10758   3.11847
 Alpha virt. eigenvalues --    3.16521   3.20166   3.23916   3.24385   3.26208
 Alpha virt. eigenvalues --    3.27837   3.30021   3.34987   3.36765   3.40129
 Alpha virt. eigenvalues --    3.41377   3.43669   3.44878   3.50310   3.55260
 Alpha virt. eigenvalues --    3.64206   3.65964   3.69705   3.75111   3.77382
 Alpha virt. eigenvalues --    3.80568   3.80633   3.84027   3.84669   3.86410
 Alpha virt. eigenvalues --    3.87238   3.87599   3.96265   3.97874   3.99929
 Alpha virt. eigenvalues --    4.00893   4.01414   4.02000   4.05151   4.06781
 Alpha virt. eigenvalues --    4.11221   4.22064   4.27985   4.30879   4.52656
 Alpha virt. eigenvalues --    4.57213   4.75223   4.79493   4.87345   4.98806
 Alpha virt. eigenvalues --    5.01662   5.17843   5.19184   5.41293   5.89333
 Alpha virt. eigenvalues --    6.46682   6.48602   6.50798   6.52543   6.53662
 Alpha virt. eigenvalues --    6.54863   6.60958   6.88202   6.89654   9.97223
 Alpha virt. eigenvalues --   23.44541  23.56992  23.64181  23.72227  23.79542
 Alpha virt. eigenvalues --   23.91503  23.93094  23.96357  24.08852  24.10944
 Alpha virt. eigenvalues --   24.19664  25.93940  26.23915  26.71584  35.57743
 Alpha virt. eigenvalues --   35.67527  50.13204  66.89118  66.90218  66.95354
 Alpha virt. eigenvalues --  216.07336
          Condensed to atoms (all electrons):
               1          2          3          4          5          6
     1  C   31.084696  -0.548024  -1.508449  -0.117599  -0.185522  -0.848550
     2  N   -0.548024   7.960464   0.289015  -0.087150  -0.690472  -0.364494
     3  C   -1.508449   0.289015   8.513420   0.574321   0.040127  -0.962007
     4  O   -0.117599  -0.087150   0.574321   8.085304  -0.171023  -0.117436
     5  N   -0.185522  -0.690472   0.040127  -0.171023   7.864190   0.619277
     6  C   -0.848550  -0.364494  -0.962007  -0.117436   0.619277   8.293157
     7  C    0.000755   0.023717   0.178070   0.018406  -0.153277  -0.850454
     8  C   -0.018890  -0.007448  -0.203826  -0.001079   0.004938   0.335906
     9  C   -3.673658   0.306157  -0.306817  -0.144781  -0.201345  -0.117579
    10  C   -2.574030   0.157049  -1.272240   0.035713   0.037482  -0.115079
    11  C  -12.982799   0.177121  -0.346455  -0.065869  -0.052594  -0.018612
    12  C    0.248674   0.034764   0.284223   0.080319   0.047799   0.064276
    13  C    1.044129  -0.187932   0.538323   0.259049  -0.029951   0.103198
    14  H   -0.012892   0.228166  -0.028702  -0.004381   0.064315   0.022191
    15  H   -0.035797   0.091882   0.026103  -0.002042   0.228143  -0.079786
    16  H    0.004436   0.010253   0.085446  -0.004320  -0.109840   0.390309
    17  H    0.005528   0.011282   0.052328  -0.001185  -0.041770   0.333025
    18  H    0.004514  -0.000109   0.034382  -0.000148   0.002124  -0.088965
    19  H   -0.004069  -0.000830  -0.020417  -0.000261   0.003536  -0.055414
    20  H   -0.000357  -0.000087  -0.009991  -0.000083  -0.000057  -0.046809
    21  H    0.000055  -0.000009   0.003269   0.000024  -0.001350   0.075752
    22  H    0.000264   0.000041   0.010371  -0.000038   0.000233  -0.042717
    23  H    0.137856  -0.022970  -0.004579   0.000006  -0.001557  -0.000864
    24  Cl  -0.016131   0.000914   0.042612   0.000385   0.003705   0.004397
    25  H   -0.047420  -0.022111   0.076138  -0.000411   0.002027   0.006369
    26  C   -3.662054   0.016690  -0.214809  -0.001495  -0.000662  -0.007263
    27  H    0.053025   0.000672   0.002157   0.000011   0.000009   0.000020
    28  F   -0.045549   0.000737  -0.001614  -0.000003   0.000004  -0.000005
    29  F    0.044089   0.000631  -0.001194   0.000003   0.000008  -0.000009
    30  F    0.177204   0.000705   0.001692  -0.000002   0.000014   0.000035
               7          8          9         10         11         12
     1  C    0.000755  -0.018890  -3.673658  -2.574030 -12.982799   0.248674
     2  N    0.023717  -0.007448   0.306157   0.157049   0.177121   0.034764
     3  C    0.178070  -0.203826  -0.306817  -1.272240  -0.346455   0.284223
     4  O    0.018406  -0.001079  -0.144781   0.035713  -0.065869   0.080319
     5  N   -0.153277   0.004938  -0.201345   0.037482  -0.052594   0.047799
     6  C   -0.850454   0.335906  -0.117579  -0.115079  -0.018612   0.064276
     7  C    6.320335  -0.161279   0.015672   0.003412   0.001537  -0.005963
     8  C   -0.161279   6.029492  -0.001691  -0.001205   0.000019   0.000655
     9  C    0.015672  -0.001691  21.324180  -1.507851   1.772795  -7.984952
    10  C    0.003412  -0.001205  -1.507851  26.656089  -6.497576   0.498161
    11  C    0.001537   0.000019   1.772795  -6.497576  33.471232  -9.719820
    12  C   -0.005963   0.000655  -7.984952   0.498161  -9.719820  22.218147
    13  C   -0.006750  -0.000393  -3.982236  -3.884833  -4.070151   3.256646
    14  H   -0.004121   0.000093  -0.088350  -0.025120  -0.029146   0.037760
    15  H    0.011875   0.007247   0.006503  -0.005693   0.001215   0.000121
    16  H   -0.074010  -0.006087   0.000529  -0.000180   0.000173   0.000502
    17  H    0.003551  -0.025016   0.002875   0.000221   0.000254  -0.000169
    18  H    0.441808  -0.051062   0.000138   0.000100  -0.000002  -0.000040
    19  H    0.450610  -0.035236   0.000053  -0.000089   0.000008   0.000045
    20  H    0.009780   0.392802   0.000014  -0.000002   0.000001   0.000001
    21  H   -0.119258   0.393164  -0.000008   0.000000  -0.000000   0.000000
    22  H    0.013457   0.365155   0.000001   0.000002  -0.000000  -0.000002
    23  H    0.000059  -0.000000   0.259172  -0.019116  -0.101810   0.015108
    24  Cl  -0.000265   0.000026  -0.038695  -0.080797  -0.214409  -0.743354
    25  H   -0.000387   0.000049   0.010900  -0.007620   0.032895  -0.074099
    26  C    0.000329  -0.000037   0.769728  -4.720718   5.152008  -3.210049
    27  H   -0.000000   0.000000  -0.060159   0.074279   0.128773   0.124591
    28  F   -0.000000   0.000000  -0.138740   0.420830  -0.210018   0.001102
    29  F    0.000000  -0.000000   0.015109  -0.067158  -0.211274   0.186556
    30  F    0.000001   0.000000  -0.028513  -0.109321  -0.086415   0.059224
              13         14         15         16         17         18
     1  C    1.044129  -0.012892  -0.035797   0.004436   0.005528   0.004514
     2  N   -0.187932   0.228166   0.091882   0.010253   0.011282  -0.000109
     3  C    0.538323  -0.028702   0.026103   0.085446   0.052328   0.034382
     4  O    0.259049  -0.004381  -0.002042  -0.004320  -0.001185  -0.000148
     5  N   -0.029951   0.064315   0.228143  -0.109840  -0.041770   0.002124
     6  C    0.103198   0.022191  -0.079786   0.390309   0.333025  -0.088965
     7  C   -0.006750  -0.004121   0.011875  -0.074010   0.003551   0.441808
     8  C   -0.000393   0.000093   0.007247  -0.006087  -0.025016  -0.051062
     9  C   -3.982236  -0.088350   0.006503   0.000529   0.002875   0.000138
    10  C   -3.884833  -0.025120  -0.005693  -0.000180   0.000221   0.000100
    11  C   -4.070151  -0.029146   0.001215   0.000173   0.000254  -0.000002
    12  C    3.256646   0.037760   0.000121   0.000502  -0.000169  -0.000040
    13  C   12.922748   0.098744   0.016749   0.001357  -0.002359  -0.000327
    14  H    0.098744   0.383242   0.001373   0.000348  -0.000015  -0.000013
    15  H    0.016749   0.001373   0.401338   0.001735   0.002773  -0.000579
    16  H    0.001357   0.000348   0.001735   0.474890  -0.037547   0.006309
    17  H   -0.002359  -0.000015   0.002773  -0.037547   0.424210  -0.007816
    18  H   -0.000327  -0.000013  -0.000579   0.006309  -0.007816   0.447764
    19  H    0.000396   0.000088   0.003716  -0.009407   0.005336  -0.045260
    20  H   -0.000022   0.000001  -0.000026  -0.000951   0.003689  -0.008676
    21  H    0.000014  -0.000000  -0.000027  -0.000097  -0.000215  -0.003334
    22  H    0.000032  -0.000000   0.000056   0.003315  -0.000221   0.006019
    23  H    0.012638   0.008739   0.000027  -0.000000  -0.000000   0.000000
    24  Cl   0.318204   0.000551   0.000008  -0.000008  -0.000005   0.000000
    25  H    0.349406   0.000171  -0.000033   0.000028  -0.000027   0.000000
    26  C   -0.426644   0.002783  -0.000049   0.000003   0.000013   0.000001
    27  H    0.004854  -0.000006  -0.000000  -0.000000  -0.000000   0.000000
    28  F   -0.001905   0.000020   0.000000   0.000000   0.000000  -0.000000
    29  F    0.010925  -0.000005  -0.000000  -0.000000   0.000000  -0.000000
    30  F    0.005574   0.000046   0.000001   0.000000  -0.000000   0.000000
              19         20         21         22         23         24
     1  C   -0.004069  -0.000357   0.000055   0.000264   0.137856  -0.016131
     2  N   -0.000830  -0.000087  -0.000009   0.000041  -0.022970   0.000914
     3  C   -0.020417  -0.009991   0.003269   0.010371  -0.004579   0.042612
     4  O   -0.000261  -0.000083   0.000024  -0.000038   0.000006   0.000385
     5  N    0.003536  -0.000057  -0.001350   0.000233  -0.001557   0.003705
     6  C   -0.055414  -0.046809   0.075752  -0.042717  -0.000864   0.004397
     7  C    0.450610   0.009780  -0.119258   0.013457   0.000059  -0.000265
     8  C   -0.035236   0.392802   0.393164   0.365155  -0.000000   0.000026
     9  C    0.000053   0.000014  -0.000008   0.000001   0.259172  -0.038695
    10  C   -0.000089  -0.000002   0.000000   0.000002  -0.019116  -0.080797
    11  C    0.000008   0.000001  -0.000000  -0.000000  -0.101810  -0.214409
    12  C    0.000045   0.000001   0.000000  -0.000002   0.015108  -0.743354
    13  C    0.000396  -0.000022   0.000014   0.000032   0.012638   0.318204
    14  H    0.000088   0.000001  -0.000000  -0.000000   0.008739   0.000551
    15  H    0.003716  -0.000026  -0.000027   0.000056   0.000027   0.000008
    16  H   -0.009407  -0.000951  -0.000097   0.003315  -0.000000  -0.000008
    17  H    0.005336   0.003689  -0.000215  -0.000221  -0.000000  -0.000005
    18  H   -0.045260  -0.008676  -0.003334   0.006019   0.000000   0.000000
    19  H    0.479737   0.006767  -0.003469  -0.008627  -0.000000   0.000000
    20  H    0.006767   0.451950  -0.024175  -0.035914  -0.000000  -0.000000
    21  H   -0.003469  -0.024175   0.435556  -0.025730   0.000000   0.000000
    22  H   -0.008627  -0.035914  -0.025730   0.453917   0.000000   0.000000
    23  H   -0.000000  -0.000000   0.000000   0.000000   0.413688   0.000536
    24  Cl   0.000000  -0.000000   0.000000   0.000000   0.000536  17.409894
    25  H   -0.000000  -0.000000   0.000000  -0.000000  -0.000042  -0.008707
    26  C   -0.000001  -0.000000   0.000000   0.000000   0.038730  -0.102820
    27  H   -0.000000  -0.000000   0.000000   0.000000  -0.000228  -0.013435
    28  F    0.000000   0.000000  -0.000000  -0.000000  -0.000988  -0.000615
    29  F    0.000000  -0.000000   0.000000   0.000000   0.000388  -0.000037
    30  F    0.000000   0.000000  -0.000000   0.000000   0.006449  -0.000330
              25         26         27         28         29         30
     1  C   -0.047420  -3.662054   0.053025  -0.045549   0.044089   0.177204
     2  N   -0.022111   0.016690   0.000672   0.000737   0.000631   0.000705
     3  C    0.076138  -0.214809   0.002157  -0.001614  -0.001194   0.001692
     4  O   -0.000411  -0.001495   0.000011  -0.000003   0.000003  -0.000002
     5  N    0.002027  -0.000662   0.000009   0.000004   0.000008   0.000014
     6  C    0.006369  -0.007263   0.000020  -0.000005  -0.000009   0.000035
     7  C   -0.000387   0.000329  -0.000000  -0.000000   0.000000   0.000001
     8  C    0.000049  -0.000037   0.000000   0.000000  -0.000000   0.000000
     9  C    0.010900   0.769728  -0.060159  -0.138740   0.015109  -0.028513
    10  C   -0.007620  -4.720718   0.074279   0.420830  -0.067158  -0.109321
    11  C    0.032895   5.152008   0.128773  -0.210018  -0.211274  -0.086415
    12  C   -0.074099  -3.210049   0.124591   0.001102   0.186556   0.059224
    13  C    0.349406  -0.426644   0.004854  -0.001905   0.010925   0.005574
    14  H    0.000171   0.002783  -0.000006   0.000020  -0.000005   0.000046
    15  H   -0.000033  -0.000049  -0.000000   0.000000  -0.000000   0.000001
    16  H    0.000028   0.000003  -0.000000   0.000000  -0.000000   0.000000
    17  H   -0.000027   0.000013  -0.000000   0.000000   0.000000  -0.000000
    18  H    0.000000   0.000001   0.000000  -0.000000  -0.000000   0.000000
    19  H   -0.000000  -0.000001  -0.000000   0.000000   0.000000   0.000000
    20  H   -0.000000  -0.000000  -0.000000   0.000000  -0.000000   0.000000
    21  H    0.000000   0.000000   0.000000  -0.000000   0.000000  -0.000000
    22  H   -0.000000   0.000000   0.000000  -0.000000   0.000000   0.000000
    23  H   -0.000042   0.038730  -0.000228  -0.000988   0.000388   0.006449
    24  Cl  -0.008707  -0.102820  -0.013435  -0.000615  -0.000037  -0.000330
    25  H    0.349321   0.001931  -0.000258   0.000004  -0.000008   0.000002
    26  C    0.001931  11.316833  -0.004057   0.159229   0.171346   0.130901
    27  H   -0.000258  -0.004057   0.381794  -0.000303   0.005327   0.000545
    28  F    0.000004   0.159229  -0.000303   8.961791  -0.049107  -0.046194
    29  F   -0.000008   0.171346   0.005327  -0.049107   9.015206  -0.024048
    30  F    0.000002   0.130901   0.000545  -0.046194  -0.024048   9.022808
 Mulliken charges:
               1
     1  C   -0.523436
     2  N   -0.378624
     3  C    0.129103
     4  O   -0.334235
     5  N   -0.278510
     6  C   -0.531869
     7  C   -0.117609
     8  C   -1.016299
     9  C   -0.208451
    10  C   -0.994713
    11  C   -0.131083
    12  C    0.579772
    13  C   -0.349482
    14  H    0.344120
    15  H    0.323167
    16  H    0.262813
    17  H    0.271260
    18  H    0.263172
    19  H    0.232790
    20  H    0.262146
    21  H    0.269838
    22  H    0.260387
    23  H    0.258759
    24  Cl   0.438377
    25  H    0.331882
    26  C    0.590133
    27  H    0.302392
    28  F   -0.048675
    29  F   -0.096746
    30  F   -0.110379
 Sum of Mulliken charges =  -0.00000
 Mulliken charges with hydrogens summed into heavy atoms:
               1
     1  C   -0.523436
     2  N   -0.034504
     3  C    0.129103
     4  O   -0.334235
     5  N    0.044658
     6  C    0.002204
     7  C    0.378353
     8  C   -0.223928
     9  C    0.050308
    10  C   -0.994713
    11  C    0.171308
    12  C    0.579772
    13  C   -0.017601
    24  Cl   0.438377
    26  C    0.590133
    28  F   -0.048675
    29  F   -0.096746
    30  F   -0.110379
 Electronic spatial extent (au):  <R**2>=           8435.5470
 Charge=             -0.0000 electrons
 Dipole moment (field-independent basis, Debye):
    X=              4.6614    Y=             -3.4111    Z=              0.8080  Tot=              5.8324
 Quadrupole moment (field-independent basis, Debye-Ang):
   XX=           -104.9747   YY=           -115.0843   ZZ=           -115.0658
   XY=            -13.7490   XZ=              3.1072   YZ=             -0.5760
 Traceless Quadrupole moment (field-independent basis, Debye-Ang):
   XX=              6.7336   YY=             -3.3761   ZZ=             -3.3575
   XY=            -13.7490   XZ=              3.1072   YZ=             -0.5760
 Octapole moment (field-independent basis, Debye-Ang**2):
  XXX=             72.6657  YYY=            -38.1810  ZZZ=             -1.7156  XYY=             -2.1849
  XXY=            -10.9298  XXZ=              6.6221  XZZ=            -10.3443  YZZ=             -6.8962
  YYZ=              3.6870  XYZ=             -3.6661
 Hexadecapole moment (field-independent basis, Debye-Ang**3):
 XXXX=          -8192.4195 YYYY=          -1881.8142 ZZZZ=           -210.6040 XXXY=            -95.2345
 XXXZ=             11.4288 YYYX=             64.7006 YYYZ=             -7.6067 ZZZX=              6.0884
 ZZZY=              1.5497 XXYY=          -1791.6649 XXZZ=          -1483.0944 YYZZ=           -359.5478
 XXYZ=             -8.0190 YYXZ=              9.0006 ZZXY=             37.1465
 N-N= 1.411696566548D+03 E-N=-6.053682275302D+03  KE= 1.366907122802D+03
 Calling FoFJK, ICntrl=      2127 FMM=F ISym2X=0 I1Cent= 0 IOpClX= 0 NMat=1 NMatS=1 NMatT=0.
 ***** Axes restored to original set *****
 -------------------------------------------------------------------
 Center     Atomic                   Forces (Hartrees/Bohr)
 Number     Number              X              Y              Z
 -------------------------------------------------------------------
      1        6           0.000000268   -0.000000135    0.000000192
      2        7           0.000001067   -0.000000961   -0.000000842
      3        6          -0.000001088   -0.000000685    0.000001239
      4        8          -0.000000834    0.000001292    0.000001586
      5        7          -0.000000764    0.000000353   -0.000000040
      6        6           0.000002769    0.000001267   -0.000000173
      7        6          -0.000000687    0.000001045    0.000000076
      8        6           0.000001018    0.000001993    0.000000123
      9        6           0.000000160    0.000000304   -0.000001628
     10        6          -0.000001865   -0.000001202   -0.000000503
     11        6           0.000001304   -0.000001390    0.000000488
     12        6          -0.000001453   -0.000000796    0.000001234
     13        6          -0.000001252   -0.000000242    0.000001596
     14        1          -0.000000031    0.000000499   -0.000001312
     15        1           0.000000424    0.000000182   -0.000000948
     16        1          -0.000000942   -0.000000514    0.000001455
     17        1          -0.000000311    0.000001615    0.000001898
     18        1           0.000001121    0.000003013   -0.000000962
     19        1           0.000000714    0.000000607   -0.000001145
     20        1           0.000000192    0.000002259    0.000001624
     21        1           0.000000623    0.000002251    0.000000342
     22        1          -0.000000096    0.000001035    0.000000831
     23        1           0.000000330   -0.000001122   -0.000002178
     24       17          -0.000000950   -0.000001693    0.000003732
     25        1          -0.000000813   -0.000000499    0.000002196
     26        6           0.000001197   -0.000002776   -0.000001875
     27        1          -0.000000644   -0.000001358    0.000000999
     28        9          -0.000000101   -0.000002429   -0.000003915
     29        9           0.000000110   -0.000001304   -0.000001124
     30        9           0.000000535   -0.000000609   -0.000002965
 -------------------------------------------------------------------
 Cartesian Forces:  Max     0.000003915 RMS     0.000001367

 GradGradGradGradGradGradGradGradGradGradGradGradGradGradGradGradGradGrad
 Berny optimization.
 FormGI is forming the generalized inverse of G from B-inverse, IUseBI=4.
 Internal  Forces:  Max     0.000001609 RMS     0.000000400
 Search for a local minimum.
 Step number   1 out of a maximum of  157
 All quantities printed in internal units (Hartrees-Bohrs-Radians)
 Mixed Optimization -- En-DIIS/RFO-DIIS
 Second derivative matrix not updated -- first step.
 ITU=  0
     Eigenvalues ---    0.00430   0.00481   0.00731   0.00929   0.01666
     Eigenvalues ---    0.01712   0.01798   0.01819   0.01850   0.01929
     Eigenvalues ---    0.01991   0.02059   0.02124   0.02173   0.02196
     Eigenvalues ---    0.02238   0.02247   0.02256   0.02260   0.03713
     Eigenvalues ---    0.04430   0.04926   0.05503   0.05524   0.05551
     Eigenvalues ---    0.08191   0.09233   0.10682   0.10857   0.12085
     Eigenvalues ---    0.12672   0.14701   0.15874   0.15999   0.15999
     Eigenvalues ---    0.16000   0.16000   0.16000   0.16000   0.21889
     Eigenvalues ---    0.21896   0.22048   0.22305   0.23483   0.23491
     Eigenvalues ---    0.23510   0.24970   0.24994   0.24997   0.25000
     Eigenvalues ---    0.25000   0.25000   0.25000   0.25000   0.29850
     Eigenvalues ---    0.30221   0.31433   0.32099   0.34063   0.34077
     Eigenvalues ---    0.34355   0.34515   0.34527   0.34685   0.34707
     Eigenvalues ---    0.35424   0.35754   0.36126   0.37258   0.42529
     Eigenvalues ---    0.43003   0.45872   0.45999   0.46166   0.46294
     Eigenvalues ---    0.46902   0.46983   0.47708   0.48053   0.50543
     Eigenvalues ---    0.56405   0.56904   0.57631   0.99372
 RFO step:  Lambda= 0.00000000D+00 EMin= 4.29592954D-03
 Linear search not attempted -- first point.
 Iteration  1 RMS(Cart)=  0.00002114 RMS(Int)=  0.00000000
 Iteration  2 RMS(Cart)=  0.00000000 RMS(Int)=  0.00000000
 Variable       Old X    -DE/DX   Delta X   Delta X   Delta X     New X
                                 (Linear)    (Quad)   (Total)
    R1        2.64276   0.00000   0.00000   0.00000   0.00000   2.64276
    R2        2.64394  -0.00000   0.00000  -0.00000  -0.00000   2.64394
    R3        2.64314   0.00000   0.00000   0.00000   0.00000   2.64314
    R4        2.63039  -0.00000   0.00000  -0.00000  -0.00000   2.63038
    R5        1.90645  -0.00000   0.00000  -0.00000  -0.00000   1.90645
    R6        2.28891   0.00000   0.00000   0.00000   0.00000   2.28891
    R7        2.59322   0.00000   0.00000   0.00000   0.00000   2.59322
    R8        2.75460   0.00000   0.00000   0.00000   0.00000   2.75460
    R9        1.90833  -0.00000   0.00000  -0.00000  -0.00000   1.90833
   R10        2.87525  -0.00000   0.00000  -0.00000  -0.00000   2.87525
   R11        2.07200  -0.00000   0.00000  -0.00000  -0.00000   2.07200
   R12        2.06189  -0.00000   0.00000  -0.00000  -0.00000   2.06189
   R13        2.88264   0.00000   0.00000   0.00000   0.00000   2.88264
   R14        2.06735  -0.00000   0.00000  -0.00000  -0.00000   2.06735
   R15        2.07223  -0.00000   0.00000  -0.00000  -0.00000   2.07223
   R16        2.06450  -0.00000   0.00000  -0.00000  -0.00000   2.06450
   R17        2.06154  -0.00000   0.00000  -0.00000  -0.00000   2.06154
   R18        2.06470  -0.00000   0.00000  -0.00000  -0.00000   2.06470
   R19        2.61663  -0.00000   0.00000  -0.00000  -0.00000   2.61663
   R20        2.04992   0.00000   0.00000   0.00000   0.00000   2.04992
   R21        2.62501  -0.00000   0.00000  -0.00000  -0.00000   2.62501
   R22        2.83962  -0.00000   0.00000  -0.00000  -0.00000   2.83962
   R23        2.62038  -0.00000   0.00000  -0.00000  -0.00000   2.62038
   R24        2.04467   0.00000   0.00000   0.00000   0.00000   2.04467
   R25        2.62314  -0.00000   0.00000  -0.00000  -0.00000   2.62314
   R26        3.28894  -0.00000   0.00000  -0.00000  -0.00000   3.28894
   R27        2.03885  -0.00000   0.00000  -0.00000  -0.00000   2.03885
   R28        2.53904  -0.00000   0.00000  -0.00000  -0.00000   2.53904
   R29        2.52866  -0.00000   0.00000  -0.00000  -0.00000   2.52866
   R30        2.53478  -0.00000   0.00000  -0.00000  -0.00000   2.53478
    A1        2.04470  -0.00000   0.00000  -0.00000  -0.00000   2.04470
    A2        2.15447   0.00000   0.00000   0.00000   0.00000   2.15448
    A3        2.08390  -0.00000   0.00000  -0.00000  -0.00000   2.08390
    A4        2.22161  -0.00000   0.00000   0.00000   0.00000   2.22161
    A5        2.00966  -0.00000   0.00000  -0.00000  -0.00000   2.00966
    A6        2.03730   0.00000   0.00000   0.00000   0.00000   2.03731
    A7        2.16144  -0.00000   0.00000  -0.00000  -0.00000   2.16144
    A8        1.97376   0.00000   0.00000   0.00000   0.00000   1.97376
    A9        2.14773   0.00000   0.00000   0.00000   0.00000   2.14773
   A10        2.07568   0.00000   0.00000   0.00000   0.00000   2.07568
   A11        2.06313  -0.00000   0.00000  -0.00000  -0.00000   2.06313
   A12        2.03014  -0.00000   0.00000  -0.00000  -0.00000   2.03014
   A13        1.92736   0.00000   0.00000   0.00000   0.00000   1.92736
   A14        1.93091  -0.00000   0.00000  -0.00001  -0.00001   1.93090
   A15        1.87762  -0.00000   0.00000  -0.00000  -0.00000   1.87762
   A16        1.93055  -0.00000   0.00000  -0.00000  -0.00000   1.93054
   A17        1.93031   0.00000   0.00000   0.00000   0.00000   1.93032
   A18        1.86551   0.00000   0.00000   0.00000   0.00000   1.86552
   A19        1.94623   0.00000   0.00000   0.00000   0.00000   1.94623
   A20        1.90258  -0.00000   0.00000  -0.00000  -0.00000   1.90258
   A21        1.91284  -0.00000   0.00000   0.00000   0.00000   1.91284
   A22        1.92526  -0.00000   0.00000  -0.00000  -0.00000   1.92526
   A23        1.91092  -0.00000   0.00000  -0.00000  -0.00000   1.91091
   A24        1.86418   0.00000   0.00000   0.00000   0.00000   1.86418
   A25        1.93755  -0.00000   0.00000  -0.00000  -0.00000   1.93755
   A26        1.94179   0.00000   0.00000   0.00000   0.00000   1.94179
   A27        1.94066   0.00000   0.00000   0.00000   0.00000   1.94066
   A28        1.88073   0.00000   0.00000   0.00000   0.00000   1.88073
   A29        1.87966  -0.00000   0.00000  -0.00000  -0.00000   1.87966
   A30        1.88073  -0.00000   0.00000  -0.00000  -0.00000   1.88073
   A31        2.09525   0.00000   0.00000   0.00000   0.00000   2.09525
   A32        2.09867  -0.00000   0.00000  -0.00000  -0.00000   2.09867
   A33        2.08924  -0.00000   0.00000  -0.00000  -0.00000   2.08924
   A34        2.12196  -0.00000   0.00000  -0.00000  -0.00000   2.12196
   A35        2.07887  -0.00000   0.00000  -0.00000  -0.00000   2.07886
   A36        2.08129   0.00000   0.00000   0.00001   0.00001   2.08130
   A37        2.04929   0.00000   0.00000   0.00000   0.00000   2.04929
   A38        2.12139   0.00000   0.00000   0.00000   0.00000   2.12139
   A39        2.11246  -0.00000   0.00000  -0.00000  -0.00000   2.11246
   A40        2.14339   0.00000   0.00000   0.00000   0.00000   2.14339
   A41        2.07256   0.00000   0.00000   0.00000   0.00000   2.07256
   A42        2.06723  -0.00000   0.00000  -0.00000  -0.00000   2.06723
   A43        2.07258   0.00000   0.00000   0.00000   0.00000   2.07258
   A44        2.10666  -0.00000   0.00000  -0.00000  -0.00000   2.10666
   A45        2.10388   0.00000   0.00000   0.00000   0.00000   2.10388
   A46        1.94596  -0.00000   0.00000  -0.00000  -0.00000   1.94596
   A47        1.95590   0.00000   0.00000   0.00000   0.00000   1.95590
   A48        1.95482   0.00000   0.00000   0.00000   0.00000   1.95482
   A49        1.86486  -0.00000   0.00000  -0.00000  -0.00000   1.86486
   A50        1.86150   0.00000   0.00000   0.00000   0.00000   1.86150
   A51        1.87534   0.00000   0.00000   0.00000   0.00000   1.87534
    D1        3.00440   0.00000   0.00000   0.00000   0.00000   3.00440
    D2        0.05309  -0.00000   0.00000  -0.00001  -0.00001   0.05309
    D3       -0.15313  -0.00000   0.00000  -0.00000  -0.00000  -0.15313
    D4       -3.10444  -0.00000   0.00000  -0.00001  -0.00001  -3.10445
    D5        3.12715  -0.00000   0.00000  -0.00001  -0.00001   3.12713
    D6       -0.02179  -0.00000   0.00000  -0.00000  -0.00000  -0.02179
    D7        0.00082  -0.00000   0.00000  -0.00001  -0.00001   0.00081
    D8        3.13507   0.00000   0.00000   0.00000   0.00000   3.13507
    D9       -3.12521   0.00000   0.00000   0.00001   0.00001  -3.12520
   D10        0.02853   0.00000   0.00000   0.00001   0.00001   0.02854
   D11        0.00010   0.00000   0.00000   0.00001   0.00001   0.00011
   D12       -3.12934   0.00000   0.00000   0.00000   0.00000  -3.12934
   D13       -0.02828  -0.00000   0.00000  -0.00002  -0.00002  -0.02829
   D14        3.13695  -0.00000   0.00000  -0.00001  -0.00001   3.13694
   D15        2.92042  -0.00000   0.00000  -0.00001  -0.00001   2.92042
   D16       -0.19754  -0.00000   0.00000  -0.00000  -0.00000  -0.19754
   D17       -3.04834  -0.00000   0.00000  -0.00000  -0.00000  -3.04834
   D18       -0.41975  -0.00000   0.00000  -0.00001  -0.00001  -0.41976
   D19        0.11667   0.00000   0.00000   0.00000   0.00000   0.11668
   D20        2.74526  -0.00000   0.00000  -0.00000  -0.00000   2.74526
   D21       -2.98710  -0.00000   0.00000  -0.00000  -0.00000  -2.98710
   D22        1.15287  -0.00000   0.00000   0.00000   0.00000   1.15287
   D23       -0.87897   0.00000   0.00000   0.00000   0.00000  -0.87897
   D24        0.65803  -0.00000   0.00000   0.00000   0.00000   0.65803
   D25       -1.48519  -0.00000   0.00000   0.00001   0.00001  -1.48518
   D26        2.76616   0.00000   0.00000   0.00001   0.00001   2.76616
   D27        3.13659   0.00000   0.00000  -0.00001  -0.00001   3.13658
   D28        1.00674   0.00000   0.00000  -0.00000  -0.00000   1.00674
   D29       -1.02784   0.00000   0.00000  -0.00001  -0.00001  -1.02785
   D30       -1.00317  -0.00000   0.00000  -0.00001  -0.00001  -1.00318
   D31       -3.13301  -0.00000   0.00000  -0.00001  -0.00001  -3.13302
   D32        1.11559  -0.00000   0.00000  -0.00001  -0.00001   1.11558
   D33        1.06020  -0.00000   0.00000  -0.00001  -0.00001   1.06020
   D34       -1.06964   0.00000   0.00000  -0.00000  -0.00000  -1.06964
   D35       -3.10422  -0.00000   0.00000  -0.00001  -0.00001  -3.10423
   D36       -1.04570  -0.00000   0.00000  -0.00004  -0.00004  -1.04574
   D37       -3.14009  -0.00000   0.00000  -0.00004  -0.00004  -3.14014
   D38        1.04660  -0.00000   0.00000  -0.00004  -0.00004   1.04655
   D39        1.07100  -0.00000   0.00000  -0.00004  -0.00004   1.07095
   D40       -1.02340  -0.00000   0.00000  -0.00005  -0.00005  -1.02345
   D41       -3.11989  -0.00000   0.00000  -0.00005  -0.00005  -3.11994
   D42        3.11761  -0.00000   0.00000  -0.00004  -0.00004   3.11757
   D43        1.02321  -0.00000   0.00000  -0.00005  -0.00005   1.02317
   D44       -1.07328  -0.00000   0.00000  -0.00004  -0.00004  -1.07332
   D45       -0.00179   0.00000   0.00000   0.00000   0.00000  -0.00178
   D46       -3.09342   0.00000   0.00000   0.00001   0.00001  -3.09341
   D47       -3.13608  -0.00000   0.00000  -0.00001  -0.00001  -3.13608
   D48        0.05548  -0.00000   0.00000  -0.00000  -0.00000   0.05547
   D49        0.00174   0.00000   0.00000   0.00000   0.00000   0.00175
   D50        3.13393   0.00000   0.00000   0.00001   0.00001   3.13394
   D51        3.09331  -0.00000   0.00000  -0.00000  -0.00000   3.09331
   D52       -0.05769   0.00000   0.00000   0.00000   0.00000  -0.05769
   D53        1.55400   0.00000   0.00000   0.00000   0.00000   1.55401
   D54       -2.63967  -0.00000   0.00000  -0.00000  -0.00000  -2.63968
   D55       -0.53047   0.00000   0.00000   0.00000   0.00000  -0.53047
   D56       -1.53881   0.00000   0.00000   0.00001   0.00001  -1.53880
   D57        0.55070  -0.00000   0.00000   0.00000   0.00000   0.55070
   D58        2.65990   0.00000   0.00000   0.00000   0.00000   2.65991
   D59       -0.00080  -0.00000   0.00000  -0.00000  -0.00000  -0.00080
   D60        3.13761   0.00000   0.00000   0.00001   0.00001   3.13762
   D61       -3.13303  -0.00000   0.00000  -0.00001  -0.00001  -3.13304
   D62        0.00537   0.00000   0.00000   0.00000   0.00000   0.00538
   D63       -0.00011   0.00000   0.00000   0.00000   0.00000  -0.00011
   D64        3.12936   0.00000   0.00000   0.00001   0.00001   3.12936
   D65       -3.13852  -0.00000   0.00000  -0.00001  -0.00001  -3.13854
   D66       -0.00906  -0.00000   0.00000  -0.00001  -0.00001  -0.00907
         Item               Value     Threshold  Converged?
 Maximum Force            0.000002     0.000450     YES
 RMS     Force            0.000000     0.000300     YES
 Maximum Displacement     0.000114     0.001800     YES
 RMS     Displacement     0.000021     0.001200     YES
 Predicted change in Energy=-1.035172D-10
 Optimization completed.
    -- Stationary point found.
                           ----------------------------
                           !   Optimized Parameters   !
                           ! (Angstroms and Degrees)  !
 --------------------------                            --------------------------
 ! Name  Definition              Value          Derivative Info.                !
 --------------------------------------------------------------------------------
 ! R1    R(1,2)                  1.3985         -DE/DX =    0.0                 !
 ! R2    R(1,9)                  1.3991         -DE/DX =    0.0                 !
 ! R3    R(1,13)                 1.3987         -DE/DX =    0.0                 !
 ! R4    R(2,3)                  1.3919         -DE/DX =    0.0                 !
 ! R5    R(2,14)                 1.0089         -DE/DX =    0.0                 !
 ! R6    R(3,4)                  1.2112         -DE/DX =    0.0                 !
 ! R7    R(3,5)                  1.3723         -DE/DX =    0.0                 !
 ! R8    R(5,6)                  1.4577         -DE/DX =    0.0                 !
 ! R9    R(5,15)                 1.0098         -DE/DX =    0.0                 !
 ! R10   R(6,7)                  1.5215         -DE/DX =    0.0                 !
 ! R11   R(6,16)                 1.0965         -DE/DX =    0.0                 !
 ! R12   R(6,17)                 1.0911         -DE/DX =    0.0                 !
 ! R13   R(7,8)                  1.5254         -DE/DX =    0.0                 !
 ! R14   R(7,18)                 1.094          -DE/DX =    0.0                 !
 ! R15   R(7,19)                 1.0966         -DE/DX =    0.0                 !
 ! R16   R(8,20)                 1.0925         -DE/DX =    0.0                 !
 ! R17   R(8,21)                 1.0909         -DE/DX =    0.0                 !
 ! R18   R(8,22)                 1.0926         -DE/DX =    0.0                 !
 ! R19   R(9,10)                 1.3847         -DE/DX =    0.0                 !
 ! R20   R(9,23)                 1.0848         -DE/DX =    0.0                 !
 ! R21   R(10,11)                1.3891         -DE/DX =    0.0                 !
 ! R22   R(10,26)                1.5027         -DE/DX =    0.0                 !
 ! R23   R(11,12)                1.3866         -DE/DX =    0.0                 !
 ! R24   R(11,27)                1.082          -DE/DX =    0.0                 !
 ! R25   R(12,13)                1.3881         -DE/DX =    0.0                 !
 ! R26   R(12,24)                1.7404         -DE/DX =    0.0                 !
 ! R27   R(13,25)                1.0789         -DE/DX =    0.0                 !
 ! R28   R(26,28)                1.3436         -DE/DX =    0.0                 !
 ! R29   R(26,29)                1.3381         -DE/DX =    0.0                 !
 ! R30   R(26,30)                1.3413         -DE/DX =    0.0                 !
 ! A1    A(2,1,9)              117.1528         -DE/DX =    0.0                 !
 ! A2    A(2,1,13)             123.4422         -DE/DX =    0.0                 !
 ! A3    A(9,1,13)             119.3988         -DE/DX =    0.0                 !
 ! A4    A(1,2,3)              127.2888         -DE/DX =    0.0                 !
 ! A5    A(1,2,14)             115.1452         -DE/DX =    0.0                 !
 ! A6    A(3,2,14)             116.7289         -DE/DX =    0.0                 !
 ! A7    A(2,3,4)              123.8416         -DE/DX =    0.0                 !
 ! A8    A(2,3,5)              113.088          -DE/DX =    0.0                 !
 ! A9    A(4,3,5)              123.0558         -DE/DX =    0.0                 !
 ! A10   A(3,5,6)              118.9275         -DE/DX =    0.0                 !
 ! A11   A(3,5,15)             118.2085         -DE/DX =    0.0                 !
 ! A12   A(6,5,15)             116.3185         -DE/DX =    0.0                 !
 ! A13   A(5,6,7)              110.4297         -DE/DX =    0.0                 !
 ! A14   A(5,6,16)             110.6331         -DE/DX =    0.0                 !
 ! A15   A(5,6,17)             107.5798         -DE/DX =    0.0                 !
 ! A16   A(7,6,16)             110.6121         -DE/DX =    0.0                 !
 ! A17   A(7,6,17)             110.5987         -DE/DX =    0.0                 !
 ! A18   A(16,6,17)            106.8861         -DE/DX =    0.0                 !
 ! A19   A(6,7,8)              111.5107         -DE/DX =    0.0                 !
 ! A20   A(6,7,18)             109.0097         -DE/DX =    0.0                 !
 ! A21   A(6,7,19)             109.5977         -DE/DX =    0.0                 !
 ! A22   A(8,7,18)             110.3093         -DE/DX =    0.0                 !
 ! A23   A(8,7,19)             109.4874         -DE/DX =    0.0                 !
 ! A24   A(18,7,19)            106.8095         -DE/DX =    0.0                 !
 ! A25   A(7,8,20)             111.0133         -DE/DX =    0.0                 !
 ! A26   A(7,8,21)             111.2564         -DE/DX =    0.0                 !
 ! A27   A(7,8,22)             111.1914         -DE/DX =    0.0                 !
 ! A28   A(20,8,21)            107.7579         -DE/DX =    0.0                 !
 ! A29   A(20,8,22)            107.6966         -DE/DX =    0.0                 !
 ! A30   A(21,8,22)            107.7581         -DE/DX =    0.0                 !
 ! A31   A(1,9,10)             120.0487         -DE/DX =    0.0                 !
 ! A32   A(1,9,23)             120.2451         -DE/DX =    0.0                 !
 ! A33   A(10,9,23)            119.7048         -DE/DX =    0.0                 !
 ! A34   A(9,10,11)            121.5795         -DE/DX =    0.0                 !
 ! A35   A(9,10,26)            119.1103         -DE/DX =    0.0                 !
 ! A36   A(11,10,26)           119.2492         -DE/DX =    0.0                 !
 ! A37   A(10,11,12)           117.4155         -DE/DX =    0.0                 !
 ! A38   A(10,11,27)           121.5469         -DE/DX =    0.0                 !
 ! A39   A(12,11,27)           121.0353         -DE/DX =    0.0                 !
 ! A40   A(11,12,13)           122.8073         -DE/DX =    0.0                 !
 ! A41   A(11,12,24)           118.7489         -DE/DX =    0.0                 !
 ! A42   A(13,12,24)           118.4436         -DE/DX =    0.0                 !
 ! A43   A(1,13,12)            118.7501         -DE/DX =    0.0                 !
 ! A44   A(1,13,25)            120.7027         -DE/DX =    0.0                 !
 ! A45   A(12,13,25)           120.5435         -DE/DX =    0.0                 !
 ! A46   A(10,26,28)           111.4956         -DE/DX =    0.0                 !
 ! A47   A(10,26,29)           112.065          -DE/DX =    0.0                 !
 ! A48   A(10,26,30)           112.0027         -DE/DX =    0.0                 !
 ! A49   A(28,26,29)           106.8486         -DE/DX =    0.0                 !
[...]
 3,0.00004113,0.00003146,0.00001963,-0.00000713,-0.00001591,0.00000104,
 0.00001386,-0.00000531,-0.00000250,-0.00001497,-0.00000099,0.00001720,
 -0.00001329,0.00004840,-0.00000903,-0.00000413,0.00000269,0.00001329,0
 .00001509,0.00009474,-0.00004185,-0.00000386,-0.01875572,0.24847154,0.
 00031584,0.00009610,0.00533630,0.00001331,-0.00010710,-0.00000004,-0.0
 0006059,-0.00000899,0.00006001,0.00004913,-0.00001448,0.00006074,0.000
 04574,-0.00002333,-0.00002388,-0.00001309,-0.00000377,0.00000315,0.000
 00150,0.00000331,-0.00000115,0.00000019,-0.00000279,-0.00000083,-0.000
 08407,-0.00005992,-0.00099503,-0.00001629,-0.00019146,0.00480011,0.000
 02193,-0.00038471,0.00456163,0.00061046,-0.00379791,-0.02336607,0.0003
 6863,-0.00165902,0.00419593,0.00001496,-0.00000284,-0.00018550,-0.0000
 0398,0.00000009,-0.00000931,0.00000519,0.00000308,0.00000286,-0.000001
 94,0.00000022,0.00000083,0.,0.00000133,0.00000105,-0.00000048,-0.00000
 151,0.00000032,-0.00000032,0.00000005,0.00000012,0.00000145,-0.0000003
 0,-0.00000021,0.00000031,0.00000108,0.00000104,-0.00001840,0.00001368,
 -0.00049076,-0.00111555,0.00599115,0.01140242,0.01137534,0.00250674,0.
 00004410,-0.00355276,-0.00174571,0.00019269,0.00239947,0.00792875,-0.0
 0089107,-0.00896537,-0.00239645,0.00147286,0.00021084,-0.00158577,0.00
 006667,-0.00032608,-0.00010570,0.00005866,-0.00000550,0.00004808,0.000
 01001,0.00000385,-0.00003747,-0.00000172,0.00010128,0.00193823,0.00040
 314,0.00045603,0.00099494,0.00007435,-0.00282776,0.00264924,0.00039942
 ,-0.01718367,-0.01453239,0.00023533,-0.25178856,-0.14783539,0.00285966
 ,-0.00013771,-0.00017613,-0.00007895,0.00022450,0.00000198,0.00010286,
 0.00000527,0.00005186,-0.00000598,-0.00003485,0.00002787,0.00001153,-0
 .00000035,-0.00000661,-0.00000415,0.00000625,-0.00001525,0.00000357,-0
 .00000513,0.00001065,0.00000271,0.00002851,-0.00001061,-0.00000311,-0.
 00000326,0.00001010,-0.00000017,0.00040979,0.00050137,-0.00005950,0.00
 110260,-0.00090032,-0.00020901,0.26916463,-0.02604325,-0.01179291,0.00
 038738,0.00108914,0.00203285,0.00000142,0.00022868,-0.00561281,0.00041
 679,-0.00111799,0.00266491,0.00017108,-0.00038971,0.00104207,-0.000043
 33,0.00026587,0.00011628,-0.00003006,-0.00000639,-0.00003669,-0.000023
 16,0.00000195,0.00003451,0.00000194,0.00157763,-0.00496918,-0.00025868
 ,0.00106849,-0.00083418,-0.00002587,0.00343178,-0.00086884,-0.00016289
 ,0.01251235,0.01129159,-0.00023741,-0.14625222,-0.16565694,0.00251788,
 -0.00008485,0.00001130,0.00004013,-0.00010781,0.00003449,-0.00009322,-
 0.00002859,-0.00003321,-0.00001047,0.00002000,-0.00000292,-0.00001053,
 0.00000152,0.00000353,-0.00000031,-0.00000900,0.00001052,0.00000362,0.
 00000144,-0.00000820,0.00000444,-0.00002489,0.00000432,0.00000240,-0.0
 0000012,-0.00000597,-0.00000552,-0.00113300,-0.00063054,0.00002180,0.0
 0102442,0.00073620,0.00002822,0.15344499,0.17179827,-0.00079599,-0.000
 49962,0.00516457,0.00055109,0.00025475,-0.00381634,-0.00068389,-0.0018
 1157,0.00033113,0.00094482,0.00073345,-0.00096291,-0.00001386,0.000386
 33,0.00031709,0.00009379,0.00002996,0.00014370,-0.00000822,-0.00001452
 ,-0.00001287,-0.00000078,0.00000519,0.00000545,0.00031352,-0.00040211,
 0.00618917,0.00002333,-0.00011153,-0.00069175,0.00018975,0.00008473,0.
 00618702,0.00034702,0.00014133,0.00265181,0.00371170,0.00368067,-0.037
 58931,0.00004107,0.00001931,-0.00035625,0.00001651,0.00004085,0.000108
 23,-0.00001084,-0.00002008,-0.00004507,-0.00000916,0.00002211,-0.00002
 114,0.00000542,-0.00001168,-0.00000821,-0.00000089,0.00001252,-0.00000
 287,0.00000427,0.00000171,-0.00000304,-0.00000459,0.00000104,-0.000000
 75,-0.00000520,-0.00000387,-0.00000522,-0.00007739,-0.00005208,-0.0001
 6309,-0.00008598,0.00008928,-0.00280161,-0.00463231,-0.00267116,0.0257
 5230,-0.00655445,0.00426680,0.00007367,0.00453395,-0.00016414,-0.00021
 975,-0.00560239,-0.00012185,0.00024880,0.00197186,0.00031908,-0.000136
 98,0.00259419,-0.00127513,-0.00041335,-0.00095258,-0.00037249,0.000150
 04,0.00006937,0.00022843,0.00002682,0.00000874,-0.00014909,-0.00000267
 ,-0.02432983,-0.01288469,0.00232011,-0.17636508,-0.06104883,0.00780532
 ,0.00990416,-0.00828577,-0.00179175,0.00369589,-0.00013370,-0.00026933
 ,0.00053525,0.00319199,0.00023134,-0.00044032,0.00014230,0.00001926,-0
 .00011157,0.00028826,0.00009017,0.00020400,0.00009607,0.00004022,0.000
 02673,0.00005498,0.00001805,-0.00002664,-0.00000809,0.00000178,-0.0000
 0375,-0.00002637,-0.00000102,-0.00001552,0.00004035,-0.00000389,0.0001
 1531,-0.00004228,-0.00001192,-0.00000932,0.00003825,0.00001304,-0.0005
 4624,-0.00052571,-0.00018620,0.00023848,0.00415166,0.00023171,-0.00072
 098,0.00007406,0.00005345,0.60750801,0.00328405,0.00298774,-0.00063861
 ,0.00549666,0.00016623,-0.00003031,-0.00396479,0.00020318,0.00024010,0
 .00132912,-0.00040986,0.00000106,0.00220919,-0.00125748,-0.00049778,-0
 .00059033,-0.00028771,0.00013350,0.00005598,0.00022414,0.00001927,0.00
 002934,-0.00012251,-0.00000506,0.00274131,0.01784267,-0.00170908,-0.06
 079273,-0.13657107,0.00474262,-0.02484127,-0.01598921,0.00274805,-0.00
 043361,-0.00764405,-0.00041822,0.00383892,-0.00236128,-0.00005132,0.00
 037740,0.00045442,-0.00002751,0.00004206,0.00033505,0.00018344,0.00013
 236,0.00005997,0.00000410,0.00000708,0.00003324,0.00002668,-0.00001013
 ,-0.00001019,-0.00003716,0.00000450,-0.00003564,0.00003990,-0.00001939
 ,0.00001878,0.00001364,0.00008742,-0.00002385,-0.00000825,-0.00001677,
 0.00002074,-0.00000762,0.00411192,-0.00188768,0.00022878,-0.00029798,0
 .00043246,-0.00005321,-0.00033105,-0.00035580,0.00004652,0.03118513,0.
 58019387,0.00022576,-0.00102204,0.00655092,-0.00031674,-0.00005207,-0.
 00007204,0.00040291,-0.00004399,0.00011019,-0.00017921,0.00003054,-0.0
 0010100,-0.00026461,0.00002738,-0.00016260,0.00009167,0.00005006,0.000
 05658,-0.00000449,-0.00002402,0.00004372,0.00000012,0.00001291,0.00000
 006,-0.00063258,0.00099850,-0.00054671,0.00459534,0.00236964,-0.067435
 51,-0.00098575,-0.00148791,0.00020365,-0.00082072,-0.00023002,0.006448
 62,-0.00020246,-0.00024003,-0.00101108,0.00012179,0.00002254,0.0004203
 4,0.00000249,0.00001832,0.00013992,-0.00004018,-0.00003134,-0.00002027
 ,0.00001059,0.00000917,-0.00000533,0.00000585,-0.00001537,-0.00002250,
 0.00000013,0.00002372,-0.00001351,0.00000703,0.00000895,-0.00000529,-0
 .00000738,0.00000183,0.00000847,-0.00000823,-0.00001486,-0.00001164,0.
 00064661,-0.00010272,-0.00217153,-0.00002379,-0.00035620,0.00003111,-0
 .00000282,-0.00002112,-0.00043756,0.00250820,-0.00002105,0.51122571,-0
 .00027286,-0.00081075,-0.00002058,0.00054128,0.00000379,-0.00001027,-0
 .00023885,-0.00040017,0.00003521,-0.00015524,0.00028084,0.00002876,0.0
 0002838,0.00003910,-0.00001618,-0.00000131,0.00000254,0.00000362,0.000
 00127,0.00000245,-0.00000056,0.00000041,-0.00000040,-0.00000002,0.0017
 2276,-0.00066638,-0.00002744,0.00266960,0.00066323,-0.00013802,-0.2998
 2826,0.11300074,0.00754986,-0.01761523,0.01263749,0.00072535,-0.002041
 15,-0.00369026,0.00001187,-0.00001699,0.00002937,0.00000623,-0.0000073
 6,0.00001196,0.00000042,0.00000465,-0.00000151,0.00000043,0.00000370,-
 0.00000050,-0.00000149,-0.00000062,0.00000047,-0.00000021,-0.00000091,
 0.00000045,0.00000045,-0.00000019,0.00000006,0.00000014,0.00000045,-0.
 00000030,-0.00000005,-0.00000015,0.00000017,-0.00000017,0.00018459,-0.
 00016873,0.00001366,0.00098609,0.00054339,-0.00003657,-0.00051105,0.00
 063851,-0.00001804,-0.00016079,-0.00021559,-0.00000739,0.31564028,-0.0
 0039218,-0.00098112,0.00002052,0.00004023,0.00032582,-0.00001589,-0.00
 002169,-0.00024130,0.00004043,-0.00011843,0.00019522,0.00001865,-0.000
 01161,0.00006881,0.00000008,0.00000764,0.00000011,-0.00000069,0.000001
 35,-0.00000063,-0.00000071,0.00000005,0.00000092,-0.00000039,-0.001233
 50,-0.00530056,-0.00017677,0.02757646,-0.00702261,-0.00090081,0.114646
 45,-0.11102793,-0.00350242,-0.01742322,0.01052139,0.00059593,-0.003301
 90,-0.00225725,-0.00008206,-0.00014931,0.00000284,0.00001040,-0.000013
 63,-0.00000082,-0.00000871,-0.00000038,-0.00000067,0.00000025,0.000001
 19,0.00000045,-0.00000060,-0.00000016,0.00000006,0.00000026,-0.0000006
 6,0.00000035,-0.00000009,0.00000015,-0.00000011,0.00000026,-0.00000036
 ,-0.00000004,-0.00000002,0.00000009,0.00000004,-0.00000022,0.00143818,
 -0.00040095,-0.00006567,-0.00071196,0.00082370,0.00006645,-0.00065001,
 0.00068789,-0.00002610,0.00377068,-0.00159527,0.00049222,-0.12049223,0
 .11470168,0.00009566,0.00005487,-0.00079969,-0.00009717,0.00001082,-0.
 00063682,-0.00000520,-0.00003553,-0.00016479,-0.00007345,0.00003843,-0
 .00003478,-0.00000608,-0.00000154,0.00007626,0.00000611,-0.00000106,0.
 00002221,-0.00000122,-0.00000293,0.00000268,0.00000005,0.00000093,0.00
 000041,0.00001087,-0.00037148,0.00593563,0.00059557,-0.00052855,0.0027
 3667,0.00680569,-0.00298728,-0.03359755,0.00025849,-0.00012935,0.00216
 992,0.00005656,0.00002625,0.00560728,-0.00000854,-0.00002852,0.0001045
 3,0.00001359,0.00000268,0.00002143,0.00000066,-0.00000365,-0.00000714,
 -0.00000438,0.00000708,-0.00000431,0.00000056,-0.00000218,-0.00000145,
 0.00000011,0.00000226,-0.00000134,0.00000081,0.00000075,-0.00000051,-0
 .00000059,0.00000013,0.00000038,-0.00000109,-0.00000085,-0.00000102,0.
 00005554,-0.00002459,0.00070951,-0.00009013,0.00005599,-0.00262091,0.0
 0004879,-0.00000504,0.00031641,0.00025880,-0.00021113,-0.00207422,-0.0
 0768990,0.00381353,0.02416543,0.00135019,-0.00052204,-0.00152076,-0.00
 142894,-0.00013082,0.00005355,0.00165112,-0.00000350,-0.00000311,-0.00
 060251,-0.00002949,0.00000487,-0.00081763,0.00039603,0.00011719,0.0002
 9027,0.00012082,-0.00004368,-0.00002205,-0.00007411,-0.00000357,-0.000
 00306,0.00004563,-0.00000037,0.00092591,-0.00175712,0.00020756,-0.0080
 8819,-0.01479867,0.03377094,-0.00218835,0.00170411,0.00103163,-0.00138
 594,0.00068704,-0.00159143,-0.00023709,-0.00099690,0.00025644,0.000087
 15,-0.00005545,0.00001584,0.00002796,-0.00008981,-0.00002286,-0.000063
 24,-0.00003080,-0.00001199,-0.00000555,-0.00001597,-0.00000677,0.00000
 791,0.00000137,-0.00000056,0.00000034,0.00001101,-0.00000302,0.0000057
 0,-0.00001076,-0.00000014,-0.00003549,0.00001251,0.00000456,0.00000308
 ,-0.00001255,-0.00000419,0.00001609,0.00028121,0.00069866,0.00000761,-
 0.00090956,-0.00008315,0.00022052,0.00000657,0.00009285,-0.09983445,-0
 .02115237,0.06167485,-0.00000900,-0.00055314,0.00090287,0.09362376,-0.
 00027084,-0.00153723,-0.00115011,-0.00127666,0.00002030,-0.00011547,0.
 00122245,-0.00012417,-0.00004923,-0.00043011,0.00011294,-0.00002398,-0
 .00065214,0.00036546,0.00011848,0.00019619,0.00008864,-0.00003045,-0.0
 0001724,-0.00006470,0.00000222,-0.00000665,0.00003672,0.00000017,0.000
 94353,-0.00260823,0.00086577,-0.01456171,0.00078104,0.02513370,-0.0006
 2290,0.00047949,-0.00013652,0.00052942,0.00138020,-0.00100683,-0.00110
 195,0.00051668,0.00025074,-0.00003009,-0.00008435,0.00007714,-0.000002
 92,-0.00008825,-0.00003130,-0.00004377,-0.00002235,-0.00000503,-0.0000
 0184,-0.00000958,-0.00000799,0.00000463,0.00000115,0.00000543,-0.00000
 069,0.00001216,-0.00001067,0.00000592,-0.00000559,-0.00000344,-0.00002
 668,0.00000812,0.00000351,0.00000343,-0.00000854,-0.00000027,-0.000582
 65,0.00019062,0.00083094,-0.00002858,-0.00041184,0.00003226,0.00014471
 ,0.00006388,0.00008354,-0.02109933,-0.08948695,0.04903065,0.00024299,0
 .00014242,0.00041714,0.01205921,0.09014567,-0.00020864,0.00081367,0.00
 084801,0.00139354,0.00015150,0.00022032,-0.00133143,-0.00004606,-0.000
 01834,0.00047759,0.00001575,0.00005989,0.00070423,-0.00029899,-0.00004
 389,-0.00022839,-0.00010874,0.00000808,0.00001911,0.00006463,-0.000016
 77,0.00000385,-0.00003885,-0.00000178,-0.00021475,0.00215058,0.0005677
 5,0.01258664,0.00960569,-0.01856665,0.00185481,-0.00068178,0.00037901,
 0.00076225,-0.00047950,0.00102797,0.00043022,0.00029038,-0.00016476,-0
 .00009278,0.00004107,-0.00021891,-0.00001026,0.00005968,-0.00003936,0.
 00005991,0.00003443,0.00001566,-0.00000048,0.00000723,0.00000792,-0.00
 000731,0.00000511,0.00000837,0.00000019,-0.00001876,0.00001003,-0.0000
 0670,0.00000277,0.00000330,0.00002697,-0.00000845,-0.00000645,0.000001
 70,0.00001432,0.00000675,-0.00009773,-0.00024783,-0.00123399,0.0000600
 1,0.00081081,0.00007027,-0.00014280,-0.00000582,-0.00014928,0.06071805
 ,0.04890115,-0.23528378,-0.00021093,0.00003550,-0.00119227,-0.07354186
 ,-0.06179419,0.37601604,-0.00023429,0.00038576,0.00129564,-0.00251604,
 -0.00085821,0.00036282,0.00226550,0.00060467,-0.00017337,-0.00074027,-
 0.00035940,0.00010615,-0.00115500,0.00040771,0.00018007,0.00039957,0.0
 0018622,-0.00007257,-0.00003821,-0.00009807,-0.00001731,-0.00000341,0.
 00006505,0.00000202,-0.00259675,-0.00831585,-0.00177579,-0.04341939,0.
 02125594,-0.02107557,-0.00144856,0.00186701,0.00052124,0.00018011,0.00
 159717,0.00075907,-0.00072510,-0.00020200,-0.00027529,0.00021597,-0.00
 006456,-0.00006604,0.00006336,-0.00011578,-0.00003521,-0.00008678,-0.0
 0003910,-0.00001886,-0.00001506,-0.00002552,-0.00000392,0.00001169,0.0
 0000503,-0.00000155,0.00000290,0.00000664,0.00000575,0.00000506,-0.000
 01894,0.00000431,-0.00004869,0.00001701,0.00000418,0.00000380,-0.00001
 485,-0.00000592,0.00060716,0.00028662,-0.00051563,0.00010456,-0.001280
 13,-0.00006857,0.00023137,-0.00008008,-0.00005865,-0.23427009,0.052212
 66,-0.07061711,-0.00099747,-0.00197612,-0.00089024,0.00929366,0.010081
 16,-0.02463379,0.29190989,-0.00022913,-0.00026699,0.00025849,-0.000893
 15,0.00017639,0.00001466,0.00048918,-0.00005386,0.00002957,-0.00013828
 ,0.00009247,-0.00001721,-0.00025763,0.00017875,0.00006151,0.00005127,0
 .00002500,-0.00002065,-0.00000486,-0.00002874,-0.00000021,-0.00000521,
 0.00001325,0.00000153,-0.00080496,-0.00153328,-0.00028425,-0.00908914,
 0.00953649,-0.00201424,-0.00093893,-0.00307245,-0.00152145,0.00032547,
 0.00153440,-0.00029080,-0.00069689,0.00043046,0.00002113,-0.00011188,-
 0.00008414,0.00001088,-0.00001796,-0.00004782,-0.00002576,-0.00001526,
 -0.00000590,0.00000188,0.00000095,-0.00000196,-0.00000507,0.00000045,0
 .00000083,0.00000697,-0.00000126,0.00000687,-0.00000950,0.00000323,-0.
 00000020,-0.00000383,-0.00000931,0.00000193,0.00000122,0.00000240,-0.0
 0000206,0.00000237,-0.00064146,0.00024254,-0.00009577,-0.00004258,0.00
 006162,-0.00000603,-0.00005968,0.00011055,0.00004228,0.06004015,-0.102
 73779,0.02899624,-0.00199668,0.00062255,0.00026804,0.01654536,-0.00325
 073,0.03218996,-0.11768398,0.14844915,0.00010317,0.00111159,-0.0002983
 6,-0.00052843,-0.00031377,0.00006371,0.00040302,0.00025124,-0.00011346
 ,-0.00012056,-0.00015067,0.00006156,-0.00018904,0.00003921,0.00006235,
 0.00006749,0.00003341,-0.00001976,-0.00000839,-0.00001469,-0.00001269,
 -0.00000023,0.00001161,0.00000091,-0.00145034,-0.00224621,0.00072797,-
 0.00828545,0.00533964,0.00512712,0.00025105,0.00116841,0.00059278,-0.0
 0046270,0.00011470,0.00021415,0.00028868,-0.00049322,-0.00005241,0.000
 06913,-0.00000821,-0.00007564,0.00002017,-0.00002279,-0.00002546,-0.00
 001124,-0.00000305,-0.00000122,-0.00000606,-0.00000750,0.00000095,0.00
 000161,0.00000382,0.00000202,0.00000128,-0.00000370,0.00000589,-0.0000
 0067,-0.00000606,0.00000267,-0.00000863,0.00000318,-0.00000074,0.00000
 177,-0.00000055,0.00000020,0.00007993,-0.00002086,-0.00007995,0.000024
 25,-0.00029742,0.00000305,0.00003354,-0.00003745,-0.00004846,-0.072090
 98,0.02570901,-0.10569256,-0.00020484,-0.00045262,-0.00064228,-0.04160
 134,0.03637138,-0.05890636,0.11418626,-0.06315668,0.14240413,0.0021485
 9,-0.00076411,-0.00000226,-0.00110898,-0.00003928,0.00000869,0.0012787
 6,0.00023501,-0.00009125,-0.00039806,-0.00020426,0.00004186,-0.0005629
 0,0.00023494,0.00008078,0.00020660,0.00008277,-0.00002859,-0.00001655,
 -0.00004855,-0.00000464,-0.00000153,0.00003154,0.00000076,-0.00296935,
 -0.00055960,-0.00138772,0.00737404,-0.02583914,-0.00966711,-0.00442390
 ,-0.00021168,-0.00062789,0.00001949,-0.00050628,0.00060915,-0.00017743
 ,-0.00068215,-0.00013101,0.00018426,-0.00002555,0.00002267,0.00003332,
 -0.00005965,-0.00000956,-0.00004668,-0.00002122,-0.00001042,-0.0000080
 8,-0.00001156,-0.00000295,0.00000680,0.00000114,-0.00000226,0.00000150
 ,0.00000545,0.00000121,0.00000309,-0.00000866,0.00000115,-0.00002457,0
 .00000895,0.00000272,0.00000138,-0.00000853,-0.00000336,-0.00103456,-0
 .00236941,-0.00019056,-0.00012005,-0.00100928,0.00003163,0.00012277,-0
 .00010950,0.00001719,-0.08146196,0.00552089,0.00382012,0.00007396,-0.0
 0043200,-0.00024273,0.00721024,0.01532311,0.02162879,-0.01699951,0.056
 17976,0.00943755,0.09068932,0.00125541,-0.00062366,0.00063842,-0.00216
 328,0.00029379,0.00009404,0.00175023,-0.00030964,-0.00009051,-0.000606
 23,0.00027440,0.00003139,-0.00089933,0.00061067,0.00025022,0.00023885,
 0.00010140,-0.00007395,-0.00001913,-0.00009520,-0.00001579,-0.00001390
 ,0.00005109,0.00000257,0.00242450,-0.00238474,0.00073946,0.00335960,-0
 .03994012,-0.02135453,-0.00773658,0.00013499,-0.00127260,0.00054137,-0
 .00017637,0.00117510,-0.00057619,-0.00006888,-0.00021093,-0.00020548,-
 0.00021938,-0.00007640,-0.00002709,-0.00015843,-0.00011317,-0.00005095
 ,-0.00002034,0.00000459,-0.00000293,-0.00001531,-0.00001280,0.00000258
 ,0.00000698,0.00002340,-0.00000257,0.00001331,-0.00001879,0.00000825,-
 0.00000918,-0.00000665,-0.00003758,0.00001063,0.00000227,0.00000955,-0
 .00000647,0.00000661,-0.00226663,0.00066292,-0.00081281,-0.00041968,-0
 .00121964,0.00008037,0.00012903,0.00016506,-0.00005126,-0.00175075,-0.
 24219616,-0.07842991,0.00034594,0.00073502,-0.00036523,0.00927217,0.00
 335699,-0.03146523,0.04215396,-0.05039732,-0.00292174,-0.04471315,0.33
 142357,-0.00001055,-0.00057884,0.00012639,-0.00052898,0.00009388,0.000
 14651,0.00037879,-0.00005035,-0.00005740,-0.00011424,0.00005474,0.0000
 3702,-0.00018910,0.00015535,0.00009836,0.00003956,0.00001550,-0.000029
 16,-0.00000431,-0.00002040,-0.00001625,-0.00000419,0.00001100,0.000001
 17,0.00140871,-0.00030825,0.00075842,0.00249641,-0.01052839,0.00390345
 ,-0.00272458,-0.00065609,0.00082745,0.00110163,-0.00017189,-0.00033009
 ,-0.00046734,0.00049208,0.00001628,-0.00006464,-0.00005710,-0.00014508
 ,-0.00000681,-0.00004466,-0.00006055,-0.00000539,0.00000132,0.00000627
 ,-0.00000357,-0.00000673,-0.00000265,-0.00000076,0.00000549,0.00001152
 ,-0.00000051,-0.00000153,-0.00000137,0.00000058,-0.00000433,-0.0000008
 6,-0.00000800,0.00000197,-0.00000143,0.00000449,0.00000186,0.00000464,
 -0.00064124,0.00011334,-0.00069366,-0.00017620,-0.00031171,-0.00003562
 ,0.00001166,0.00004496,-0.00005112,0.00031901,-0.07932150,-0.11017215,
 0.00000665,0.00013930,-0.00008964,0.01960699,-0.04885759,-0.06340676,0
 .00287789,0.00554471,0.01669988,-0.02330196,0.13424386,0.15245643\\-0.
 00000023,0.00000018,-0.00000019,-0.00000107,0.00000097,0.00000083,0.00
 000108,0.00000067,-0.00000124,0.00000083,-0.00000131,-0.00000158,0.000
 00075,-0.00000034,0.00000004,-0.00000277,-0.00000126,0.00000017,0.0000
 0069,-0.00000104,-0.00000008,-0.00000102,-0.00000199,-0.00000012,-0.00
 000010,-0.00000033,0.00000163,0.00000182,0.00000123,0.00000051,-0.0000
 0127,0.00000144,-0.00000048,0.00000146,0.00000072,-0.00000124,0.000001
 22,0.00000022,-0.00000160,0.00000003,-0.00000050,0.00000131,-0.0000004
 2,-0.00000018,0.00000095,0.00000094,0.00000051,-0.00000146,0.00000031,
 -0.00000162,-0.00000190,-0.00000112,-0.00000301,0.00000096,-0.00000071
 ,-0.00000061,0.00000114,-0.00000019,-0.00000226,-0.00000162,-0.0000006
 2,-0.00000225,-0.00000034,0.00000010,-0.00000103,-0.00000083,-0.000000
 34,0.00000111,0.00000218,0.00000094,0.00000170,-0.00000373,0.00000080,
 0.00000049,-0.00000220,-0.00000122,0.00000277,0.00000187,0.00000064,0.
 00000135,-0.00000100,0.00000011,0.00000243,0.00000393,-0.00000011,0.00
 000131,0.00000112,-0.00000053,0.00000060,0.00000296\\\@


 THERE IS NO SCIENCE WITHOUT FANCY, NOR ART WITHOUT FACTS.
     -- VLADIMIR NABAKOV
 Job cpu time:       0 days  3 hours 25 minutes 40.7 seconds.
 Elapsed time:       0 days  3 hours 25 minutes 58.3 seconds.
 File lengths (MBytes):  RWF=    583 Int=      0 D2E=      0 Chk=     16 Scr=      1
 Normal termination of Gaussian 16 at Tue Sep 15 14:15:09 2020.
