 Entering Gaussian System, Link 0=/apps/gaussian/g16c01/g16/g16
 Initial command:
 /apps/gaussian/g16c01/g16/l1.exe "/jobfs/10906473.gadi-pbs/Gau-1415764.inp" -scrdir="/jobfs/10906473.gadi-pbs/"
 Entering Link 1 = /apps/gaussian/g16c01/g16/l1.exe PID=   1415765.
  
 Copyright (c) 1988-2019, Gaussian, Inc.  All Rights Reserved.
  
 This is part of the Gaussian(R) 16 program.  It is based on
 the Gaussian(R) 09 system (copyright 2009, Gaussian, Inc.),
 the Gaussian(R) 03 system (copyright 2003, Gaussian, Inc.),
 the Gaussian(R) 98 system (copyright 1998, Gaussian, Inc.),
 the Gaussian(R) 94 system (copyright 1995, Gaussian, Inc.),
 the Gaussian 92(TM) system (copyright 1992, Gaussian, Inc.),
 the Gaussian 90(TM) system (copyright 1990, Gaussian, Inc.),
 the Gaussian 88(TM) system (copyright 1988, Gaussian, Inc.),
 the Gaussian 86(TM) system (copyright 1986, Carnegie Mellon
 University), and the Gaussian 82(TM) system (copyright 1983,
 Carnegie Mellon University). Gaussian is a federally registered
 trademark of Gaussian, Inc.
  
 This software contains proprietary and confidential information,
 including trade secrets, belonging to Gaussian, Inc.
  
 This software is provided under written license and may be
 used, copied, transmitted, or stored only in accord with that
 written license.
  
 The following legend is applicable only to US Government
 contracts under FAR:
  
                    RESTRICTED RIGHTS LEGEND
  
 Use, reproduction and disclosure by the US Government is
 subject to restrictions as set forth in subparagraphs (a)
 and (c) of the Commercial Computer Software - Restricted
 Rights clause in FAR 52.227-19.
  
 Gaussian, Inc.
 340 Quinnipiac St., Bldg. 40, Wallingford CT 06492
  
  
 ---------------------------------------------------------------
 Warning -- This program may not be used in any manner that
 competes with the business of Gaussian, Inc. or will provide
 assistance to any competitor of Gaussian, Inc.  The licensee
 of this program is prohibited from giving any competitor of
 Gaussian, Inc. access to this program.  By using this program,
 the user acknowledges that Gaussian, Inc. is engaged in the
 business of creating and licensing software in the field of
 computational chemistry and represents and warrants to the
 licensee that it is not a competitor of Gaussian, Inc. and that
 it will not use this program in any manner prohibited above.
 ---------------------------------------------------------------
  

 Cite this work as:
 Gaussian 16, Revision C.01,
 M. J. Frisch, G. W. Trucks, H. B. Schlegel, G. E. Scuseria, 
 M. A. Robb, J. R. Cheeseman, G. Scalmani, V. Barone, 
 G. A. Petersson, H. Nakatsuji, X. Li, M. Caricato, A. V. Marenich, 
 J. Bloino, B. G. Janesko, R. Gomperts, B. Mennucci, H. P. Hratchian, 
 J. V. Ortiz, A. F. Izmaylov, J. L. Sonnenberg, D. Williams-Young, 
 F. Ding, F. Lipparini, F. Egidi, J. Goings, B. Peng, A. Petrone, 
 T. Henderson, D. Ranasinghe, V. G. Zakrzewski, J. Gao, N. Rega, 
 G. Zheng, W. Liang, M. Hada, M. Ehara, K. Toyota, R. Fukuda, 
 J. Hasegawa, M. Ishida, T. Nakajima, Y. Honda, O. Kitao, H. Nakai, 
 T. Vreven, K. Throssell, J. A. Montgomery, Jr., J. E. Peralta, 
 F. Ogliaro, M. J. Bearpark, J. J. Heyd, E. N. Brothers, K. N. Kudin, 
 V. N. Staroverov, T. A. Keith, R. Kobayashi, J. Normand, 
 K. Raghavachari, A. P. Rendell, J. C. Burant, S. S. Iyengar, 
 J. Tomasi, M. Cossi, J. M. Millam, M. Klene, C. Adamo, R. Cammi, 
 J. W. Ochterski, R. L. Martin, K. Morokuma, O. Farkas, 
 J. B. Foresman, and D. J. Fox, Gaussian, Inc., Wallingford CT, 2019.
 
 ******************************************
 Gaussian 16:  ES64L-G16RevC.01  3-Jul-2019
                 4-Sep-2020 
 ******************************************
 %chk=NM3CA_c2.M062X_6-311pGd_opt_Pentadecane_GD3.chk
 ----------------------------------------------------------------------
 # M062X/6-311+G* SCF=Tight INT(grid=ultrafine) OPT(ReCalcFC=5) IOP(2/1
 7=4) Symmetry=None EmpiricalDispersion=GD3 SCRF=(SMD,Solvent=n-Pentade
 cane)
 ----------------------------------------------------------------------
 1/10=4,18=20,19=15,26=6,38=1,71=5/1,3;
 2/9=110,12=2,15=3,17=4,18=5,40=1/2;
 3/5=4,6=6,7=11,11=2,25=1,30=1,70=32201,71=2,72=151,74=-55,75=-5,124=31,140=1/1,2,3;
 4//1;
 5/5=2,32=2,38=5,53=151/2;
 8/6=4,10=90,11=11/1;
 11/6=1,8=1,9=11,15=111,16=1,31=1/1,2,10;
 10/6=1,13=1,31=1/2;
 6/7=2,8=2,9=2,10=2,28=1/1;
 7/10=1,25=1,30=1/1,2,3,16;
 1/10=4,18=20,19=15,26=6,71=5/3(3);
 2/9=110,15=3,17=4/2;
 7/9=1,25=1,30=1,44=-1/16;
 99//99;
 2/9=110,15=3,17=4/2;
 3/5=4,6=6,7=11,11=2,25=1,30=1,70=32205,71=2,72=151,74=-55,75=-5,124=31,140=1/1,2,3;
 4/5=5,16=3,69=1/1;
 5/5=2,32=2,38=5,53=151/2;
 8/6=4,10=90,11=11/1;
 11/6=1,8=1,9=11,15=111,16=1,31=1/1,2,10;
 10/6=1,13=1,31=1/2;
 7/10=1,25=1,30=1/1,2,3,16;
 1/18=20,19=15,26=6,71=5/3(-8);
 2/9=110,15=3,17=4/2;
 6/7=2,8=2,9=2,10=2,19=2,28=1/1;
 7/9=1,25=1,30=1,44=-1/16;
 99/9=1/99;
 -------------------------------------------
 NM3CA_c2.M062X_6-311pGd_opt_Pentadecane_GD3
 -------------------------------------------
 Symbolic Z-matrix:
 Charge =  0 Multiplicity = 1
 C                    -5.9333    1.50514   0.11561 
 N                    -4.6853    0.89531  -0.04918 
 C                    -3.45604   1.46341   0.1078 
 O                    -3.23703   2.62324   0.39584 
 O                    -2.50407   0.54742  -0.10207 
 C                    -1.14075   1.00322   0.03218 
 C                    -0.23657  -0.17814  -0.23647 
 C                     1.22715   0.23246  -0.11817 
 C                    -7.04903   0.65839   0.12127 
 C                    -8.31317   1.19757   0.26387 
 C                    -8.51905   2.5683    0.40814 
 C                    -7.3991    3.37879   0.39666 
 C                    -6.10863   2.88255   0.24983 
 H                    -4.68925  -0.09926  -0.24171 
 H                    -1.00166   1.3931    1.04257 
 H                    -0.97163   1.80939  -0.68472 
 H                    -0.44201  -0.56589  -1.23796 
 H                    -0.46599  -0.97445   0.47682 
 H                     1.47497   1.0182   -0.83623 
 H                     1.8856   -0.6161   -0.31067 
 H                     1.45106   0.60959   0.88286 
 H                    -6.90857  -0.41102   0.01489 
 Cl                   -7.60626   5.10378   0.56758 
 H                    -5.26729   3.55811   0.23501 
 C                    -9.52091   0.30725   0.26438 
 H                    -9.51373   2.98174   0.52337 
 F                    -10.24534   0.45082   1.38829 
 F                    -10.35037   0.59268  -0.75585 
 F                    -9.21255  -0.99048   0.16241 
 

 GradGradGradGradGradGradGradGradGradGradGradGradGradGradGradGradGradGrad
 Berny optimization.
 Initialization pass.
                           ----------------------------
                           !    Initial Parameters    !
                           ! (Angstroms and Degrees)  !
 --------------------------                            --------------------------
 ! Name  Definition              Value          Derivative Info.                !
 --------------------------------------------------------------------------------
 ! R1    R(1,2)                  1.3988         calculate D2E/DX2 analytically  !
 ! R2    R(1,9)                  1.4007         calculate D2E/DX2 analytically  !
 ! R3    R(1,13)                 1.395          calculate D2E/DX2 analytically  !
 ! R4    R(2,3)                  1.3632         calculate D2E/DX2 analytically  !
 ! R5    R(2,14)                 1.013          calculate D2E/DX2 analytically  !
 ! R6    R(3,4)                  1.215          calculate D2E/DX2 analytically  !
 ! R7    R(3,5)                  1.3377         calculate D2E/DX2 analytically  !
 ! R8    R(5,6)                  1.4437         calculate D2E/DX2 analytically  !
 ! R9    R(6,7)                  1.5117         calculate D2E/DX2 analytically  !
 ! R10   R(6,15)                 1.0919         calculate D2E/DX2 analytically  !
 ! R11   R(6,16)                 1.092          calculate D2E/DX2 analytically  !
 ! R12   R(7,8)                  1.5248         calculate D2E/DX2 analytically  !
 ! R13   R(7,17)                 1.0934         calculate D2E/DX2 analytically  !
 ! R14   R(7,18)                 1.0934         calculate D2E/DX2 analytically  !
 ! R15   R(8,19)                 1.0929         calculate D2E/DX2 analytically  !
 ! R16   R(8,20)                 1.0912         calculate D2E/DX2 analytically  !
 ! R17   R(8,21)                 1.0929         calculate D2E/DX2 analytically  !
 ! R18   R(9,10)                 1.3817         calculate D2E/DX2 analytically  !
 ! R19   R(9,22)                 1.0838         calculate D2E/DX2 analytically  !
 ! R20   R(10,11)                1.3936         calculate D2E/DX2 analytically  !
 ! R21   R(10,25)                1.5004         calculate D2E/DX2 analytically  !
 ! R22   R(11,12)                1.3825         calculate D2E/DX2 analytically  !
 ! R23   R(11,26)                1.0833         calculate D2E/DX2 analytically  !
 ! R24   R(12,13)                1.3904         calculate D2E/DX2 analytically  !
 ! R25   R(12,23)                1.7458         calculate D2E/DX2 analytically  !
 ! R26   R(13,24)                1.0791         calculate D2E/DX2 analytically  !
 ! R27   R(25,27)                1.3448         calculate D2E/DX2 analytically  !
 ! R28   R(25,28)                1.3455         calculate D2E/DX2 analytically  !
 ! R29   R(25,29)                1.3377         calculate D2E/DX2 analytically  !
 ! A1    A(2,1,9)              116.5914         calculate D2E/DX2 analytically  !
 ! A2    A(2,1,13)             123.6385         calculate D2E/DX2 analytically  !
 ! A3    A(9,1,13)             119.7627         calculate D2E/DX2 analytically  !
 ! A4    A(1,2,3)              127.5371         calculate D2E/DX2 analytically  !
 ! A5    A(1,2,14)             116.5472         calculate D2E/DX2 analytically  !
 ! A6    A(3,2,14)             115.7551         calculate D2E/DX2 analytically  !
 ! A7    A(2,3,4)              125.9909         calculate D2E/DX2 analytically  !
 ! A8    A(2,3,5)              109.7733         calculate D2E/DX2 analytically  !
 ! A9    A(4,3,5)              124.2358         calculate D2E/DX2 analytically  !
 ! A10   A(3,5,6)              116.1836         calculate D2E/DX2 analytically  !
 ! A11   A(5,6,7)              107.5508         calculate D2E/DX2 analytically  !
 ! A12   A(5,6,15)             108.6064         calculate D2E/DX2 analytically  !
 ! A13   A(5,6,16)             108.5581         calculate D2E/DX2 analytically  !
 ! A14   A(7,6,15)             111.5484         calculate D2E/DX2 analytically  !
 ! A15   A(7,6,16)             111.5688         calculate D2E/DX2 analytically  !
 ! A16   A(15,6,16)            108.9151         calculate D2E/DX2 analytically  !
 ! A17   A(6,7,8)              110.4828         calculate D2E/DX2 analytically  !
 ! A18   A(6,7,17)             109.1181         calculate D2E/DX2 analytically  !
 ! A19   A(6,7,18)             109.1295         calculate D2E/DX2 analytically  !
 ! A20   A(8,7,17)             110.2988         calculate D2E/DX2 analytically  !
 ! A21   A(8,7,18)             110.2986         calculate D2E/DX2 analytically  !
 ! A22   A(17,7,18)            107.4473         calculate D2E/DX2 analytically  !
 ! A23   A(7,8,19)             111.1183         calculate D2E/DX2 analytically  !
 ! A24   A(7,8,20)             110.8648         calculate D2E/DX2 analytically  !
 ! A25   A(7,8,21)             111.1406         calculate D2E/DX2 analytically  !
 ! A26   A(19,8,20)            107.8396         calculate D2E/DX2 analytically  !
 ! A27   A(19,8,21)            107.8937         calculate D2E/DX2 analytically  !
 ! A28   A(20,8,21)            107.8363         calculate D2E/DX2 analytically  !
 ! A29   A(1,9,10)             119.5579         calculate D2E/DX2 analytically  !
 ! A30   A(1,9,22)             119.529          calculate D2E/DX2 analytically  !
 ! A31   A(10,9,22)            120.913          calculate D2E/DX2 analytically  !
 ! A32   A(9,10,11)            121.9832         calculate D2E/DX2 analytically  !
 ! A33   A(9,10,25)            120.3261         calculate D2E/DX2 analytically  !
 ! A34   A(11,10,25)           117.6906         calculate D2E/DX2 analytically  !
 ! A35   A(10,11,12)           117.1356         calculate D2E/DX2 analytically  !
 ! A36   A(10,11,26)           121.4681         calculate D2E/DX2 analytically  !
 ! A37   A(12,11,26)           121.3964         calculate D2E/DX2 analytically  !
 ! A38   A(11,12,13)           122.9239         calculate D2E/DX2 analytically  !
 ! A39   A(11,12,23)           118.8376         calculate D2E/DX2 analytically  !
 ! A40   A(13,12,23)           118.2381         calculate D2E/DX2 analytically  !
 ! A41   A(1,13,12)            118.6348         calculate D2E/DX2 analytically  !
 ! A42   A(1,13,24)            121.2543         calculate D2E/DX2 analytically  !
 ! A43   A(12,13,24)           120.1098         calculate D2E/DX2 analytically  !
 ! A44   A(10,25,27)           111.748          calculate D2E/DX2 analytically  !
 ! A45   A(10,25,28)           111.7206         calculate D2E/DX2 analytically  !
 ! A46   A(10,25,29)           112.9582         calculate D2E/DX2 analytically  !
 ! A47   A(27,25,28)           106.1986         calculate D2E/DX2 analytically  !
 ! A48   A(27,25,29)           106.9441         calculate D2E/DX2 analytically  !
 ! A49   A(28,25,29)           106.8634         calculate D2E/DX2 analytically  !
 ! D1    D(9,1,2,3)           -169.411          calculate D2E/DX2 analytically  !
 ! D2    D(9,1,2,14)             5.7539         calculate D2E/DX2 analytically  !
 ! D3    D(13,1,2,3)            11.5868         calculate D2E/DX2 analytically  !
 ! D4    D(13,1,2,14)         -173.2484         calculate D2E/DX2 analytically  !
 ! D5    D(2,1,9,10)          -179.2284         calculate D2E/DX2 analytically  !
 ! D6    D(2,1,9,22)             0.8447         calculate D2E/DX2 analytically  !
 ! D7    D(13,1,9,10)           -0.1853         calculate D2E/DX2 analytically  !
 ! D8    D(13,1,9,22)          179.8878         calculate D2E/DX2 analytically  !
 ! D9    D(2,1,13,12)          179.4405         calculate D2E/DX2 analytically  !
 ! D10   D(2,1,13,24)           -0.1753         calculate D2E/DX2 analytically  !
 ! D11   D(9,1,13,12)            0.4683         calculate D2E/DX2 analytically  !
 ! D12   D(9,1,13,24)         -179.1475         calculate D2E/DX2 analytically  !
 ! D13   D(1,2,3,4)             -1.6377         calculate D2E/DX2 analytically  !
 ! D14   D(1,2,3,5)            178.288          calculate D2E/DX2 analytically  !
 ! D15   D(14,2,3,4)          -176.8354         calculate D2E/DX2 analytically  !
 ! D16   D(14,2,3,5)             3.0903         calculate D2E/DX2 analytically  !
 ! D17   D(2,3,5,6)           -179.8819         calculate D2E/DX2 analytically  !
 ! D18   D(4,3,5,6)              0.0454         calculate D2E/DX2 analytically  !
 ! D19   D(3,5,6,7)            179.7191         calculate D2E/DX2 analytically  !
 ! D20   D(3,5,6,15)            58.8592         calculate D2E/DX2 analytically  !
 ! D21   D(3,5,6,16)           -59.424          calculate D2E/DX2 analytically  !
 ! D22   D(5,6,7,8)            179.7329         calculate D2E/DX2 analytically  !
 ! D23   D(5,6,7,17)            58.3047         calculate D2E/DX2 analytically  !
 ! D24   D(5,6,7,18)           -58.8317         calculate D2E/DX2 analytically  !
 ! D25   D(15,6,7,8)           -61.2755         calculate D2E/DX2 analytically  !
 ! D26   D(15,6,7,17)          177.2963         calculate D2E/DX2 analytically  !
 ! D27   D(15,6,7,18)           60.1599         calculate D2E/DX2 analytically  !
 ! D28   D(16,6,7,8)            60.7885         calculate D2E/DX2 analytically  !
 ! D29   D(16,6,7,17)          -60.6397         calculate D2E/DX2 analytically  !
 ! D30   D(16,6,7,18)         -177.7761         calculate D2E/DX2 analytically  !
 ! D31   D(6,7,8,19)           -60.1063         calculate D2E/DX2 analytically  !
 ! D32   D(6,7,8,20)           179.9814         calculate D2E/DX2 analytically  !
 ! D33   D(6,7,8,21)            60.0585         calculate D2E/DX2 analytically  !
 ! D34   D(17,7,8,19)           60.6201         calculate D2E/DX2 analytically  !
 ! D35   D(17,7,8,20)          -59.2921         calculate D2E/DX2 analytically  !
 ! D36   D(17,7,8,21)         -179.2151         calculate D2E/DX2 analytically  !
 ! D37   D(18,7,8,19)          179.1531         calculate D2E/DX2 analytically  !
 ! D38   D(18,7,8,20)           59.2408         calculate D2E/DX2 analytically  !
 ! D39   D(18,7,8,21)          -60.6821         calculate D2E/DX2 analytically  !
 ! D40   D(1,9,10,11)           -0.2143         calculate D2E/DX2 analytically  !
 ! D41   D(1,9,10,25)          179.6484         calculate D2E/DX2 analytically  !
 ! D42   D(22,9,10,11)         179.7116         calculate D2E/DX2 analytically  !
 ! D43   D(22,9,10,25)          -0.4257         calculate D2E/DX2 analytically  !
 ! D44   D(9,10,11,12)           0.3088         calculate D2E/DX2 analytically  !
 ! D45   D(9,10,11,26)        -179.751          calculate D2E/DX2 analytically  !
 ! D46   D(25,10,11,12)       -179.5573         calculate D2E/DX2 analytically  !
 ! D47   D(25,10,11,26)          0.3829         calculate D2E/DX2 analytically  !
 ! D48   D(9,10,25,27)         122.7462         calculate D2E/DX2 analytically  !
 ! D49   D(9,10,25,28)        -118.4236         calculate D2E/DX2 analytically  !
 ! D50   D(9,10,25,29)           2.0989         calculate D2E/DX2 analytically  !
 ! D51   D(11,10,25,27)        -57.3853         calculate D2E/DX2 analytically  !
 ! D52   D(11,10,25,28)         61.4449         calculate D2E/DX2 analytically  !
 ! D53   D(11,10,25,29)       -178.0327         calculate D2E/DX2 analytically  !
 ! D54   D(10,11,12,13)         -0.0081         calculate D2E/DX2 analytically  !
 ! D55   D(10,11,12,23)        179.755          calculate D2E/DX2 analytically  !
 ! D56   D(26,11,12,13)       -179.9483         calculate D2E/DX2 analytically  !
 ! D57   D(26,11,12,23)         -0.1852         calculate D2E/DX2 analytically  !
 ! D58   D(11,12,13,1)          -0.3771         calculate D2E/DX2 analytically  !
 ! D59   D(11,12,13,24)        179.2431         calculate D2E/DX2 analytically  !
 ! D60   D(23,12,13,1)         179.8584         calculate D2E/DX2 analytically  !
 ! D61   D(23,12,13,24)         -0.5213         calculate D2E/DX2 analytically  !
 --------------------------------------------------------------------------------
 Trust Radius=3.00D-01 FncErr=5.00D-06 GrdErr=5.00D-06 EigMax=2.50D+02 EigMin=1.00D-04
 Number of steps in this run=    149 maximum allowed number of steps=    174.
 GradGradGradGradGradGradGradGradGradGradGradGradGradGradGradGradGradGrad

                          Input orientation:                          
 ---------------------------------------------------------------------
 Center     Atomic      Atomic             Coordinates (Angstroms)
 Number     Number       Type             X           Y           Z
 ---------------------------------------------------------------------
      1          6           0       -5.933300    1.505138    0.115606
      2          7           0       -4.685302    0.895312   -0.049181
      3          6           0       -3.456044    1.463407    0.107798
      4          8           0       -3.237029    2.623240    0.395842
      5          8           0       -2.504070    0.547420   -0.102073
      6          6           0       -1.140754    1.003220    0.032182
      7          6           0       -0.236572   -0.178140   -0.236467
      8          6           0        1.227149    0.232460   -0.118165
      9          6           0       -7.049031    0.658385    0.121265
     10          6           0       -8.313172    1.197566    0.263868
     11          6           0       -8.519046    2.568302    0.408137
     12          6           0       -7.399098    3.378787    0.396661
     13          6           0       -6.108629    2.882552    0.249826
     14          1           0       -4.689254   -0.099262   -0.241707
     15          1           0       -1.001663    1.393098    1.042568
     16          1           0       -0.971634    1.809392   -0.684723
     17          1           0       -0.442013   -0.565889   -1.237963
     18          1           0       -0.465990   -0.974454    0.476824
     19          1           0        1.474969    1.018197   -0.836227
     20          1           0        1.885602   -0.616096   -0.310666
     21          1           0        1.451065    0.609587    0.882862
     22          1           0       -6.908574   -0.411017    0.014888
     23         17           0       -7.606256    5.103778    0.567582
     24          1           0       -5.267295    3.558110    0.235015
     25          6           0       -9.520908    0.307246    0.264378
     26          1           0       -9.513733    2.981736    0.523367
     27          9           0      -10.245337    0.450824    1.388289
     28          9           0      -10.350366    0.592675   -0.755850
     29          9           0       -9.212555   -0.990475    0.162405
 ---------------------------------------------------------------------
                    Distance matrix (angstroms):
                    1          2          3          4          5
     1  C    0.000000
     2  N    1.398765   0.000000
     3  C    2.477620   1.363249   0.000000
     4  O    2.932331   2.298103   1.214969   0.000000
     5  O    3.567104   2.209434   1.337660   2.257028   0.000000
     6  C    4.819479   3.547123   2.361791   2.674151   1.443747
     7  C    5.950638   4.580237   3.630178   4.153347   2.384543
     8  C    7.276427   5.949891   4.847534   5.090080   3.744523
     9  C    1.400671   2.381681   3.682091   4.297372   4.551798
    10  C    2.404241   3.653875   4.866901   5.274201   5.856814
    11  C    2.811044   4.207806   5.190855   5.282317   6.365863
    12  C    2.395436   3.705552   4.393154   4.230092   5.676855
    13  C    1.395000   2.462598   3.011702   2.886980   4.309237
    14  H    2.061414   1.013045   2.021112   3.150785   2.283139
    15  H    5.019249   3.874132   2.627304   2.632179   2.069444
    16  H    5.035001   3.876955   2.630606   2.638558   2.068916
    17  H    6.022917   4.642608   3.874725   4.544444   2.604185
    18  H    6.014178   4.644922   3.875535   4.541874   2.608638
    19  H    7.485022   6.211560   5.040266   5.128068   4.073495
    20  H    8.112741   6.747555   5.747402   6.101950   4.546042
    21  H    7.477937   6.213319   5.040779   5.125447   4.076402
    22  H    2.152429   2.579445   3.929638   4.778293   4.509095
    23  Cl   3.994154   5.159802   5.539671   5.027197   6.873219
    24  H    2.161600   2.740434   2.772110   2.240944   4.100402
    25  C    3.785236   4.881314   6.176067   6.698377   7.030504
    26  H    3.894369   5.291004   6.258883   6.288227   7.446640
    27  F    4.617896   5.760025   6.982799   7.404102   7.884018
    28  F    4.593746   5.716986   7.002552   7.486599   7.873617
    29  F    4.121139   4.908868   6.257950   6.987156   6.887586
                    6          7          8          9         10
     6  C    0.000000
     7  C    1.511731   0.000000
     8  C    2.494722   1.524817   0.000000
     9  C    5.919002   6.872942   8.290590   0.000000
    10  C    7.178790   8.208189   9.596619   1.381703   0.000000
    11  C    7.551822   8.749733  10.036008   2.427142   1.393598
    12  C    6.703957   8.022117   9.196551   2.756624   2.368732
    13  C    5.315923   6.639682   7.808460   2.418223   2.774777
    14  H    3.725900   4.453383   5.926982   2.504861   3.882030
    15  H    1.091894   2.165660   2.768029   6.161109   7.355459
    16  H    1.092001   2.165995   2.764479   6.237723   7.427809
    17  H    2.136260   1.093411   2.162732   6.855584   8.204901
    18  H    2.136401   1.093404   2.162723   6.791835   8.145016
    19  H    2.756150   2.172627   1.092890   8.585152   9.851400
    20  H    3.449429   2.168164   1.091176   9.035404  10.374702
    21  H    2.756108   2.172909   1.092895   8.534286   9.801489
    22  H    5.938696   6.680794   8.162214   1.083820   2.149983
    23  Cl   7.674890   9.102604  10.110837   4.502356   3.981264
    24  H    4.857668   6.284110   7.304963   3.405279   3.853618
    25  C    8.412210   9.310496  10.755122   2.500791   1.500432
    26  H    8.617573   9.829948  11.105702   3.410924   2.166091
    27  F    9.221583  10.159272  11.573030   3.444533   2.356949
    28  F    9.252378  10.156414  11.600657   3.416499   2.357091
    29  F    8.315392   9.021488  10.514832   2.720527   2.367849
                   11         12         13         14         15
    11  C    0.000000
    12  C    1.382498   0.000000
    13  C    2.435965   1.390367   0.000000
    14  H    4.712272   4.455065   3.338780   0.000000
    15  H    7.635093   6.729587   5.378477   4.180290   0.000000
    16  H    7.663793   6.704081   5.330458   4.202371   1.777003
    17  H    8.818801   8.162934   6.798220   4.387404   3.058048
    18  H    8.798156   8.186888   6.838670   4.372437   2.492451
    19  H   10.189779   9.265067   7.884560   6.292838   3.131154
    20  H   10.904759  10.132377   8.744279   6.595498   3.768873
    21  H   10.171776   9.286024   7.919348   6.282566   2.579781
    22  H    3.409487   3.840440   3.397455   2.255751   6.261194
    23  Cl   2.699490   1.745772   2.697721   6.019591   7.590482
    24  H    3.403465   2.145431   1.079093   3.733332   4.851292
    25  C    2.477250   3.735497   4.275051   4.875065   8.623352
    26  H    1.083332   2.155315   3.417513   5.775248   8.674600
    27  F    2.902497   4.202067   4.931709   5.816318   9.298006
    28  F    2.934570   4.219086   4.924150   5.726370   9.553703
    29  F    3.634038   4.736449   4.964105   4.627939   8.595048
                   16         17         18         19         20
    16  H    0.000000
    17  H    2.495702   0.000000
    18  H    3.058539   1.762950   0.000000
    19  H    2.575812   2.519036   3.076049   0.000000
    20  H    3.766524   2.506031   2.505702   1.765148   0.000000
    21  H    3.125112   3.076262   2.519752   1.767145   1.765116
    22  H    6.377062   6.588628   6.483651   8.546978   8.802588
    23  Cl   7.512620   9.312974   9.377449  10.056406  11.116818
    24  H    4.728281   6.516162   6.607204   7.284013   8.299741
    25  C    8.731971   9.243685   9.147646  11.073667  11.458259
    26  H    8.706396   9.898688   9.874982  11.245246  11.982689
    27  F    9.599201  10.199807   9.924607  11.943030  12.295709
    28  F    9.457594   9.987500  10.083465  11.833262  12.303586
    29  F    8.744693   8.891777   8.752229  10.920403  11.114542
                   21         22         23         24         25
    21  H    0.000000
    22  H    8.466319   0.000000
    23  Cl  10.115939   5.586160   0.000000
    24  H    7.365450   4.300723   2.823195   0.000000
    25  C   10.993549   2.720742   5.173446   5.353710   0.000000
    26  H   11.224220   4.307688   2.853679   4.295066   2.687011
    27  F   11.708394   3.709851   5.411865   5.980483   1.344838
    28  F   11.914673   3.667066   5.443497   5.967682   1.345487
    29  F   10.807037   2.380307   6.315400   6.021626   1.337744
                   26         27         28         29
    26  H    0.000000
    27  F    2.772878   0.000000
    28  F    2.836189   2.151392   0.000000
    29  F    3.999933   2.155638   2.155034   0.000000
 Symmetry turned off by external request.
 Stoichiometry    C11H11ClF3NO2
 Rotational constants (GHZ):           0.5766533           0.1477333           0.1204258
 Standard basis: 6-311+G(d) (5D, 7F)
   437 basis functions,   720 primitive gaussians,   455 cartesian basis functions
    72 alpha electrons       72 beta electrons
       nuclear repulsion energy      1417.2987779703 Hartrees.
 NAtoms=   29 NActive=   29 NUniq=   29 SFac= 1.00D+00 NAtFMM=   60 NAOKFM=F Big=F
 Integral buffers will be    131072 words long.
 Raffenetti 2 integral format.
 Two-electron integral symmetry is turned off.
 Nuclear repulsion after empirical dispersion term =     1417.2974913583 Hartrees.
 Force inversion solution in PCM.
 ------------------------------------------------------------------------------
 Polarizable Continuum Model (PCM)
 =================================
 Model                : PCM.
 Atomic radii         : SMD-Coulomb.
 Polarization charges : Total charges.
 Charge compensation  : None.
 Solution method      : Matrix inversion.
 Cavity type          : VdW (van der Waals Surface) (Alpha=1.000).
 Cavity algorithm     : GePol (No added spheres)
                        Default sphere list used, NSphG=   29.
                        Lebedev-Laikov grids with approx.  5.0 points / Ang**2.
                        Smoothing algorithm: York/Karplus (Gamma=1.0000).
                        Polarization charges: spherical gaussians, with
                                              point-specific exponents (IZeta= 3).
                        Self-potential: point-specific (ISelfS= 7).
                        Self-field    : sphere-specific E.n sum rule (ISelfD= 2).
 1st derivatives      : Analytical E(r).r(x)/FMM algorithm (CHGder, D1EAlg=3).
                        Cavity 1st derivative terms included.
 2nd derivatives      : Analytical E(r).r(xy)/FMM algorithm (CHGder, D2EAlg=3).
                        Cavity 2nd derivative terms included.
 Solvent              : n-Pentadecane, Eps=   2.033300 Eps(inf)=   2.049192
 ------------------------------------------------------------------------------
 ------------------------------------------------------------------------------
 Atomic radii for non-electrostatic terms: SMD-CDS.
 ------------------------------------------------------------------------------
 Nuclear repulsion after PCM non-electrostatic terms =     1417.2921319553 Hartrees.
 One-electron integrals computed using PRISM.
 NBasis=   437 RedAO= T EigKep=  1.47D-06  NBF=   437
 NBsUse=   435 1.00D-06 EigRej=  8.79D-07 NBFU=   435
 ExpMin= 4.38D-02 ExpMax= 1.06D+05 ExpMxC= 3.62D+03 IAcc=3 IRadAn=         5 AccDes= 0.00D+00
 Harris functional with IExCor= 1009 and IRadAn=       5 diagonalized for initial guess.
 HarFok:  IExCor= 1009 AccDes= 0.00D+00 IRadAn=         5 IDoV= 1 UseB2=F ITyADJ=14
 ICtDFT=  3500011 ScaDFX=  1.000000  1.000000  1.000000  1.000000
 FoFCou: FMM=F IPFlag=           0 FMFlag=      100000 FMFlg1=           0
         NFxFlg=           0 DoJE=T BraDBF=F KetDBF=T FulRan=T
         wScrn=  0.000000 ICntrl=       500 IOpCl=  0 I1Cent=   200000004 NGrid=           0
         NMat0=    1 NMatS0=      1 NMatT0=    0 NMatD0=    1 NMtDS0=    0 NMtDT0=    0
 Symmetry not used in FoFCou.
 Requested convergence on RMS density matrix=1.00D-08 within 128 cycles.
 Requested convergence on MAX density matrix=1.00D-06.
 Requested convergence on             energy=1.00D-06.
 No special actions if energy rises.
 Inv3:  Mode=1 IEnd=    17948748.
 Iteration    1 A*A^-1 deviation from unit magnitude is 9.33D-15 for   2445.
 Iteration    1 A*A^-1 deviation from orthogonality  is 2.66D-15 for   2446   2150.
 Iteration    1 A^-1*A deviation from unit magnitude is 9.66D-15 for   2445.
 Iteration    1 A^-1*A deviation from orthogonality  is 2.36D-15 for   2442   2441.
 Error on total polarization charges =  0.02445
 SCF Done:  E(RM062X) =  -1390.68635991     A.U. after   15 cycles
            NFock= 15  Conv=0.46D-08     -V/T= 2.0028
 SMD-CDS (non-electrostatic) energy       (kcal/mol) =      -3.36
 (included in total energy above)
 DoSCS=F DFT=T ScalE2(SS,OS)=  1.000000  1.000000
 Range of M.O.s used for correlation:     1   435
 NBasis=   437 NAE=    72 NBE=    72 NFC=     0 NFV=     0
 NROrb=    435 NOA=    72 NOB=    72 NVA=   363 NVB=   363

 **** Warning!!: The largest alpha MO coefficient is  0.19636895D+03

 Symmetrizing basis deriv contribution to polar:
 IMax=3 JMax=2 DiffMx= 0.00D+00
 G2DrvN: will do    30 centers at a time, making    1 passes.
 Calling FoFCou, ICntrl=  3107 FMM=F I1Cent=   0 AccDes= 0.00D+00.
 NEqPCM:  Using equilibrium solvation (IEInf=0, Eps=   2.0333, EpsInf=   2.0492)
 G2PCM: DoFxE=T DoFxN=T DoGrad=T DoDP/DQ/DG/TGxP=FFFF NFrqRd=   0 IEInf=0 SqF1=F DoCFld=F IF1Alg=4.
 End of G2Drv F.D. properties file   721 does not exist.
 End of G2Drv F.D. properties file   722 does not exist.
 End of G2Drv F.D. properties file   788 does not exist.
          IDoAtm=11111111111111111111111111111
 NEqPCM:  Using equilibrium solvation (IEInf=0, Eps=   2.0333, EpsInf=   2.0492)
          Differentiating once with respect to nuclear coordinates.
 CalDSu exits because no D1Ps are significant.
          There are    90 degrees of freedom in the 1st order CPHF.  IDoFFX=6 NUNeed=     0.
     84 vectors produced by pass  0 Test12= 2.90D-14 1.11D-09 XBig12= 3.55D-01 1.27D-01.
 AX will form    84 AO Fock derivatives at one time.
     84 vectors produced by pass  1 Test12= 2.90D-14 1.11D-09 XBig12= 3.28D-02 4.11D-02.
     84 vectors produced by pass  2 Test12= 2.90D-14 1.11D-09 XBig12= 8.28D-04 3.89D-03.
     84 vectors produced by pass  3 Test12= 2.90D-14 1.11D-09 XBig12= 8.44D-06 2.76D-04.
     84 vectors produced by pass  4 Test12= 2.90D-14 1.11D-09 XBig12= 7.10D-08 2.14D-05.
     84 vectors produced by pass  5 Test12= 2.90D-14 1.11D-09 XBig12= 3.69D-10 2.07D-06.
     72 vectors produced by pass  6 Test12= 2.90D-14 1.11D-09 XBig12= 1.61D-12 1.13D-07.
     26 vectors produced by pass  7 Test12= 2.90D-14 1.11D-09 XBig12= 6.69D-15 5.73D-09.
 InvSVY:  IOpt=1 It=  1 EMax= 6.11D-16
 Solved reduced A of dimension   602 with    90 vectors.
 End of Minotr F.D. properties file   721 does not exist.
 End of Minotr F.D. properties file   722 does not exist.
 End of Minotr F.D. properties file   788 does not exist.

 **********************************************************************

            Population analysis using the SCF Density.

 **********************************************************************

 Alpha  occ. eigenvalues -- -102.68498 -25.28893 -25.28271 -25.28239 -19.67755
 Alpha  occ. eigenvalues --  -19.61576 -14.80770 -10.81211 -10.71404 -10.62683
 Alpha  occ. eigenvalues --  -10.62548 -10.59890 -10.59224 -10.57675 -10.57364
 Alpha  occ. eigenvalues --  -10.56925 -10.54092 -10.53009  -9.82762  -7.55275
 Alpha  occ. eigenvalues --   -7.54601  -7.54585  -1.47907  -1.38666  -1.38039
 Alpha  occ. eigenvalues --   -1.25668  -1.15421  -1.08437  -1.01605  -0.96368
 Alpha  occ. eigenvalues --   -0.91208  -0.89244  -0.85902  -0.82335  -0.80468
 Alpha  occ. eigenvalues --   -0.75307  -0.73433  -0.70556  -0.70156  -0.69711
 Alpha  occ. eigenvalues --   -0.68299  -0.65239  -0.64740  -0.60338  -0.59664
 Alpha  occ. eigenvalues --   -0.59596  -0.58402  -0.58345  -0.56548  -0.55066
 Alpha  occ. eigenvalues --   -0.54331  -0.54019  -0.53677  -0.52089  -0.51933
 Alpha  occ. eigenvalues --   -0.51328  -0.49952  -0.49889  -0.47412  -0.46815
 Alpha  occ. eigenvalues --   -0.45759  -0.44684  -0.43632  -0.43340  -0.41026
 Alpha  occ. eigenvalues --   -0.40904  -0.39138  -0.38929  -0.38468  -0.37428
 Alpha  occ. eigenvalues --   -0.32685  -0.29859
 Alpha virt. eigenvalues --   -0.01655  -0.00629   0.00294   0.01962   0.02242
 Alpha virt. eigenvalues --    0.02989   0.03275   0.03525   0.04150   0.04704
 Alpha virt. eigenvalues --    0.05092   0.05248   0.05530   0.06426   0.06784
 Alpha virt. eigenvalues --    0.07210   0.07282   0.07921   0.08255   0.08331
 Alpha virt. eigenvalues --    0.09038   0.09465   0.09866   0.10253   0.11186
 Alpha virt. eigenvalues --    0.11733   0.12028   0.12180   0.13070   0.13315
 Alpha virt. eigenvalues --    0.13495   0.14240   0.14405   0.15082   0.15595
 Alpha virt. eigenvalues --    0.16698   0.17022   0.17610   0.17944   0.18104
 Alpha virt. eigenvalues --    0.18400   0.19105   0.19463   0.20092   0.20484
 Alpha virt. eigenvalues --    0.20721   0.20964   0.21215   0.21404   0.22435
 Alpha virt. eigenvalues --    0.22569   0.22805   0.23455   0.23742   0.24260
 Alpha virt. eigenvalues --    0.24705   0.24979   0.25327   0.25813   0.26477
 Alpha virt. eigenvalues --    0.26699   0.26735   0.27435   0.27886   0.28131
 Alpha virt. eigenvalues --    0.28604   0.29123   0.29397   0.29494   0.30045
 Alpha virt. eigenvalues --    0.30453   0.30854   0.31551   0.31939   0.32111
 Alpha virt. eigenvalues --    0.32568   0.33466   0.34143   0.34254   0.35093
 Alpha virt. eigenvalues --    0.35962   0.36810   0.37401   0.37665   0.38310
 Alpha virt. eigenvalues --    0.38404   0.39282   0.40280   0.40869   0.41396
 Alpha virt. eigenvalues --    0.42043   0.43453   0.43821   0.43864   0.44602
 Alpha virt. eigenvalues --    0.45645   0.46592   0.46740   0.47762   0.48244
 Alpha virt. eigenvalues --    0.48871   0.49054   0.50292   0.50642   0.51185
 Alpha virt. eigenvalues --    0.52243   0.52923   0.54542   0.56431   0.58078
 Alpha virt. eigenvalues --    0.58275   0.59130   0.59563   0.61151   0.62437
 Alpha virt. eigenvalues --    0.62647   0.63624   0.63835   0.64455   0.65805
 Alpha virt. eigenvalues --    0.66090   0.67117   0.67797   0.68031   0.68655
 Alpha virt. eigenvalues --    0.69733   0.69881   0.70661   0.71976   0.72120
 Alpha virt. eigenvalues --    0.72897   0.73426   0.73713   0.75150   0.75393
 Alpha virt. eigenvalues --    0.76470   0.77119   0.77888   0.78247   0.79104
 Alpha virt. eigenvalues --    0.80700   0.81620   0.82881   0.84368   0.87204
 Alpha virt. eigenvalues --    0.88670   0.89952   0.91166   0.91491   0.91980
 Alpha virt. eigenvalues --    0.92427   0.93466   0.94893   0.96915   0.97380
 Alpha virt. eigenvalues --    0.99455   0.99836   1.00061   1.02796   1.03201
 Alpha virt. eigenvalues --    1.04225   1.05241   1.05547   1.08121   1.09621
 Alpha virt. eigenvalues --    1.10470   1.11764   1.12017   1.13443   1.14871
 Alpha virt. eigenvalues --    1.18395   1.19882   1.22062   1.22455   1.23324
 Alpha virt. eigenvalues --    1.23452   1.25053   1.27085   1.28453   1.31167
 Alpha virt. eigenvalues --    1.31758   1.34455   1.36488   1.37909   1.39099
 Alpha virt. eigenvalues --    1.40892   1.42082   1.43778   1.45939   1.46228
 Alpha virt. eigenvalues --    1.46906   1.49047   1.49906   1.50250   1.51829
 Alpha virt. eigenvalues --    1.52724   1.53389   1.55907   1.57015   1.57897
 Alpha virt. eigenvalues --    1.58427   1.58766   1.58950   1.61269   1.62208
 Alpha virt. eigenvalues --    1.62955   1.63286   1.65931   1.67615   1.70893
 Alpha virt. eigenvalues --    1.73330   1.74254   1.77828   1.78060   1.78553
 Alpha virt. eigenvalues --    1.78752   1.79065   1.80019   1.84208   1.85931
 Alpha virt. eigenvalues --    1.86387   1.87057   1.87704   1.90625   1.91586
 Alpha virt. eigenvalues --    1.93650   1.95844   1.96683   1.97340   1.99263
 Alpha virt. eigenvalues --    2.02460   2.04697   2.07821   2.08826   2.10098
 Alpha virt. eigenvalues --    2.10746   2.17240   2.18845   2.18989   2.20936
 Alpha virt. eigenvalues --    2.24196   2.30229   2.33104   2.33517   2.36290
 Alpha virt. eigenvalues --    2.36368   2.39041   2.44828   2.47083   2.50584
 Alpha virt. eigenvalues --    2.52217   2.54684   2.55198   2.56339   2.59181
 Alpha virt. eigenvalues --    2.59891   2.61385   2.64658   2.65388   2.69586
 Alpha virt. eigenvalues --    2.70731   2.75112   2.76204   2.80017   2.81647
 Alpha virt. eigenvalues --    2.81939   2.86726   2.91349   2.92275   2.93728
 Alpha virt. eigenvalues --    2.96609   3.00844   3.01126   3.02573   3.03560
 Alpha virt. eigenvalues --    3.04546   3.06741   3.10269   3.11230   3.11818
 Alpha virt. eigenvalues --    3.18404   3.19123   3.21358   3.23693   3.26241
 Alpha virt. eigenvalues --    3.29031   3.29925   3.30180   3.34331   3.35826
 Alpha virt. eigenvalues --    3.38373   3.40507   3.43735   3.45638   3.50686
 Alpha virt. eigenvalues --    3.54171   3.66107   3.70681   3.73135   3.76498
 Alpha virt. eigenvalues --    3.79766   3.81499   3.83471   3.83876   3.85985
 Alpha virt. eigenvalues --    3.86046   3.87820   3.90454   3.96339   3.97856
 Alpha virt. eigenvalues --    4.00017   4.00653   4.02542   4.07516   4.10611
 Alpha virt. eigenvalues --    4.10992   4.18708   4.22242   4.26847   4.30896
 Alpha virt. eigenvalues --    4.55790   4.76003   4.79346   4.97300   5.01306
 Alpha virt. eigenvalues --    5.08466   5.10509   5.16760   5.36229   5.49226
 Alpha virt. eigenvalues --    5.80081   5.95748   6.44284   6.47947   6.49699
 Alpha virt. eigenvalues --    6.51473   6.53331   6.57143   6.62736   6.86074
 Alpha virt. eigenvalues --    6.90695   9.96893  23.44791  23.57090  23.64456
 Alpha virt. eigenvalues --   23.72071  23.81883  23.91294  23.92506  23.96443
 Alpha virt. eigenvalues --   24.09093  24.11192  24.19658  25.93492  26.23418
 Alpha virt. eigenvalues --   26.70889  35.65799  50.01687  50.13210  66.87850
 Alpha virt. eigenvalues --   66.90531  66.96477 216.07039
          Condensed to atoms (all electrons):
               1          2          3          4          5          6
     1  C   23.638421  -0.255869  -0.889797  -0.182538  -0.327262  -0.736143
     2  N   -0.255869   7.648148   0.188368  -0.027411  -0.253405  -0.306443
     3  C   -0.889797   0.188368   8.774670   0.519288   0.305240  -0.543286
     4  O   -0.182538  -0.027411   0.519288   8.109924  -0.194086  -0.179243
     5  O   -0.327262  -0.253405   0.305240  -0.194086   8.375070   0.390173
     6  C   -0.736143  -0.306443  -0.543286  -0.179243   0.390173   8.148709
     7  C   -0.031271   0.032134   0.120079   0.029563  -0.168960  -0.901040
     8  C   -0.020593  -0.006601  -0.238627   0.000924   0.034759   0.315372
     9  C   -2.088188   0.039231  -0.092362  -0.117788  -0.049214   0.000720
    10  C    0.086070   0.205052  -0.970589  -0.002660  -0.005212  -0.127210
    11  C  -10.090047   0.031716  -0.741675  -0.045082  -0.015616  -0.044302
    12  C    0.178502   0.098208  -0.145986   0.089612   0.021220  -0.041186
    13  C    0.835171  -0.160452  -0.183510   0.327413   0.017756  -0.217396
    14  H   -0.063487   0.268881  -0.008233   0.000056   0.023481  -0.002949
    15  H    0.016317   0.004763   0.054080  -0.001731  -0.042721   0.334657
    16  H   -0.000475   0.005187   0.029745  -0.001687  -0.044310   0.368961
    17  H    0.000899  -0.000823   0.009165  -0.000277   0.001120  -0.063856
    18  H   -0.001006  -0.000764   0.003793  -0.000287   0.001062  -0.063880
    19  H   -0.000224  -0.000015  -0.001552  -0.000061  -0.000389  -0.048545
    20  H    0.000154   0.000036   0.007904   0.000027  -0.000660   0.089115
    21  H   -0.000027  -0.000069  -0.001249  -0.000078  -0.000423  -0.046989
    22  H    0.056355  -0.018587  -0.015804   0.000056  -0.000820  -0.001372
    23  Cl  -0.019027   0.003278   0.062204   0.000374   0.000755   0.005650
    24  H   -0.021214  -0.023257   0.089589  -0.001243   0.001961   0.009533
    25  C   -3.547220   0.000256  -0.335137  -0.002835  -0.001369  -0.017220
    26  H    0.057498   0.000692   0.002848   0.000003   0.000001   0.000027
    27  F    0.034230   0.000582  -0.000945   0.000002  -0.000000  -0.000015
    28  F    0.022218   0.000750  -0.001229  -0.000000   0.000001  -0.000012
    29  F    0.104259   0.001188  -0.001615   0.000001   0.000007  -0.000021
               7          8          9         10         11         12
     1  C   -0.031271  -0.020593  -2.088188   0.086070 -10.090047   0.178502
     2  N    0.032134  -0.006601   0.039231   0.205052   0.031716   0.098208
     3  C    0.120079  -0.238627  -0.092362  -0.970589  -0.741675  -0.145986
     4  O    0.029563   0.000924  -0.117788  -0.002660  -0.045082   0.089612
     5  O   -0.168960   0.034759  -0.049214  -0.005212  -0.015616   0.021220
     6  C   -0.901040   0.315372   0.000720  -0.127210  -0.044302  -0.041186
     7  C    6.467974  -0.147454   0.011226  -0.005952   0.004661  -0.003706
     8  C   -0.147454   6.081770  -0.000556  -0.001725  -0.000089  -0.000122
     9  C    0.011226  -0.000556  13.569952  -4.654404   5.431048  -5.611117
    10  C   -0.005952  -0.001725  -4.654404  24.382710  -8.431438   4.443206
    11  C    0.004661  -0.000089   5.431048  -8.431438  33.451396 -13.539693
    12  C   -0.003706  -0.000122  -5.611117   4.443206 -13.539693  22.031182
    13  C    0.005442  -0.007058  -2.287963  -0.715292  -5.801014   3.289575
    14  H   -0.001916  -0.000398  -0.020975   0.028350  -0.017112   0.022776
    15  H   -0.022445  -0.016784   0.001421   0.000394   0.000099  -0.000801
    16  H   -0.024757  -0.014300   0.000924  -0.000139   0.000241   0.000617
    17  H    0.439961  -0.045354   0.000017   0.000032  -0.000000   0.000005
    18  H    0.447235  -0.046060   0.000465   0.000008   0.000012  -0.000003
    19  H    0.016234   0.378322   0.000009  -0.000001   0.000000   0.000002
    20  H   -0.134436   0.389498  -0.000015   0.000001  -0.000000   0.000001
    21  H    0.009614   0.383175   0.000012  -0.000000   0.000000  -0.000005
    22  H   -0.000004  -0.000001   0.273325   0.054220  -0.070723   0.011342
    23  Cl  -0.000201   0.000042  -0.006023  -0.112703  -0.249133  -0.749867
    24  H   -0.000309   0.000061   0.029823  -0.001151   0.041617  -0.107309
    25  C    0.000165  -0.000100   2.118929  -7.416923   6.184777  -4.910884
    26  H   -0.000000   0.000000  -0.040370   0.105266   0.099299   0.085329
    27  F    0.000000  -0.000000   0.023276   0.198362  -0.315803   0.060467
    28  F    0.000000   0.000000   0.008315   0.284227  -0.310407   0.047521
    29  F    0.000000  -0.000000   0.019523  -0.099556  -0.036424   0.071767
              13         14         15         16         17         18
     1  C    0.835171  -0.063487   0.016317  -0.000475   0.000899  -0.001006
     2  N   -0.160452   0.268881   0.004763   0.005187  -0.000823  -0.000764
     3  C   -0.183510  -0.008233   0.054080   0.029745   0.009165   0.003793
     4  O    0.327413   0.000056  -0.001731  -0.001687  -0.000277  -0.000287
     5  O    0.017756   0.023481  -0.042721  -0.044310   0.001120   0.001062
     6  C   -0.217396  -0.002949   0.334657   0.368961  -0.063856  -0.063880
     7  C    0.005442  -0.001916  -0.022445  -0.024757   0.439961   0.447235
     8  C   -0.007058  -0.000398  -0.016784  -0.014300  -0.045354  -0.046060
     9  C   -2.287963  -0.020975   0.001421   0.000924   0.000017   0.000465
    10  C   -0.715292   0.028350   0.000394  -0.000139   0.000032   0.000008
    11  C   -5.801014  -0.017112   0.000099   0.000241  -0.000000   0.000012
    12  C    3.289575   0.022776  -0.000801   0.000617   0.000005  -0.000003
    13  C   11.336349   0.040009  -0.004692   0.001357   0.000034  -0.000014
    14  H    0.040009   0.294433  -0.000041   0.000030   0.000006  -0.000000
    15  H   -0.004692  -0.000041   0.440191  -0.038148   0.005230  -0.007772
    16  H    0.001357   0.000030  -0.038148   0.439814  -0.007598   0.005270
    17  H    0.000034   0.000006   0.005230  -0.007598   0.439894  -0.036231
    18  H   -0.000014  -0.000000  -0.007772   0.005270  -0.036231   0.440487
    19  H    0.000055   0.000000  -0.000483   0.003633  -0.008045   0.006052
    20  H    0.000037  -0.000000  -0.000194  -0.000175  -0.003250  -0.003200
    21  H   -0.000057  -0.000000   0.003580  -0.000483   0.006003  -0.007958
    22  H   -0.000145   0.005137  -0.000000  -0.000000  -0.000000  -0.000000
    23  Cl   0.360423   0.000490  -0.000002   0.000002   0.000000   0.000000
    24  H    0.308766  -0.000071  -0.000012  -0.000022  -0.000000  -0.000000
    25  C   -0.736636   0.003592   0.000005   0.000009   0.000001   0.000000
    26  H    0.003338  -0.000002  -0.000000  -0.000000   0.000000   0.000000
    27  F    0.007643  -0.000012   0.000000   0.000000   0.000000   0.000000
    28  F    0.009771  -0.000016   0.000000   0.000000  -0.000000   0.000000
    29  F    0.000243   0.000062  -0.000000   0.000000  -0.000000   0.000000
              19         20         21         22         23         24
     1  C   -0.000224   0.000154  -0.000027   0.056355  -0.019027  -0.021214
     2  N   -0.000015   0.000036  -0.000069  -0.018587   0.003278  -0.023257
     3  C   -0.001552   0.007904  -0.001249  -0.015804   0.062204   0.089589
     4  O   -0.000061   0.000027  -0.000078   0.000056   0.000374  -0.001243
     5  O   -0.000389  -0.000660  -0.000423  -0.000820   0.000755   0.001961
     6  C   -0.048545   0.089115  -0.046989  -0.001372   0.005650   0.009533
     7  C    0.016234  -0.134436   0.009614  -0.000004  -0.000201  -0.000309
     8  C    0.378322   0.389498   0.383175  -0.000001   0.000042   0.000061
     9  C    0.000009  -0.000015   0.000012   0.273325  -0.006023   0.029823
    10  C   -0.000001   0.000001  -0.000000   0.054220  -0.112703  -0.001151
    11  C    0.000000  -0.000000   0.000000  -0.070723  -0.249133   0.041617
    12  C    0.000002   0.000001  -0.000005   0.011342  -0.749867  -0.107309
    13  C    0.000055   0.000037  -0.000057  -0.000145   0.360423   0.308766
    14  H    0.000000  -0.000000  -0.000000   0.005137   0.000490  -0.000071
    15  H   -0.000483  -0.000194   0.003580  -0.000000  -0.000002  -0.000012
    16  H    0.003633  -0.000175  -0.000483  -0.000000   0.000002  -0.000022
    17  H   -0.008045  -0.003250   0.006003  -0.000000   0.000000  -0.000000
    18  H    0.006052  -0.003200  -0.007958  -0.000000   0.000000  -0.000000
    19  H    0.452331  -0.024486  -0.037106  -0.000000  -0.000000  -0.000000
    20  H   -0.024486   0.425804  -0.024452   0.000000   0.000000   0.000000
    21  H   -0.037106  -0.024452   0.451917  -0.000000  -0.000000  -0.000000
    22  H   -0.000000   0.000000  -0.000000   0.383949   0.000447  -0.000056
    23  Cl  -0.000000   0.000000  -0.000000   0.000447  17.437526  -0.009780
    24  H   -0.000000   0.000000  -0.000000  -0.000056  -0.009780   0.350289
    25  C    0.000000   0.000000  -0.000000   0.030664  -0.139466   0.003474
    26  H    0.000000   0.000000   0.000000  -0.000137  -0.015870  -0.000233
    27  F    0.000000   0.000000  -0.000000  -0.000008  -0.000497  -0.000004
    28  F    0.000000  -0.000000  -0.000000  -0.000072  -0.000437  -0.000000
    29  F    0.000000  -0.000000  -0.000000   0.009043  -0.000120  -0.000002
              25         26         27         28         29
     1  C   -3.547220   0.057498   0.034230   0.022218   0.104259
     2  N    0.000256   0.000692   0.000582   0.000750   0.001188
     3  C   -0.335137   0.002848  -0.000945  -0.001229  -0.001615
     4  O   -0.002835   0.000003   0.000002  -0.000000   0.000001
     5  O   -0.001369   0.000001  -0.000000   0.000001   0.000007
     6  C   -0.017220   0.000027  -0.000015  -0.000012  -0.000021
     7  C    0.000165  -0.000000   0.000000   0.000000   0.000000
     8  C   -0.000100   0.000000  -0.000000   0.000000  -0.000000
     9  C    2.118929  -0.040370   0.023276   0.008315   0.019523
    10  C   -7.416923   0.105266   0.198362   0.284227  -0.099556
    11  C    6.184777   0.099299  -0.315803  -0.310407  -0.036424
    12  C   -4.910884   0.085329   0.060467   0.047521   0.071767
    13  C   -0.736636   0.003338   0.007643   0.009771   0.000243
    14  H    0.003592  -0.000002  -0.000012  -0.000016   0.000062
    15  H    0.000005  -0.000000   0.000000   0.000000  -0.000000
    16  H    0.000009  -0.000000   0.000000   0.000000   0.000000
    17  H    0.000001   0.000000   0.000000  -0.000000  -0.000000
    18  H    0.000000   0.000000   0.000000   0.000000   0.000000
    19  H    0.000000   0.000000   0.000000   0.000000   0.000000
    20  H    0.000000   0.000000   0.000000  -0.000000  -0.000000
    21  H   -0.000000   0.000000  -0.000000  -0.000000  -0.000000
    22  H    0.030664  -0.000137  -0.000008  -0.000072   0.009043
    23  Cl  -0.139466  -0.015870  -0.000497  -0.000437  -0.000120
    24  H    0.003474  -0.000233  -0.000004  -0.000000  -0.000002
    25  C   13.577852   0.012719   0.160876   0.113598   0.086998
    26  H    0.012719   0.369982  -0.000445  -0.001023   0.000359
    27  F    0.160876  -0.000445   8.981868  -0.056090  -0.030659
    28  F    0.113598  -0.001023  -0.056090   8.975956  -0.033783
    29  F    0.086998   0.000359  -0.030659  -0.033783   9.053917
 Mulliken charges:
               1
     1  C   -0.755708
     2  N   -0.474775
     3  C    0.004621
     4  O   -0.320236
     5  O   -0.068157
     6  C   -0.321808
     7  C   -0.141835
     8  C   -1.038100
     9  C   -0.559242
    10  C   -1.242942
    11  C    0.463692
    12  C    0.659349
    13  C   -0.429152
    14  H    0.427911
    15  H    0.275091
    16  H    0.276306
    17  H    0.263067
    18  H    0.262790
    19  H    0.264269
    20  H    0.278293
    21  H    0.264594
    22  H    0.283194
    23  Cl   0.431933
    24  H    0.329552
    25  C    0.813879
    26  H    0.320719
    27  F   -0.062828
    28  F   -0.059287
    29  F   -0.145187
 Sum of Mulliken charges =  -0.00000
 Mulliken charges with hydrogens summed into heavy atoms:
               1
     1  C   -0.755708
     2  N   -0.046864
     3  C    0.004621
     4  O   -0.320236
     5  O   -0.068157
     6  C    0.229588
     7  C    0.384022
     8  C   -0.230944
     9  C   -0.276049
    10  C   -1.242942
    11  C    0.784411
    12  C    0.659349
    13  C   -0.099600
    23  Cl   0.431933
    25  C    0.813879
    27  F   -0.062828
    28  F   -0.059287
    29  F   -0.145187
 APT charges:
               1
     1  C   -6.192007
     2  N    0.746605
     3  C    0.029738
     4  O   -0.185393
     5  O   -0.672347
     6  C   -0.789765
     7  C   -0.598895
     8  C   -1.508950
     9  C   -0.957695
    10  C    0.069650
    11  C    0.892953
    12  C    2.753841
    13  C    0.764130
    14  H    0.353066
    15  H    0.450194
    16  H    0.493094
    17  H    0.449655
    18  H    0.409553
    19  H    0.472216
    20  H    0.494986
    21  H    0.436460
    22  H    0.148359
    23  Cl  -0.327583
    24  H    0.033113
    25  C   -0.105206
    26  H    1.921825
    27  F    0.347231
    28  F    0.356573
    29  F   -0.285400
 Sum of APT charges =  -0.00000
 APT charges with hydrogens summed into heavy atoms:
               1
     1  C   -6.192007
     2  N    1.099671
     3  C    0.029738
     4  O   -0.185393
     5  O   -0.672347
     6  C    0.153523
     7  C    0.260313
     8  C   -0.105288
     9  C   -0.809336
    10  C    0.069650
    11  C    2.814778
    12  C    2.753841
    13  C    0.797243
    23  Cl  -0.327583
    25  C   -0.105206
    27  F    0.347231
    28  F    0.356573
    29  F   -0.285400
 Electronic spatial extent (au):  <R**2>=          26994.6065
 Charge=             -0.0000 electrons
 Dipole moment (field-independent basis, Debye):
    X=              4.1821    Y=             -2.8870    Z=             -0.8294  Tot=              5.1490
 Quadrupole moment (field-independent basis, Debye-Ang):
   XX=           -154.7353   YY=           -123.3179   ZZ=           -113.7489
   XY=             12.1281   XZ=              3.7215   YZ=             -1.9335
 Traceless Quadrupole moment (field-independent basis, Debye-Ang):
   XX=            -24.1346   YY=              7.2828   ZZ=             16.8518
   XY=             12.1281   XZ=              3.7215   YZ=             -1.9335
 Octapole moment (field-independent basis, Debye-Ang**2):
  XXX=           2378.9486  YYY=           -575.0409  ZZZ=            -66.9564  XYY=            687.4404
  XXY=           -215.0777  XXZ=            -41.5915  XZZ=            657.8973  YZZ=           -180.6965
  YYZ=            -29.4266  XYZ=              4.2568
 Hexadecapole moment (field-independent basis, Debye-Ang**3):
 XXXX=         -35024.5223 YYYY=          -3812.0377 ZZZZ=           -265.8559 XXXY=           3413.9189
 XXXZ=            671.9405 YYYX=           3661.8639 YYYZ=           -221.5613 ZZZX=            579.6257
 ZZZY=           -203.6480 XXYY=          -5821.1738 XXZZ=          -5228.1354 YYZZ=           -668.9986
 XXYZ=            -55.5901 YYXZ=            208.1803 ZZXY=           1186.9341
 N-N= 1.417292131955D+03 E-N=-6.113021064038D+03  KE= 1.386736686827D+03
  Exact polarizability:       0.000       0.000       0.000       0.000       0.000       0.000
 Approx polarizability:     206.631      -5.177     210.876      -4.484      10.521     128.493
 D2PCM: PCM CHGder 2nd derivatives, FixD1E=F FixD2E=F DoIter=F DoCFld=F I1PDM=0
 Calling FoFJK, ICntrl=    100127 FMM=F ISym2X=0 I1Cent= 0 IOpClX= 0 NMat=1 NMatS=1 NMatT=0.
 -------------------------------------------------------------------
 Center     Atomic                   Forces (Hartrees/Bohr)
 Number     Number              X              Y              Z
 -------------------------------------------------------------------
      1        6           0.000311512   -0.000468641   -0.000171778
      2        7          -0.004294850   -0.004802909   -0.000830547
      3        6           0.009241725    0.016894489    0.004315378
      4        8          -0.003295211   -0.011691237   -0.003382822
      5        8           0.000579676   -0.001569146   -0.000142818
      6        6          -0.003532608   -0.001509320   -0.000441935
      7        6           0.000134407    0.000020820   -0.000017045
      8        6          -0.000345989   -0.000290893   -0.000057736
      9        6           0.000680840    0.001408844   -0.000076708
     10        6          -0.001189349   -0.000208563    0.000101858
     11        6           0.000909462   -0.001573307   -0.000216594
     12        6           0.000024800    0.002270498    0.000199857
     13        6          -0.000177041    0.000162628   -0.000322872
     14        1           0.000737157    0.002028824    0.000056847
     15        1          -0.000008376    0.001038427   -0.000237283
     16        1           0.000039089    0.000791265    0.000671886
     17        1          -0.000139313   -0.000295877    0.000146374
     18        1          -0.000178243   -0.000193523   -0.000279382
     19        1           0.000478832    0.000006172    0.000098510
     20        1           0.000272912    0.000286888    0.000066844
     21        1           0.000477153    0.000022165   -0.000076138
     22        1          -0.001271751   -0.000244834    0.000172495
     23       17           0.000170100   -0.001094730   -0.000161284
     24        1           0.000801426   -0.000537833    0.000566448
     25        6          -0.004000953   -0.000486171    0.000200452
     26        1           0.000160356   -0.000162341   -0.000022628
     27        9           0.001082307    0.000305356   -0.000810153
     28        9           0.001225851    0.000271083    0.000744123
     29        9           0.001106080   -0.000378138   -0.000093350
 -------------------------------------------------------------------
 Cartesian Forces:  Max     0.016894489 RMS     0.002744654
 FormGI is forming the generalized inverse of G from B-inverse, IUseBI=4.

 GradGradGradGradGradGradGradGradGradGradGradGradGradGradGradGradGradGrad
 Berny optimization.
 Internal  Forces:  Max     0.012556974 RMS     0.001360228
 Search for a local minimum.
 Step number   1 out of a maximum of  149
 All quantities printed in internal units (Hartrees-Bohrs-Radians)
 Mixed Optimization -- RFO/linear search
 Second derivative matrix not updated -- analytic derivatives used.
 ITU=  0
     Eigenvalues ---   -0.00038   0.00183   0.00214   0.00322   0.00365
     Eigenvalues ---    0.00514   0.01066   0.01547   0.01645   0.01677
     Eigenvalues ---    0.01854   0.01928   0.02307   0.02369   0.02530
     Eigenvalues ---    0.02775   0.03079   0.03624   0.03927   0.04603
     Eigenvalues ---    0.04606   0.04816   0.06267   0.06702   0.08188
     Eigenvalues ---    0.09924   0.10445   0.11338   0.11893   0.12425
     Eigenvalues ---    0.12473   0.12507   0.13594   0.13807   0.14058
     Eigenvalues ---    0.14335   0.16087   0.16383   0.17478   0.18131
     Eigenvalues ---    0.18542   0.19434   0.20850   0.20995   0.22941
     Eigenvalues ---    0.24333   0.24515   0.25031   0.26445   0.26691
     Eigenvalues ---    0.27344   0.29238   0.29866   0.30801   0.32152
     Eigenvalues ---    0.33796   0.34105   0.34143   0.34326   0.34448
     Eigenvalues ---    0.34717   0.35235   0.36385   0.36790   0.36871
     Eigenvalues ---    0.36933   0.37358   0.37698   0.38426   0.39982
     Eigenvalues ---    0.42047   0.45573   0.46395   0.46843   0.48448
     Eigenvalues ---    0.49681   0.52964   0.53824   0.55661   0.58098
     Eigenvalues ---    0.84871
 RFO step:  Lambda=-7.64263646D-04 EMin=-3.81673352D-04
 Linear search not attempted -- first point.
 Iteration  1 RMS(Cart)=  0.11552464 RMS(Int)=  0.02287190
 Iteration  2 RMS(Cart)=  0.03755277 RMS(Int)=  0.00176243
 Iteration  3 RMS(Cart)=  0.00191509 RMS(Int)=  0.00014433
 Iteration  4 RMS(Cart)=  0.00000447 RMS(Int)=  0.00014431
 Iteration  5 RMS(Cart)=  0.00000000 RMS(Int)=  0.00014431
 Variable       Old X    -DE/DX   Delta X   Delta X   Delta X     New X
                                 (Linear)    (Quad)   (Total)
    R1        2.64328  -0.00016   0.00000  -0.00286  -0.00286   2.64042
    R2        2.64688   0.00083   0.00000   0.00057   0.00057   2.64745
    R3        2.63617  -0.00044   0.00000   0.00241   0.00237   2.63854
    R4        2.57617   0.00490   0.00000   0.01561   0.01561   2.59178
    R5        1.91438  -0.00201   0.00000  -0.00469  -0.00469   1.90968
    R6        2.29596  -0.01256   0.00000  -0.01866  -0.01866   2.27730
    R7        2.52781  -0.00038   0.00000   0.00334   0.00334   2.53115
    R8        2.72829  -0.00270   0.00000  -0.00931  -0.00931   2.71898
    R9        2.85676   0.00079   0.00000   0.00178   0.00178   2.85854
   R10        2.06338   0.00015   0.00000   0.00150   0.00150   2.06488
   R11        2.06358   0.00015   0.00000   0.00108   0.00108   2.06467
   R12        2.88149   0.00086   0.00000   0.00088   0.00088   2.88237
   R13        2.06625  -0.00000   0.00000   0.00028   0.00028   2.06653
   R14        2.06623  -0.00000   0.00000   0.00013   0.00013   2.06636
   R15        2.06526   0.00005   0.00000   0.00035   0.00035   2.06561
   R16        2.06202  -0.00007   0.00000  -0.00004  -0.00004   2.06198
   R17        2.06527   0.00003   0.00000   0.00021   0.00021   2.06548
   R18        2.61104   0.00008   0.00000   0.00125   0.00129   2.61234
   R19        2.04812   0.00006   0.00000   0.00055   0.00055   2.04867
   R20        2.63352  -0.00075   0.00000  -0.00274  -0.00270   2.63082
   R21        2.83541   0.00064   0.00000   0.00330   0.00330   2.83871
   R22        2.61254   0.00083   0.00000   0.00213   0.00213   2.61467
   R23        2.04720  -0.00021   0.00000  -0.00091  -0.00091   2.04629
   R24        2.62741  -0.00003   0.00000  -0.00115  -0.00119   2.62622
   R25        3.29903  -0.00112   0.00000  -0.00522  -0.00522   3.29382
   R26        2.03919   0.00028   0.00000  -0.00003  -0.00003   2.03916
   R27        2.54138  -0.00122   0.00000  -0.00880  -0.00880   2.53258
   R28        2.54260  -0.00127   0.00000  -0.00004  -0.00004   2.54257
   R29        2.52797   0.00063   0.00000   0.00254   0.00254   2.53051
    A1        2.03490   0.00265   0.00000   0.00641   0.00639   2.04130
    A2        2.15790  -0.00258   0.00000  -0.00375  -0.00377   2.15413
    A3        2.09025  -0.00007   0.00000  -0.00253  -0.00253   2.08773
    A4        2.22594  -0.00174   0.00000   0.00163   0.00075   2.22669
    A5        2.03413   0.00155   0.00000   0.00856   0.00768   2.04182
    A6        2.02031   0.00021   0.00000  -0.00476  -0.00563   2.01467
    A7        2.19896  -0.00008   0.00000   0.00472   0.00472   2.20367
    A8        1.91590  -0.00226   0.00000  -0.01316  -0.01316   1.90274
    A9        2.16832   0.00234   0.00000   0.00844   0.00844   2.17677
   A10        2.02779  -0.00241   0.00000  -0.00925  -0.00925   2.01854
   A11        1.87712  -0.00009   0.00000   0.00282   0.00280   1.87992
   A12        1.89554  -0.00009   0.00000   0.00241   0.00240   1.89794
   A13        1.89470  -0.00003   0.00000   0.00372   0.00371   1.89841
   A14        1.94689   0.00057   0.00000   0.00321   0.00320   1.95009
   A15        1.94724   0.00048   0.00000   0.00176   0.00175   1.94900
   A16        1.90093  -0.00085   0.00000  -0.01353  -0.01353   1.88740
   A17        1.92829   0.00058   0.00000   0.00484   0.00484   1.93313
   A18        1.90447  -0.00016   0.00000  -0.00142  -0.00143   1.90304
   A19        1.90467  -0.00018   0.00000  -0.00025  -0.00026   1.90441
   A20        1.92508  -0.00009   0.00000   0.00054   0.00054   1.92561
   A21        1.92507  -0.00007   0.00000   0.00088   0.00088   1.92595
   A22        1.87531  -0.00011   0.00000  -0.00489  -0.00489   1.87042
   A23        1.93938   0.00050   0.00000   0.00361   0.00360   1.94298
   A24        1.93496   0.00032   0.00000   0.00189   0.00189   1.93685
   A25        1.93977   0.00050   0.00000   0.00366   0.00365   1.94342
   A26        1.88216  -0.00047   0.00000  -0.00356  -0.00357   1.87859
   A27        1.88310  -0.00047   0.00000  -0.00273  -0.00273   1.88037
   A28        1.88210  -0.00046   0.00000  -0.00339  -0.00340   1.87870
   A29        2.08668   0.00043   0.00000   0.00330   0.00340   2.09008
   A30        2.08618   0.00112   0.00000   0.00787   0.00782   2.09400
   A31        2.11033  -0.00155   0.00000  -0.01118  -0.01123   2.09910
   A32        2.12901  -0.00086   0.00000  -0.00388  -0.00407   2.12494
   A33        2.10009   0.00024   0.00000  -0.00015  -0.00055   2.09954
   A34        2.05409   0.00062   0.00000   0.00393   0.00353   2.05761
   A35        2.04440   0.00097   0.00000   0.00421   0.00431   2.04871
   A36        2.12002  -0.00057   0.00000   0.00088   0.00083   2.12084
   A37        2.11877  -0.00039   0.00000  -0.00509  -0.00514   2.11362
   A38        2.14543  -0.00054   0.00000  -0.00260  -0.00259   2.14283
   A39        2.07411   0.00034   0.00000   0.00133   0.00132   2.07542
   A40        2.06364   0.00020   0.00000   0.00129   0.00128   2.06492
   A41        2.07057   0.00008   0.00000   0.00156   0.00152   2.07208
   A42        2.11629  -0.00090   0.00000  -0.00652  -0.00652   2.10977
   A43        2.09631   0.00082   0.00000   0.00501   0.00502   2.10133
   A44        1.95037  -0.00062   0.00000   0.00160   0.00160   1.95197
   A45        1.94989  -0.00078   0.00000  -0.00375  -0.00376   1.94613
   A46        1.97149  -0.00133   0.00000  -0.00541  -0.00542   1.96607
   A47        1.85352   0.00085   0.00000   0.00310   0.00310   1.85662
   A48        1.86653   0.00104   0.00000   0.00586   0.00586   1.87239
   A49        1.86512   0.00110   0.00000  -0.00064  -0.00066   1.86446
    D1       -2.95678  -0.00042   0.00000  -0.14694  -0.14707  -3.10385
    D2        0.10042  -0.00016   0.00000  -0.06549  -0.06535   0.03508
    D3        0.20223  -0.00050   0.00000  -0.15590  -0.15604   0.04618
    D4       -3.02375  -0.00023   0.00000  -0.07445  -0.07433  -3.09808
    D5       -3.12813   0.00003   0.00000  -0.00740  -0.00741  -3.13554
    D6        0.01474   0.00006   0.00000  -0.00380  -0.00378   0.01096
    D7       -0.00323   0.00007   0.00000   0.00118   0.00119  -0.00204
    D8        3.13963   0.00010   0.00000   0.00478   0.00482  -3.13873
    D9        3.13183  -0.00000   0.00000   0.00194   0.00191   3.13374
   D10       -0.00306  -0.00026   0.00000  -0.00741  -0.00740  -0.01045
   D11        0.00817  -0.00010   0.00000  -0.00738  -0.00738   0.00080
   D12       -3.12671  -0.00036   0.00000  -0.01672  -0.01669   3.13979
   D13       -0.02858  -0.00024   0.00000   0.04031   0.04018   0.01160
   D14        3.11171  -0.00002   0.00000   0.04294   0.04281  -3.12866
   D15       -3.08636  -0.00056   0.00000  -0.04113  -0.04100  -3.12736
   D16        0.05394  -0.00034   0.00000  -0.03850  -0.03837   0.01557
   D17       -3.13953  -0.00017   0.00000  -0.00497  -0.00497   3.13869
   D18        0.00079   0.00005   0.00000  -0.00239  -0.00239  -0.00160
   D19        3.13669   0.00003   0.00000   0.02560   0.02560  -3.12090
   D20        1.02729  -0.00055   0.00000   0.01874   0.01873   1.04602
   D21       -1.03714   0.00054   0.00000   0.03147   0.03148  -1.00567
   D22        3.13693   0.00001   0.00000   0.00315   0.00315   3.14008
   D23        1.01761  -0.00014   0.00000   0.00033   0.00033   1.01794
   D24       -1.02681   0.00018   0.00000   0.00715   0.00715  -1.01965
   D25       -1.06946   0.00017   0.00000   0.00973   0.00973  -1.05973
   D26        3.09440   0.00002   0.00000   0.00691   0.00692   3.10132
   D27        1.04999   0.00034   0.00000   0.01373   0.01374   1.06372
   D28        1.06096  -0.00018   0.00000  -0.00419  -0.00419   1.05677
   D29       -1.05836  -0.00033   0.00000  -0.00700  -0.00700  -1.06537
   D30       -3.10278  -0.00001   0.00000  -0.00018  -0.00018  -3.10296
   D31       -1.04905  -0.00004   0.00000   0.00316   0.00316  -1.04589
   D32        3.14127   0.00000   0.00000   0.00401   0.00401  -3.13791
   D33        1.04822   0.00004   0.00000   0.00460   0.00460   1.05282
   D34        1.05802   0.00008   0.00000   0.00490   0.00490   1.06292
   D35       -1.03484   0.00012   0.00000   0.00574   0.00574  -1.02910
   D36       -3.12789   0.00016   0.00000   0.00633   0.00633  -3.12156
   D37        3.12681  -0.00015   0.00000  -0.00026  -0.00026   3.12655
   D38        1.03395  -0.00011   0.00000   0.00059   0.00058   1.03453
   D39       -1.05910  -0.00007   0.00000   0.00118   0.00118  -1.05793
   D40       -0.00374   0.00002   0.00000   0.00637   0.00633   0.00259
   D41        3.13546   0.00001   0.00000  -0.04265  -0.04257   3.09288
   D42        3.13656  -0.00001   0.00000   0.00274   0.00270   3.13926
   D43       -0.00743  -0.00002   0.00000  -0.04629  -0.04620  -0.05363
   D44        0.00539  -0.00007   0.00000  -0.00722  -0.00719  -0.00179
   D45       -3.13725  -0.00001   0.00000  -0.00074  -0.00070  -3.13795
   D46       -3.13387  -0.00006   0.00000   0.04058   0.04059  -3.09328
   D47        0.00668  -0.00000   0.00000   0.04706   0.04707   0.05376
   D48        2.14233  -0.00007   0.00000   0.31923   0.31927   2.46159
   D49       -2.06688   0.00007   0.00000   0.32172   0.32175  -1.74513
   D50        0.03663  -0.00002   0.00000   0.31431   0.31437   0.35100
   D51       -1.00156  -0.00008   0.00000   0.27226   0.27221  -0.72935
   D52        1.07242   0.00006   0.00000   0.27475   0.27469   1.34711
   D53       -3.10726  -0.00003   0.00000   0.26734   0.26731  -2.83994
   D54       -0.00014   0.00003   0.00000   0.00064   0.00065   0.00051
   D55        3.13732   0.00008   0.00000   0.00783   0.00783  -3.13804
   D56       -3.14069  -0.00003   0.00000  -0.00584  -0.00581   3.13669
   D57       -0.00323   0.00001   0.00000   0.00135   0.00137  -0.00186
   D58       -0.00658   0.00005   0.00000   0.00655   0.00654  -0.00004
   D59        3.12838   0.00030   0.00000   0.01574   0.01576  -3.13904
   D60        3.13912   0.00001   0.00000  -0.00059  -0.00060   3.13853
   D61       -0.00910   0.00025   0.00000   0.00859   0.00862  -0.00048
         Item               Value     Threshold  Converged?
 Maximum Force            0.012557     0.000450     NO 
 RMS     Force            0.001360     0.000300     NO 
 Maximum Displacement     0.698238     0.001800     NO 
 RMS     Displacement     0.141379     0.001200     NO 
 Predicted change in Energy=-5.291828D-04
 GradGradGradGradGradGradGradGradGradGradGradGradGradGradGradGradGradGrad

                          Input orientation:                          
 ---------------------------------------------------------------------
 Center     Atomic      Atomic             Coordinates (Angstroms)
 Number     Number       Type             X           Y           Z
 ---------------------------------------------------------------------
      1          6           0       -5.931211    1.483567    0.215421
      2          7           0       -4.681633    0.869735    0.096771
      3          6           0       -3.447865    1.465794    0.156514
      4          8           0       -3.230251    2.637505    0.335390
      5          8           0       -2.503252    0.532496   -0.018786
      6          6           0       -1.145248    1.006781    0.014237
      7          6           0       -0.237748   -0.178599   -0.229697
      8          6           0        1.226378    0.248575   -0.211193
      9          6           0       -7.055782    0.649539    0.165831
     10          6           0       -8.320913    1.196835    0.270273
     11          6           0       -8.516193    2.566870    0.421970
     12          6           0       -7.389759    3.369066    0.467189
     13          6           0       -6.099983    2.861207    0.367572
     14          1           0       -4.673883   -0.130352   -0.048136
     15          1           0       -0.957468    1.466538    0.987547
     16          1           0       -1.022027    1.773995   -0.753824
     17          1           0       -0.490087   -0.628521   -1.193944
     18          1           0       -0.422834   -0.935163    0.537789
     19          1           0        1.432627    0.994427   -0.983191
     20          1           0        1.884089   -0.603404   -0.390542
     21          1           0        1.502091    0.682631    0.753294
     22          1           0       -6.931399   -0.421219    0.050512
     23         17           0       -7.587895    5.089841    0.661524
     24          1           0       -5.248114    3.522219    0.409924
     25          6           0       -9.536768    0.322087    0.156007
     26          1           0       -9.508837    2.991177    0.506763
     27          9           0      -10.495577    0.685909    1.018798
     28          9           0      -10.083268    0.395008   -1.071309
     29          9           0       -9.266030   -0.969439    0.383639
 ---------------------------------------------------------------------
                    Distance matrix (angstroms):
                    1          2          3          4          5
     1  C    0.000000
     2  N    1.397252   0.000000
     3  C    2.484108   1.371510   0.000000
     4  O    2.939583   2.299664   1.205097   0.000000
     5  O    3.565149   2.207358   1.339428   2.255001   0.000000
     6  C    4.813859   3.540002   2.352229   2.666390   1.438823
     7  C    5.947810   4.577521   3.627401   4.147871   2.383830
     8  C    7.275870   5.948552   4.844107   5.085989   3.745366
     9  C    1.400972   2.385339   3.699112   4.314562   4.557775
    10  C    2.407468   3.658068   4.881791   5.290994   5.862601
    11  C    2.810399   4.205933   5.193341   5.287123   6.363050
    12  C    2.397051   3.703756   4.388336   4.225406   5.671001
    13  C    1.396254   2.459880   3.004240   2.878618   4.302167
    14  H    2.062782   1.010561   2.023038   3.145186   2.269773
    15  H    5.033347   3.875443   2.625394   2.638563   2.067508
    16  H    5.012371   3.864442   2.609289   2.609270   2.067759
    17  H    6.004420   4.634628   3.867602   4.529270   2.604187
    18  H    6.024648   4.646452   3.880821   4.548242   2.606134
    19  H    7.476766   6.210156   5.033916   5.116717   4.078554
    20  H    8.111815   6.746578   5.745483   6.098109   4.547222
    21  H    7.495651   6.221292   5.046935   5.137241   4.081841
    22  H    2.157726   2.594254   3.963214   4.809932   4.530217
    23  Cl   3.993598   5.155056   5.525270   5.010926   6.861910
    24  H    2.158832   2.730318   2.744813   2.204551   4.081238
    25  C    3.788484   4.886283   6.195386   6.720528   7.038833
    26  H    3.893222   5.288715   6.259780   6.290874   7.443086
    27  F    4.702671   5.889472   7.142969   7.553856   8.060855
    28  F    4.481095   5.546840   6.832474   7.346525   7.653976
    29  F    4.143254   4.947884   6.311339   7.031572   6.939231
                    6          7          8          9         10
     6  C    0.000000
     7  C    1.512675   0.000000
     8  C    2.500061   1.525282   0.000000
     9  C    5.923261   6.879524   8.300428   0.000000
    10  C    7.182747   8.214582   9.606341   1.382389   0.000000
    11  C    7.545260   8.746137  10.034594   2.423750   1.392171
    12  C    6.691746   8.013915   9.188878   2.756480   2.371584
    13  C    5.302183   6.630456   7.799768   2.417794   2.777072
    14  H    3.707860   4.440110   5.914664   2.515444   3.894053
    15  H    1.092689   2.169367   2.773012   6.207426   7.403212
    16  H    1.092574   2.168508   2.770682   6.206156   7.392945
    17  H    2.136153   1.093562   2.163642   6.825744   8.172986
    18  H    2.137085   1.093472   2.163819   6.829761   8.185147
    19  H    2.764137   2.175752   1.093075   8.572765   9.835837
    20  H    3.454479   2.169913   1.091155   9.044375  10.383622
    21  H    2.767614   2.176012   1.093004   8.578077   9.848307
    22  H    5.959870   6.703906   8.189411   1.084109   2.144095
    23  Cl   7.654937   9.087100  10.094102   4.499460   3.980689
    24  H    4.828820   6.261704   7.281592   3.402872   3.856035
    25  C    8.420601   9.320473  10.769659   2.502521   1.502180
    26  H    8.609879   9.825626  11.103250   3.408369   2.164890
    27  F    9.409610  10.369628  11.794422   3.544160   2.355950
    28  F    9.024460   9.898060  11.343250   3.280392   2.355560
    29  F    8.365943   9.083583  10.579603   2.748404   2.366188
                   11         12         13         14         15
    11  C    0.000000
    12  C    1.383624   0.000000
    13  C    2.434679   1.389735   0.000000
    14  H    4.717982   4.459537   3.340060   0.000000
    15  H    7.659304   6.727908   5.364227   4.175456   0.000000
    16  H    7.627166   6.677060   5.312739   4.178586   1.769483
    17  H    8.788634   8.145277   6.788776   4.366371   3.060493
    18  H    8.819303   8.189591   6.831648   4.366055   2.501256
    19  H   10.169861   9.250784   7.877160   6.279245   3.133568
    20  H   10.903058  10.125239   8.736342   6.583921   3.776008
    21  H   10.199321   9.293212   7.917482   6.280596   2.592068
    22  H    3.402679   3.840569   3.400897   2.278315   6.334786
    23  Cl   2.698982   1.743012   2.695756   6.020424   7.562882
    24  H    3.404875   2.147877   1.079079   3.725699   4.792611
    25  C    2.480194   3.740396   4.278245   4.888152   8.695149
    26  H    1.082851   2.152872   3.414168   5.781750   8.699516
    27  F    2.795028   4.141221   4.947450   5.974677   9.570052
    28  F    3.066365   4.297323   4.900926   5.530311   9.416331
    29  F    3.615136   4.727579   4.969704   4.688103   8.679337
                   16         17         18         19         20
    16  H    0.000000
    17  H    2.499750   0.000000
    18  H    3.060528   1.759957   0.000000
    19  H    2.585665   2.524917   3.078869   0.000000
    20  H    3.772202   2.506550   2.508736   1.762984   0.000000
    21  H    3.135866   3.078900   2.523695   1.765622   1.763000
    22  H    6.355045   6.563700   6.546984   8.545732   8.828395
    23  Cl   7.490572   9.301683   9.362376  10.042277  11.101278
    24  H    4.719153   6.514588   6.570230   7.277555   8.278275
    25  C    8.685427   9.196112   9.208160  11.048866  11.471322
    26  H    8.665826   9.865722   9.898108  11.221524  11.980189
    27  F    9.699189  10.331205  10.213687  12.098976  12.526161
    28  F    9.171068   9.648408   9.883447  11.531822  12.028213
    29  F    8.762639   8.923126   8.844605  10.962949  11.182955
                   21         22         23         24         25
    21  H    0.000000
    22  H    8.534410   0.000000
    23  Cl  10.102464   5.583556   0.000000
    24  H    7.331196   4.302711   2.827599   0.000000
    25  C   11.060884   2.711379   5.175435   5.357039   0.000000
    26  H   11.253031   4.300673   2.849273   4.294780   2.692183
[...]
 ,-0.00000361,-0.00000211,0.00018653,0.00003598,-0.00001538,0.04130847,
 0.00245877,0.00484184,-0.00012227,0.00161723,-0.00133522,-0.00023785,-
 0.00321004,-0.00118426,-0.00000383,0.00096872,0.00094715,0.00005719,0.
 00163850,-0.00036108,-0.00010125,-0.00065509,-0.00021432,0.00000468,0.
 00006388,0.00007938,0.00000670,-0.00000244,-0.00006624,-0.00001073,0.0
 0011880,-0.00286981,-0.00026510,-0.00609820,0.00141082,-0.00038302,0.0
 0432558,-0.04048032,-0.00606045,0.01335783,-0.16834756,-0.01978602,0.0
 0679372,-0.03384529,-0.00522407,0.00023224,0.00010738,-0.00000166,0.00
 007333,0.00002594,0.00001418,0.00007214,0.00002739,-0.00001443,-0.0000
 1268,-0.00000323,0.00001231,-0.00001246,-0.00000084,-0.00001148,0.0000
 0311,0.00001143,-0.00001143,0.00003728,-0.00000323,-0.00000208,0.00000
 356,0.00000964,0.00001490,0.00007311,-0.00003023,0.00008238,-0.0225615
 1,0.24076163,0.00053981,0.00002191,0.00526825,0.00025029,-0.00023971,-
 0.00001389,-0.00048816,-0.00013729,0.00005426,0.00015716,0.00010175,0.
 00007798,0.00026295,-0.00006987,-0.00003678,-0.00010661,-0.00003276,-0
 .00000557,0.00000950,0.00001302,-0.00000112,-0.00000002,-0.00001091,-0
 .00000033,-0.00005012,-0.00025756,-0.00105410,-0.00048341,-0.00041989,
 0.00489379,0.00056042,-0.00528566,0.00370764,0.00261709,-0.01981437,-0
 .02619200,0.00109967,-0.00591633,0.00317715,0.00003742,0.00003867,-0.0
 0017215,0.00001181,0.00000500,0.00000408,0.00000984,0.00000434,0.00000
 046,-0.00000256,0.00000088,0.00000243,-0.00000074,-0.00000223,-0.00000
 089,-0.00000062,0.00000153,-0.00000111,0.00000634,-0.00000092,-0.00000
 069,0.00000112,0.00000215,0.00000236,-0.00000754,0.00005561,-0.0004783
 0,-0.00407600,0.03122999,0.01604940,0.01197974,0.00337777,0.00032247,-
 0.00310094,-0.00172630,-0.00019234,0.00237012,0.00760442,0.00077102,-0
 .00781470,-0.00230889,0.00007979,0.00060500,-0.00154172,-0.00017038,-0
 .00052947,-0.00012042,0.00001744,0.00001175,0.00004813,0.00000509,0.00
 000527,-0.00004489,-0.00000703,0.00006926,0.00206636,0.00048428,0.0003
 4857,0.00104596,0.00003351,-0.00298264,0.00252776,0.00061929,-0.017217
 12,-0.01528474,-0.00150896,-0.24277581,-0.14881108,-0.01414468,-0.0001
 5540,-0.00008742,-0.00003185,-0.00000395,0.00003764,-0.00000494,-0.000
 00359,0.00003680,0.00000962,0.00000093,-0.00001148,-0.00000498,0.00000
 133,-0.00001107,0.00000186,-0.00000181,0.00000835,0.00000169,0.0000261
 9,-0.00000619,-0.00000197,-0.00000310,0.00000912,0.00000107,0.00043452
 ,0.00047054,0.00004133,0.00072813,-0.00110175,-0.00031926,0.25861489,-
 0.02497575,-0.01196213,-0.00159107,0.00069610,0.00215476,0.00071606,0.
 00053520,-0.00539908,-0.00063397,-0.00123491,0.00256186,0.00042266,-0.
 00066852,0.00115575,0.00007627,0.00042158,0.00012849,-0.00002765,-0.00
 001440,-0.00003579,-0.00000379,0.00000267,0.00003775,0.00000521,0.0017
 1380,-0.00467605,-0.00148635,0.00106918,-0.00075559,-0.00006295,0.0033
 1494,-0.00049282,-0.00097703,0.01159373,0.01078257,0.00079175,-0.14742
 875,-0.17240156,-0.01371781,-0.00003788,-0.00006051,0.00005593,-0.0000
 1451,-0.00001869,0.00001328,-0.00000871,-0.00002142,-0.00000791,-0.000
 00357,0.00001108,0.00000187,-0.00000312,0.00000794,0.00000197,-0.00000
 069,-0.00000682,0.00000442,-0.00002357,0.00000171,0.00000139,0.0000007
 1,-0.00000532,-0.00000547,-0.00111066,-0.00057318,-0.00002154,0.001035
 08,0.00065479,0.00045305,0.15465315,0.17827256,-0.00339730,-0.00226839
 ,0.00510561,0.00014504,0.00079059,-0.00357482,-0.00007972,-0.00110893,
 -0.00029166,0.00016941,0.00053435,-0.00048615,-0.00008284,0.00017909,0
 .00057001,0.00008609,0.00000332,0.00017038,-0.00000218,-0.00000603,-0.
 00000372,0.00000038,0.00000589,0.00000739,0.00030374,-0.00148076,0.006
 08781,0.00014744,0.00002652,-0.00069648,0.00067256,-0.00102672,0.00585
 356,0.00215687,0.00152376,0.00267190,-0.01397365,-0.01354773,-0.038789
 72,-0.00001835,0.00004367,-0.00039406,0.00001782,-0.00002120,-0.000032
 97,-0.00002373,0.00001898,-0.00003050,0.00000280,-0.00001081,-0.000006
 66,-0.00000436,0.00001600,-0.00000337,0.00000562,0.00000298,-0.0000037
 0,-0.00000411,0.00000037,-0.00000068,-0.00000628,-0.00000429,-0.000004
 78,-0.00013644,-0.00005468,-0.00019217,-0.00000002,0.00047652,-0.00266
 616,0.01404585,0.01584257,0.02703664,-0.00678358,0.00372397,0.00106782
 ,0.00452494,-0.00008519,-0.00014345,-0.00547572,-0.00068660,0.00019847
 ,0.00183027,0.00079933,0.00000155,0.00309982,-0.00113812,-0.00025662,-
 0.00129826,-0.00031097,0.00001187,0.00009209,0.00015778,0.00002058,0.0
 0000276,-0.00013134,-0.00002469,-0.02341091,-0.01293493,-0.00281588,-0
 .17525728,-0.06056340,-0.01078603,0.01079578,-0.00763046,0.00004986,0.
 00428216,-0.00021526,0.00034223,0.00060457,0.00374142,0.00032995,-0.00
 039372,0.00026645,0.00004029,0.00012354,0.00005746,-0.00000212,0.00012
 491,0.00005499,0.00000137,-0.00002323,-0.00001403,0.00000449,-0.000021
 01,-0.00001202,-0.00000726,-0.00000341,0.00002841,-0.00000564,0.000088
 81,-0.00002701,-0.00000676,-0.00000615,0.00002896,0.00001630,-0.000614
 21,-0.00041666,-0.00000353,0.00017428,0.00434350,0.00044956,-0.0006248
 8,0.00002338,-0.00003539,0.58982286,0.00266115,0.00237905,-0.00022263,
 0.00508991,0.00045498,-0.00026920,-0.00375890,-0.00018960,-0.00000244,
 0.00117470,0.00007935,-0.00001635,0.00249240,-0.00115657,-0.00020386,-
 0.00081972,-0.00019800,0.00001614,0.00006986,0.00016504,0.00001001,0.0
 0002431,-0.00011362,-0.00001740,0.00155137,0.01680034,0.00397184,-0.06
 242202,-0.13704632,-0.01202607,-0.02421659,-0.01728795,-0.00399348,-0.
 00014999,-0.00722242,-0.00149884,0.00378486,-0.00151489,-0.00026764,0.
 00023443,0.00065175,0.00001494,0.00008420,0.00004149,-0.00001947,0.000
 08186,0.00002822,0.00002242,-0.00000088,-0.00000832,-0.00003602,0.0000
 0452,-0.00002334,0.00003720,-0.00001569,0.00000853,0.00001507,0.000069
 75,-0.00001317,-0.00000624,-0.00001504,0.00001692,-0.00000645,0.003479
 50,-0.00178646,-0.00012524,-0.00039952,0.00066585,0.00015315,-0.000277
 95,-0.00031465,-0.00001605,0.03821709,0.57334236,0.00090854,-0.0000037
 0,0.00705530,0.00087784,0.00014481,-0.00022623,-0.00069021,-0.00016671
 ,0.00024699,0.00022218,0.00008889,-0.00014046,0.00045593,-0.00016730,-
 0.00020014,-0.00015273,-0.00005273,0.00008302,0.00001774,0.00002501,0.
 00004490,0.00000271,-0.00001995,-0.00000562,0.00200256,0.00268548,0.00
 094054,-0.00811929,-0.00985029,-0.06846573,-0.00344179,-0.00109239,-0.
 00087378,0.00076821,-0.00188602,0.00610185,0.00063487,-0.00000333,-0.0
 0119263,0.00001016,0.00001313,0.00042041,0.00000692,-0.00000799,-0.000
 02002,0.00002686,0.00002848,-0.00001061,0.00000227,-0.00002159,-0.0000
 2093,-0.00000625,0.00001824,-0.00001139,0.00000812,0.00001686,-0.00000
 611,0.00001202,-0.00000293,0.00000777,-0.00001169,-0.00000874,-0.00000
 965,-0.00004764,0.00033225,-0.00288889,-0.00006807,0.00020336,0.000146
 94,-0.00004274,0.00001918,-0.00041890,-0.00076279,0.00826367,0.4965559
 9,-0.00022863,-0.00073946,-0.00013803,0.00054694,0.00004312,-0.0000349
 5,-0.00026539,-0.00040132,-0.00003962,-0.00013155,0.00026667,0.0000366
 2,0.00004516,0.00003211,0.00000581,-0.00001093,0.00000182,0.00000058,0
 .00000176,0.00000246,0.00000023,0.00000026,-0.00000090,-0.00000005,0.0
 0171496,-0.00051679,0.00012119,0.00225872,0.00058477,0.00023713,-0.305
 69237,0.10485863,0.02260988,-0.01723759,0.01129535,0.00209261,-0.00176
 735,-0.00357742,-0.00019259,-0.00001616,0.00002585,0.00000945,0.000004
 23,-0.00000099,0.00000050,0.00000378,-0.00000034,-0.00000158,-0.000000
 81,0.00000045,-0.00000011,-0.00000079,0.00000059,0.00000019,-0.0000001
 9,0.00000037,0.,0.00000095,-0.00000046,-0.00000007,-0.00000030,0.00000
 029,0.00000003,0.00015569,-0.00015516,-0.00001165,0.00099580,0.0007080
 2,-0.00009060,-0.00050173,0.00057450,0.00011939,-0.00041040,-0.0000482
 7,0.00010164,0.32086667,-0.00035723,-0.00097268,-0.00000060,0.00003130
 ,0.00030997,0.00012458,0.00001260,-0.00024335,0.00000292,-0.00012900,0
 .00017440,0.00003384,-0.00003172,0.00007817,-0.00000414,0.00001623,0.0
 0000127,-0.00000636,0.00000086,-0.00000177,-0.00000083,-0.00000006,0.0
 0000139,0.00000050,-0.00105526,-0.00512482,-0.00147684,0.02759188,-0.0
 0601623,-0.00192506,0.10656618,-0.10280917,-0.01270107,-0.01820679,0.0
 0999137,0.00156552,-0.00323889,-0.00232022,-0.00098109,-0.00012965,-0.
 00000818,-0.00001462,-0.00000088,0.00000028,0.00000187,0.00000020,-0.0
 0000125,-0.00000048,-0.00000070,0.00000074,0.00000092,-0.00000066,0.00
 000032,-0.00000035,0.00000009,-0.00000021,0.00000010,-0.00000071,-0.00
 000007,-0.00000003,0.00000047,0.00000002,0.00000007,0.00138930,-0.0002
 7596,-0.00016372,-0.00075933,0.00107211,0.00045606,-0.00068909,0.00067
 048,0.00007953,0.00293844,-0.00119176,-0.00045974,-0.11164822,0.105809
 04,-0.00007988,-0.00000612,-0.00082059,-0.00001428,0.00010016,-0.00061
 414,-0.00000357,-0.00001947,-0.00019004,-0.00002874,0.00003252,-0.0000
 3900,-0.00000416,0.00000171,0.00009633,0.00000641,-0.00000348,0.000034
 09,0.00000024,-0.00000057,0.00000197,-0.00000018,0.00000077,-0.0000006
 9,0.00002365,-0.00140062,0.00576547,0.00375683,-0.00098799,0.00255846,
 0.02351710,-0.01296327,-0.03600319,-0.00188939,0.00069215,0.00249747,-
 0.00024873,-0.00096751,0.00555443,-0.00001060,-0.00000829,0.00009691,0
 .00000413,-0.00000587,-0.00000659,-0.00000476,0.00000689,-0.00000497,0
 .00000028,-0.00000214,-0.00000146,-0.00000050,0.00000269,-0.00000102,0
 .00000129,0.00000093,-0.00000080,-0.00000034,0.00000022,0.00000049,-0.
 00000119,-0.00000107,-0.00000099,0.00018912,-0.00013017,0.00063273,-0.
 00021637,0.00045180,-0.00264457,-0.00006550,0.00003464,0.00033954,0.00
 023140,0.00025265,-0.00217604,-0.02490853,0.01453685,0.02638111,-0.000
 24813,0.00004323,-0.00155033,-0.00237030,-0.00070696,-0.00025937,0.002
 20434,0.00064761,-0.00005554,-0.00069881,-0.00044607,-0.00004569,-0.00
 137997,0.00040179,0.00010147,0.00054515,0.00015564,0.00002301,-0.00004
 659,-0.00006970,-0.00000245,-0.00000199,0.00005754,0.00001024,-0.00140
 777,-0.00764138,0.00073483,-0.03868747,0.01110989,0.03168088,-0.001855
 57,0.00143975,-0.00034336,0.00008460,0.00175574,-0.00061856,-0.0009960
 7,-0.00026714,0.00025297,0.00017982,-0.00013189,0.00005741,-0.00005420
 ,-0.00002717,-0.00000439,-0.00005352,-0.00002159,-0.00000022,0.0000110
 6,0.00000259,-0.00000611,0.00000885,0.00000758,0.00000226,0.00000216,-
 0.00000992,0.00000223,-0.00003721,0.00001059,0.00000389,0.00000038,-0.
 00001384,-0.00000930,0.00057858,0.00016186,0.00070059,0.00009769,-0.00
 122750,-0.00012126,0.00021672,-0.00004932,0.00006456,-0.20304977,0.019
 44699,0.09201364,-0.00046026,-0.00168292,0.00067882,0.24998721,-0.0002
 9097,-0.00002126,-0.00037729,-0.00096451,-0.00000884,-0.00000711,0.000
 61002,0.00009146,-0.00003278,-0.00016512,-0.00003804,0.00000748,-0.000
 37628,0.00018092,0.00004154,0.00011580,0.00002512,-0.00000261,-0.00001
 039,-0.00002608,-0.00000254,-0.00000457,0.00001756,0.00000225,-0.00090
 214,-0.00249059,0.00024523,-0.01290101,0.01043107,0.00636133,-0.000796
 59,-0.00219482,0.00106566,0.00044062,0.00136672,0.00049096,-0.00067554
 ,0.00030732,0.00011080,-0.00005026,-0.00011037,-0.00000582,-0.00001208
 ,-0.00000509,0.00000433,-0.00001353,-0.00000438,-0.00000344,-0.0000004
 3,0.00000214,0.00000746,-0.00000116,0.00000316,-0.00000646,0.00000233,
 -0.00000135,-0.00000272,-0.00001045,0.00000176,0.00000060,0.00000296,-
 0.00000183,0.00000218,-0.00044215,0.00017207,0.00015104,-0.00000590,-0
 .00011369,-0.00000532,-0.00003004,0.00007836,-0.00004104,0.02673558,-0
 .08252911,-0.02302545,-0.00173771,0.00010414,-0.00000753,-0.06533790,0
 .10584856,-0.00008170,-0.00100019,-0.00022732,0.00074557,0.00040188,0.
 00012926,-0.00064326,-0.00030337,-0.00008051,0.00020844,0.00019701,0.0
 0006451,0.00040048,-0.00007379,0.00000892,-0.00016410,-0.00004891,-0.0
 0002411,0.00001437,0.00001897,-0.00000840,-0.00000088,-0.00001560,-0.0
 0000281,0.00150331,0.00293078,0.00041700,0.01206856,-0.00532285,-0.000
 30707,-0.00007233,-0.00184103,0.00071277,0.00050033,-0.00014689,0.0002
 2819,-0.00022869,0.00054298,0.00000851,-0.00010123,0.00002475,-0.00009
 008,0.00001906,0.00001189,0.00000690,0.00001396,0.00000222,0.00000149,
 -0.00000519,0.00000385,0.00000878,-0.00000256,-0.00000657,-0.00000028,
 -0.00000210,0.00000025,-0.00000015,0.00001034,-0.00000287,-0.00000306,
 0.00000314,0.00000701,0.00000627,-0.00025798,0.00003298,-0.00008066,-0
 .00002266,0.00045604,0.00006053,-0.00006889,0.00005770,-0.00004761,0.0
 9544328,-0.01789306,-0.13947882,-0.00010376,0.00074843,-0.00046949,-0.
 15225635,0.05742930,0.21580278,0.00108138,-0.00114229,0.00182123,-0.00
 158741,-0.00025337,0.00009489,0.00179030,0.00022296,-0.00015772,-0.000
 61606,-0.00021857,0.00003773,-0.00110024,0.00039587,0.00010406,0.00044
 629,0.00011410,-0.00001017,-0.00003402,-0.00005843,-0.00001112,-0.0000
 0177,0.00004719,0.00000759,0.00101958,-0.00245409,-0.00103425,-0.01589
 874,-0.00502085,-0.03723217,-0.00218494,0.00161134,-0.00063168,-0.0010
 2207,0.00075700,0.00185052,-0.00066113,-0.00078390,-0.00044848,0.00009
 221,-0.00010744,-0.00004537,-0.00004154,-0.00001839,0.00000358,-0.0000
 4446,-0.00002130,0.00000008,0.00000675,0.00000719,0.00000231,0.0000071
 2,0.00000196,0.00000246,0.00000083,-0.00001126,0.00000222,-0.00003121,
 0.00000921,0.00000135,0.00000396,-0.00000841,-0.00000369,0.00004410,0.
 00037759,-0.00093263,0.00003482,-0.00104024,-0.00010713,0.00020435,0.0
 0003964,-0.00013465,-0.11728696,-0.00633693,-0.08095190,-0.00001502,-0
 .00030278,-0.00101810,0.01678126,0.00284758,0.03160278,0.12045769,-0.0
 0030435,-0.00134924,0.00069024,-0.00091155,-0.00001986,0.00016282,0.00
 085006,-0.00000118,-0.00001030,-0.00026546,-0.00001202,0.00000863,-0.0
 0054780,0.00025698,0.00004057,0.00019567,0.00004375,-0.00000159,-0.000
 01569,-0.00003489,-0.00000462,-0.00000409,0.00002422,0.00000398,0.0007
 2057,-0.00206945,-0.00144052,-0.01412356,0.00829187,-0.01722547,-0.000
 25923,0.00019206,0.00029549,0.00093993,0.00125620,0.00049071,-0.001099
 61,0.00059618,-0.00000914,-0.00003015,-0.00011204,-0.00002829,-0.00001
 982,-0.00000889,0.00000419,-0.00001903,-0.00000687,-0.00000407,0.00000
 088,0.00000200,0.00000711,0.00000006,0.00000436,-0.00000652,0.00000313
 ,-0.00000281,-0.00000268,-0.00001587,0.00000345,0.00000122,0.00000342,
 -0.00000392,0.00000089,-0.00042177,0.00016952,-0.00038342,0.00000172,-
 0.00025715,-0.00008393,0.00008039,0.00005849,-0.00000922,-0.00555611,-
 0.07347469,-0.00457764,0.00018504,0.00014184,0.00004767,0.00111521,0.0
 1057307,-0.01532126,-0.01059045,0.07791889,0.00004733,-0.00098542,0.00
 077387,-0.00146895,-0.00030575,0.00034379,0.00140859,0.00029775,-0.000
 13692,-0.00045783,-0.00022275,0.00008872,-0.00087766,0.00030210,0.0001
 1862,0.00032907,0.00009672,-0.00005113,-0.00002921,-0.00004616,-0.0000
 2519,-0.00000228,0.00003707,0.00000765,0.00011019,-0.00303916,-0.00074
 034,-0.01779911,-0.00077989,-0.01839375,-0.00149654,0.00068364,0.00073
 871,-0.00036117,0.00065301,0.00102078,-0.00068435,-0.00013566,-0.00016
 880,0.00007033,-0.00005967,-0.00020114,-0.00002872,-0.00000980,0.00000
 973,-0.00003787,-0.00002531,0.00000390,0.00000281,0.00001349,0.0000090
 5,0.00000671,-0.00000516,0.00000676,-0.00000294,-0.00001339,0.00000379
 ,-0.00002341,0.00000608,-0.00000216,0.00000671,-0.00000163,0.00000172,
 0.00010074,0.00026221,-0.00095943,-0.00000823,-0.00086017,-0.00010664,
 0.00012356,0.00003015,-0.00014624,-0.08141716,-0.00643107,-0.21976929,
 0.00015202,0.00011769,-0.00095338,0.01465223,-0.01179876,-0.08402768,0
 .11171308,-0.01833882,0.35450389,0.00199324,-0.00071613,-0.00024478,-0
 .00095150,-0.00006801,0.00007438,0.00112325,0.00033445,-0.00000820,-0.
 00033254,-0.00028153,-0.00001532,-0.00060229,0.00017652,0.00004903,0.0
 0025344,0.00006405,-0.00000600,-0.00001901,-0.00002837,-0.00000544,0.0
 0000023,0.00002449,0.00000495,-0.00340972,-0.00109978,0.00134056,0.008
 77255,-0.02512052,0.00235499,-0.00420467,-0.00063377,0.00063884,0.0000
 2661,-0.00040369,-0.00054677,-0.00018624,-0.00068806,0.00004479,0.0001
 6060,-0.00002485,-0.00003700,-0.00002580,-0.00001069,-0.00000056,-0.00
 002594,-0.00001164,0.00000164,0.00000562,0.00000290,-0.00000270,0.0000
 0575,0.00000096,0.00000384,-0.00000035,-0.00000615,0.00000219,-0.00001
 678,0.00000527,0.00000113,0.00000061,-0.00000549,-0.00000390,-0.000705
 88,-0.00270531,-0.00010205,-0.00010595,-0.00096740,-0.00015896,0.00009
 836,-0.00009928,-0.00003855,-0.08090730,0.01999460,-0.00377713,0.00014
 453,-0.00031368,0.00008554,-0.01935018,0.05397384,0.01147809,-0.001445
 08,0.03008846,-0.02402797,0.09970441,0.00133944,-0.00048053,-0.0007339
 2,-0.00213949,0.00023138,0.00006154,0.00171807,-0.00009393,0.00000070,
 -0.00054189,0.00003623,0.00000251,-0.00104530,0.00056895,0.00008299,0.
 00034411,0.00006474,0.00000153,-0.00002551,-0.00007406,-0.00000062,-0.
 00001271,0.00004974,0.00000690,0.00267981,-0.00200649,-0.00075889,0.00
 849528,-0.04551150,0.00739623,-0.00901655,-0.00079124,0.00121454,0.000
 98900,-0.00014102,-0.00093818,-0.00071099,-0.00014763,0.00021970,-0.00
 014007,-0.00032565,0.00002649,-0.00003600,-0.00001752,0.00001067,-0.00
 003406,-0.00000836,-0.00001384,-0.00000123,0.00000223,0.00001933,-0.00
 000478,0.00001297,-0.00002223,0.00000901,-0.00000140,-0.00000953,-0.00
 003076,0.00000566,0.00000339,0.00000747,-0.00000770,0.00000456,-0.0020
 9399,0.00066352,0.00086949,-0.00042091,-0.00150291,-0.00026036,0.00008
 663,0.00014703,0.00005169,0.00860533,-0.27056301,0.02950717,0.00024699
 ,0.00061013,0.00034246,0.04127729,-0.04165797,-0.02088968,0.02193706,-
 0.02217988,0.04055863,-0.07148123,0.38311825,0.00011949,0.00035140,0.0
 0004788,0.00007253,-0.00003908,0.00011318,-0.00003770,-0.00000131,-0.0
 0002448,0.00000092,0.00000190,0.00002738,0.00002134,-0.00001786,0.0000
 2569,-0.00000383,0.00000248,-0.00002457,-0.00000047,0.00000262,-0.0000
 1096,0.00000066,-0.00000109,0.00000147,-0.00036827,-0.00008322,0.00015
 301,-0.00122411,0.00052025,0.00844282,0.00092332,0.00033517,0.00143364
 ,-0.00076743,0.00015344,-0.00048690,0.00027513,-0.00033928,0.00000794,
 -0.00001016,0.00002311,-0.00010756,0.00000257,0.00000392,0.00000337,-0
 .00000104,-0.00000470,0.00000312,-0.00000090,0.00000382,0.00000335,0.0
 0000169,-0.00000495,0.00000409,-0.00000229,-0.00000322,0.00000203,0.00
 000045,0.00000023,-0.00000188,0.00000192,0.00000258,0.00000159,0.00017
 859,0.00030068,-0.00026331,0.00005493,0.00008578,-0.00007097,0.0000056
 2,0.00000744,-0.00005249,-0.00194170,0.03029443,-0.07568845,0.00003428
 ,0.00006606,-0.00003202,0.01429394,-0.03060128,0.00739216,-0.02452480,
 0.05569397,-0.03194890,0.01289534,-0.05675329,0.09104977\\0.00000100,0
 .00000097,0.00000106,-0.00000107,-0.00000031,-0.00000060,0.00000154,0.
 00000166,0.00000066,0.00000104,-0.00000309,0.00000186,-0.00000045,-0.0
 0000130,-0.00000127,-0.00000065,-0.00000217,-0.00000086,-0.00000094,-0
 .00000237,-0.00000296,-0.00000072,-0.00000339,-0.00000256,-0.00000027,
 0.00000191,-0.00000032,0.00000040,0.00000155,0.00000156,0.00000071,0.0
 0000199,0.00000241,0.00000112,0.00000136,0.00000386,0.00000111,0.00000
 108,0.00000285,-0.00000067,0.00000061,-0.00000183,0.00000044,-0.000003
 40,-0.00000031,0.00000019,-0.00000070,0.00000022,-0.00000149,-0.000000
 84,-0.00000363,-0.00000129,-0.00000346,-0.00000394,-0.00000031,-0.0000
 0219,-0.00000158,-0.00000125,-0.00000349,-0.00000404,-0.00000006,-0.00
 000492,-0.00000192,-0.00000119,0.00000185,-0.00000174,0.00000282,0.000
 00100,0.00000665,0.00000154,-0.00000019,0.00000388,-0.00000052,0.00000
 276,0.00000042,0.00000149,0.00000294,0.00000420,0.00000007,0.00000291,
 -0.00000009,-0.00000115,0.00000655,0.00000058,-0.00000146,0.00000267,-
 0.00000253\\\@


 ASKING FOR EFFICIENCY AND ADAPTABILITY IN THE SAME PROGRAM IS LIKE
 ASKING FOR A BEAUTIFUL AND MODEST WIFE ...
 WE'LL PROBABLY HAVE TO SETTLE FOR ONE OR THE OTHER.

             -- THE PSYCHOLOGY OF COMPUTER PROGRAMMING
                GERALD M. WEINBERG
 Job cpu time:       0 days  3 hours 27 minutes 11.8 seconds.
 Elapsed time:       0 days  3 hours 27 minutes 12.5 seconds.
 File lengths (MBytes):  RWF=    667 Int=      0 D2E=      0 Chk=     24 Scr=      1
 Normal termination of Gaussian 16 at Sat Sep  5 04:15:12 2020.
