 Entering Gaussian System, Link 0=/apps/gaussian/g09e01/g09/g09
 Initial command:
 /apps/gaussian/g09e01/g09/l1.exe "/jobfs/local/3588850.r-man2/Gau-57277.inp" -scrdir="/jobfs/local/3588850.r-man2/"
 Entering Link 1 = /apps/gaussian/g09e01/g09/l1.exe PID=     57278.
  
 Copyright (c) 1988,1990,1992,1993,1995,1998,2003,2009,2015,
            Gaussian, Inc.  All Rights Reserved.
  
 This is part of the Gaussian(R) 09 program.  It is based on
 the Gaussian(R) 03 system (copyright 2003, Gaussian, Inc.),
 the Gaussian(R) 98 system (copyright 1998, Gaussian, Inc.),
 the Gaussian(R) 94 system (copyright 1995, Gaussian, Inc.),
 the Gaussian 92(TM) system (copyright 1992, Gaussian, Inc.),
 the Gaussian 90(TM) system (copyright 1990, Gaussian, Inc.),
 the Gaussian 88(TM) system (copyright 1988, Gaussian, Inc.),
 the Gaussian 86(TM) system (copyright 1986, Carnegie Mellon
 University), and the Gaussian 82(TM) system (copyright 1983,
 Carnegie Mellon University). Gaussian is a federally registered
 trademark of Gaussian, Inc.
  
 This software contains proprietary and confidential information,
 including trade secrets, belonging to Gaussian, Inc.
  
 This software is provided under written license and may be
 used, copied, transmitted, or stored only in accord with that
 written license.
  
 The following legend is applicable only to US Government
 contracts under FAR:
  
                    RESTRICTED RIGHTS LEGEND
  
 Use, reproduction and disclosure by the US Government is
 subject to restrictions as set forth in subparagraphs (a)
 and (c) of the Commercial Computer Software - Restricted
 Rights clause in FAR 52.227-19.
  
 Gaussian, Inc.
 340 Quinnipiac St., Bldg. 40, Wallingford CT 06492
  
  
 ---------------------------------------------------------------
 Warning -- This program may not be used in any manner that
 competes with the business of Gaussian, Inc. or will provide
 assistance to any competitor of Gaussian, Inc.  The licensee
 of this program is prohibited from giving any competitor of
 Gaussian, Inc. access to this program.  By using this program,
 the user acknowledges that Gaussian, Inc. is engaged in the
 business of creating and licensing software in the field of
 computational chemistry and represents and warrants to the
 licensee that it is not a competitor of Gaussian, Inc. and that
 it will not use this program in any manner prohibited above.
 ---------------------------------------------------------------
  

 Cite this work as:
 Gaussian 09, Revision E.01,
 M. J. Frisch, G. W. Trucks, H. B. Schlegel, G. E. Scuseria, 
 M. A. Robb, J. R. Cheeseman, G. Scalmani, V. Barone, B. Mennucci, 
 G. A. Petersson, H. Nakatsuji, M. Caricato, X. Li, H. P. Hratchian, 
 A. F. Izmaylov, J. Bloino, G. Zheng, J. L. Sonnenberg, M. Hada, 
 M. Ehara, K. Toyota, R. Fukuda, J. Hasegawa, M. Ishida, T. Nakajima, 
 Y. Honda, O. Kitao, H. Nakai, T. Vreven, J. A. Montgomery, Jr., 
 J. E. Peralta, F. Ogliaro, M. Bearpark, J. J. Heyd, E. Brothers, 
 K. N. Kudin, V. N. Staroverov, T. Keith, R. Kobayashi, J. Normand, 
 K. Raghavachari, A. Rendell, J. C. Burant, S. S. Iyengar, J. Tomasi, 
 M. Cossi, N. Rega, J. M. Millam, M. Klene, J. E. Knox, J. B. Cross, 
 V. Bakken, C. Adamo, J. Jaramillo, R. Gomperts, R. E. Stratmann, 
 O. Yazyev, A. J. Austin, R. Cammi, C. Pomelli, J. W. Ochterski, 
 R. L. Martin, K. Morokuma, V. G. Zakrzewski, G. A. Voth, 
 P. Salvador, J. J. Dannenberg, S. Dapprich, A. D. Daniels, 
 O. Farkas, J. B. Foresman, J. V. Ortiz, J. Cioslowski, 
 and D. J. Fox, Gaussian, Inc., Wallingford CT, 2013.
 
 ******************************************
 Gaussian 09:  ES64L-G09RevE.01 30-Nov-2015
                14-Nov-2019 
 ******************************************
 %chk=NM3CA.M062X_6-311pGd_opt_Pentadecane_GD3.chk
 %mem=196608000
 %nproc=4
 Will use up to    4 processors via shared memory.
 ----------------------------------------------------------------------
 # M062X/6-311+G* SCF=Tight INT(grid=ultrafine) OPT IOP(2/17=4) Empiric
 alDispersion=GD3 SCRF=(SMD,Solvent=n-Pentadecane) maxdisk=2147483648
 ----------------------------------------------------------------------
 1/14=-1,18=20,19=15,26=4,38=1/1,3;
 2/9=110,12=2,17=4,18=5,40=1/2;
 3/5=4,6=6,7=11,11=2,16=1,25=1,30=1,70=32201,71=1,72=151,74=-55,75=-5,124=31/1,2,3;
 4//1;
 5/5=2,32=2,38=5,53=151/2;
 6/7=2,8=2,9=2,10=2,28=1/1;
 7//1,2,3,16;
 1/14=-1,18=20,19=15,26=4/3(2);
 2/9=110,17=4/2;
 99//99;
 2/9=110,17=4/2;
 3/5=4,6=6,7=11,11=2,16=1,25=1,30=1,70=32205,71=1,72=151,74=-55,75=-5,124=31/1,2,3;
 4/5=5,16=3,69=1/1;
 5/5=2,32=2,38=5,53=151/2;
 7//1,2,3,16;
 1/14=-1,18=20,19=15,26=4/3(-5);
 2/9=110,17=4/2;
 6/7=2,8=2,9=2,10=2,19=2,28=1/1;
 99/9=1/99;
 ----------------------------------------
 NM3CA.M062X_6-311pGd_opt_Pentadecane_GD3
 ----------------------------------------
 Symbolic Z-matrix:
 Charge =  0 Multiplicity = 1
 C                    -5.95472   1.28401   0.19273 
 N                    -4.67563   0.72928   0.09729 
 C                    -3.47393   1.39127   0.09525 
 O                    -3.31637   2.5832    0.17652 
 O                    -2.48312   0.49571  -0.01278 
 C                    -1.15154   1.04077  -0.02845 
 C                    -0.1815   -0.1129   -0.15502 
 C                     1.25745   0.39273  -0.17763 
 C                    -6.19241   2.65907   0.30142 
 C                    -7.50373   3.10144   0.38978 
 C                    -8.59218   2.23621   0.37507 
 C                    -8.32778   0.88106   0.26665 
 C                    -7.0336    0.39538   0.17582 
 H                    -4.61638  -0.27665   0.02131 
 H                    -0.99137   1.60335   0.89441 
 H                    -1.06565   1.73427  -0.8684 
 H                    -0.40368  -0.66849  -1.07029 
 H                    -0.33021  -0.79912   0.68329 
 H                     1.42868   1.06739  -1.0204 
 H                     1.96151  -0.43587  -0.26911 
 H                     1.50251   0.93592   0.73868 
 H                    -5.37104   3.35842   0.31568 
 Cl                   -9.65416  -0.24852   0.24303 
 H                    -6.86288  -0.67222   0.09195 
 C                    -7.79401   4.57194   0.51039 
 H                    -9.60844   2.60443   0.44523 
 F                    -8.57699   5.00341  -0.49324 
 F                    -8.45148   4.8522    1.64887 
 F                    -6.68906   5.32245   0.49887 
 

 GradGradGradGradGradGradGradGradGradGradGradGradGradGradGradGradGradGrad
 Berny optimization.
 Initialization pass.
                           ----------------------------
                           !    Initial Parameters    !
                           ! (Angstroms and Degrees)  !
 --------------------------                            --------------------------
 ! Name  Definition              Value          Derivative Info.                !
 --------------------------------------------------------------------------------
 ! R1    R(1,2)                  1.3975         estimate D2E/DX2                !
 ! R2    R(1,9)                  1.3997         estimate D2E/DX2                !
 ! R3    R(1,13)                 1.3978         estimate D2E/DX2                !
 ! R4    R(2,3)                  1.372          estimate D2E/DX2                !
 ! R5    R(2,14)                 1.0105         estimate D2E/DX2                !
 ! R6    R(3,4)                  1.205          estimate D2E/DX2                !
 ! R7    R(3,5)                  1.3399         estimate D2E/DX2                !
 ! R8    R(5,6)                  1.4389         estimate D2E/DX2                !
 ! R9    R(6,7)                  1.5126         estimate D2E/DX2                !
 ! R10   R(6,15)                 1.0926         estimate D2E/DX2                !
 ! R11   R(6,16)                 1.0926         estimate D2E/DX2                !
 ! R12   R(7,8)                  1.5254         estimate D2E/DX2                !
 ! R13   R(7,17)                 1.0935         estimate D2E/DX2                !
 ! R14   R(7,18)                 1.0935         estimate D2E/DX2                !
 ! R15   R(8,19)                 1.093          estimate D2E/DX2                !
 ! R16   R(8,20)                 1.0912         estimate D2E/DX2                !
 ! R17   R(8,21)                 1.093          estimate D2E/DX2                !
 ! R18   R(9,10)                 1.3867         estimate D2E/DX2                !
 ! R19   R(9,22)                 1.0789         estimate D2E/DX2                !
 ! R20   R(10,11)                1.3905         estimate D2E/DX2                !
 ! R21   R(10,25)                1.5037         estimate D2E/DX2                !
 ! R22   R(11,12)                1.385          estimate D2E/DX2                !
 ! R23   R(11,26)                1.0832         estimate D2E/DX2                !
 ! R24   R(12,13)                1.3853         estimate D2E/DX2                !
 ! R25   R(12,23)                1.7424         estimate D2E/DX2                !
 ! R26   R(13,24)                1.0844         estimate D2E/DX2                !
 ! R27   R(25,27)                1.3441         estimate D2E/DX2                !
 ! R28   R(25,28)                1.3442         estimate D2E/DX2                !
 ! R29   R(25,29)                1.3358         estimate D2E/DX2                !
 ! A1    A(2,1,9)              123.4155         estimate D2E/DX2                !
 ! A2    A(2,1,13)             116.9533         estimate D2E/DX2                !
 ! A3    A(9,1,13)             119.6312         estimate D2E/DX2                !
 ! A4    A(1,2,3)              127.6087         estimate D2E/DX2                !
 ! A5    A(1,2,14)             116.9971         estimate D2E/DX2                !
 ! A6    A(3,2,14)             115.3942         estimate D2E/DX2                !
 ! A7    A(2,3,4)              126.2765         estimate D2E/DX2                !
 ! A8    A(2,3,5)              108.9845         estimate D2E/DX2                !
 ! A9    A(4,3,5)              124.739          estimate D2E/DX2                !
 ! A10   A(3,5,6)              115.5948         estimate D2E/DX2                !
 ! A11   A(5,6,7)              107.7864         estimate D2E/DX2                !
 ! A12   A(5,6,15)             108.7536         estimate D2E/DX2                !
 ! A13   A(5,6,16)             108.7563         estimate D2E/DX2                !
 ! A14   A(7,6,15)             111.677          estimate D2E/DX2                !
 ! A15   A(7,6,16)             111.6764         estimate D2E/DX2                !
 ! A16   A(15,6,16)            108.1181         estimate D2E/DX2                !
 ! A17   A(6,7,8)              110.6948         estimate D2E/DX2                !
 ! A18   A(6,7,17)             109.102          estimate D2E/DX2                !
 ! A19   A(6,7,18)             109.103          estimate D2E/DX2                !
 ! A20   A(8,7,17)             110.3455         estimate D2E/DX2                !
 ! A21   A(8,7,18)             110.3448         estimate D2E/DX2                !
 ! A22   A(17,7,18)            107.1693         estimate D2E/DX2                !
 ! A23   A(7,8,19)             111.3344         estimate D2E/DX2                !
 ! A24   A(7,8,20)             110.9898         estimate D2E/DX2                !
 ! A25   A(7,8,21)             111.3335         estimate D2E/DX2                !
 ! A26   A(19,8,20)            107.6372         estimate D2E/DX2                !
 ! A27   A(19,8,21)            107.729          estimate D2E/DX2                !
 ! A28   A(20,8,21)            107.6374         estimate D2E/DX2                !
 ! A29   A(1,9,10)             118.6145         estimate D2E/DX2                !
 ! A30   A(1,9,22)             120.5687         estimate D2E/DX2                !
 ! A31   A(10,9,22)            120.8168         estimate D2E/DX2                !
 ! A32   A(9,10,11)            122.7531         estimate D2E/DX2                !
 ! A33   A(9,10,25)            119.9736         estimate D2E/DX2                !
 ! A34   A(11,10,25)           117.2732         estimate D2E/DX2                !
 ! A35   A(10,11,12)           117.4025         estimate D2E/DX2                !
 ! A36   A(10,11,26)           121.4792         estimate D2E/DX2                !
 ! A37   A(12,11,26)           121.1182         estimate D2E/DX2                !
 ! A38   A(11,12,13)           121.7716         estimate D2E/DX2                !
 ! A39   A(11,12,23)           119.3464         estimate D2E/DX2                !
 ! A40   A(13,12,23)           118.882          estimate D2E/DX2                !
 ! A41   A(1,13,12)            119.827          estimate D2E/DX2                !
 ! A42   A(1,13,24)            120.3509         estimate D2E/DX2                !
 ! A43   A(12,13,24)           119.8221         estimate D2E/DX2                !
 ! A44   A(10,25,27)           111.4992         estimate D2E/DX2                !
 ! A45   A(10,25,28)           111.4833         estimate D2E/DX2                !
 ! A46   A(10,25,29)           112.8961         estimate D2E/DX2                !
 ! A47   A(27,25,28)           106.2941         estimate D2E/DX2                !
 ! A48   A(27,25,29)           107.162          estimate D2E/DX2                !
 ! A49   A(28,25,29)           107.1429         estimate D2E/DX2                !
 ! D1    D(9,1,2,3)              0.1586         estimate D2E/DX2                !
 ! D2    D(9,1,2,14)          -179.9065         estimate D2E/DX2                !
 ! D3    D(13,1,2,3)          -179.8603         estimate D2E/DX2                !
 ! D4    D(13,1,2,14)            0.0745         estimate D2E/DX2                !
 ! D5    D(2,1,9,10)           179.9789         estimate D2E/DX2                !
 ! D6    D(2,1,9,22)            -0.0046         estimate D2E/DX2                !
 ! D7    D(13,1,9,10)           -0.0017         estimate D2E/DX2                !
 ! D8    D(13,1,9,22)         -179.9852         estimate D2E/DX2                !
 ! D9    D(2,1,13,12)         -179.9852         estimate D2E/DX2                !
 ! D10   D(2,1,13,24)            0.0128         estimate D2E/DX2                !
 ! D11   D(9,1,13,12)           -0.0034         estimate D2E/DX2                !
 ! D12   D(9,1,13,24)          179.9946         estimate D2E/DX2                !
 ! D13   D(1,2,3,4)             -0.0175         estimate D2E/DX2                !
 ! D14   D(1,2,3,5)            179.9819         estimate D2E/DX2                !
 ! D15   D(14,2,3,4)          -179.9532         estimate D2E/DX2                !
 ! D16   D(14,2,3,5)             0.0462         estimate D2E/DX2                !
 ! D17   D(2,3,5,6)           -179.978          estimate D2E/DX2                !
 ! D18   D(4,3,5,6)              0.0214         estimate D2E/DX2                !
 ! D19   D(3,5,6,7)           -179.9882         estimate D2E/DX2                !
 ! D20   D(3,5,6,15)            58.7744         estimate D2E/DX2                !
 ! D21   D(3,5,6,16)           -58.7499         estimate D2E/DX2                !
 ! D22   D(5,6,7,8)           -179.9795         estimate D2E/DX2                !
 ! D23   D(5,6,7,17)            58.4098         estimate D2E/DX2                !
 ! D24   D(5,6,7,18)           -58.369          estimate D2E/DX2                !
 ! D25   D(15,6,7,8)           -60.5833         estimate D2E/DX2                !
 ! D26   D(15,6,7,17)          177.806          estimate D2E/DX2                !
 ! D27   D(15,6,7,18)           61.0272         estimate D2E/DX2                !
 ! D28   D(16,6,7,8)            60.6213         estimate D2E/DX2                !
 ! D29   D(16,6,7,17)          -60.9894         estimate D2E/DX2                !
 ! D30   D(16,6,7,18)         -177.7682         estimate D2E/DX2                !
 ! D31   D(6,7,8,19)           -60.101          estimate D2E/DX2                !
 ! D32   D(6,7,8,20)          -179.985          estimate D2E/DX2                !
 ! D33   D(6,7,8,21)            60.1314         estimate D2E/DX2                !
 ! D34   D(17,7,8,19)           60.7748         estimate D2E/DX2                !
 ! D35   D(17,7,8,20)          -59.1092         estimate D2E/DX2                !
 ! D36   D(17,7,8,21)         -178.9928         estimate D2E/DX2                !
 ! D37   D(18,7,8,19)          179.0224         estimate D2E/DX2                !
 ! D38   D(18,7,8,20)           59.1384         estimate D2E/DX2                !
 ! D39   D(18,7,8,21)          -60.7452         estimate D2E/DX2                !
 ! D40   D(1,9,10,11)            0.0071         estimate D2E/DX2                !
 ! D41   D(1,9,10,25)          179.8763         estimate D2E/DX2                !
 ! D42   D(22,9,10,11)         179.9906         estimate D2E/DX2                !
 ! D43   D(22,9,10,25)          -0.1402         estimate D2E/DX2                !
 ! D44   D(9,10,11,12)          -0.0072         estimate D2E/DX2                !
 ! D45   D(9,10,11,26)        -179.992          estimate D2E/DX2                !
 ! D46   D(25,10,11,12)       -179.8797         estimate D2E/DX2                !
 ! D47   D(25,10,11,26)          0.1355         estimate D2E/DX2                !
 ! D48   D(9,10,25,27)         121.6222         estimate D2E/DX2                !
 ! D49   D(9,10,25,28)        -119.7518         estimate D2E/DX2                !
 ! D50   D(9,10,25,29)           0.917          estimate D2E/DX2                !
 ! D51   D(11,10,25,27)        -58.5016         estimate D2E/DX2                !
 ! D52   D(11,10,25,28)         60.1244         estimate D2E/DX2                !
 ! D53   D(11,10,25,29)       -179.2068         estimate D2E/DX2                !
 ! D54   D(10,11,12,13)          0.0019         estimate D2E/DX2                !
 ! D55   D(10,11,12,23)       -179.9883         estimate D2E/DX2                !
 ! D56   D(26,11,12,13)        179.9867         estimate D2E/DX2                !
 ! D57   D(26,11,12,23)         -0.0034         estimate D2E/DX2                !
 ! D58   D(11,12,13,1)           0.0033         estimate D2E/DX2                !
 ! D59   D(11,12,13,24)       -179.9947         estimate D2E/DX2                !
 ! D60   D(23,12,13,1)         179.9935         estimate D2E/DX2                !
 ! D61   D(23,12,13,24)         -0.0045         estimate D2E/DX2                !
 --------------------------------------------------------------------------------
 Trust Radius=3.00D-01 FncErr=1.00D-07 GrdErr=1.00D-06
 Number of steps in this run=    149 maximum allowed number of steps=    174.
 GradGradGradGradGradGradGradGradGradGradGradGradGradGradGradGradGradGrad

                          Input orientation:                          
 ---------------------------------------------------------------------
 Center     Atomic      Atomic             Coordinates (Angstroms)
 Number     Number       Type             X           Y           Z
 ---------------------------------------------------------------------
      1          6           0       -5.954724    1.284009    0.192734
      2          7           0       -4.675632    0.729278    0.097295
      3          6           0       -3.473934    1.391266    0.095249
      4          8           0       -3.316370    2.583201    0.176524
      5          8           0       -2.483119    0.495712   -0.012779
      6          6           0       -1.151536    1.040773   -0.028451
      7          6           0       -0.181498   -0.112898   -0.155018
      8          6           0        1.257452    0.392734   -0.177633
      9          6           0       -6.192409    2.659070    0.301419
     10          6           0       -7.503735    3.101443    0.389780
     11          6           0       -8.592180    2.236213    0.375070
     12          6           0       -8.327784    0.881058    0.266650
     13          6           0       -7.033599    0.395378    0.175825
     14          1           0       -4.616385   -0.276648    0.021310
     15          1           0       -0.991365    1.603352    0.894415
     16          1           0       -1.065651    1.734271   -0.868396
     17          1           0       -0.403680   -0.668487   -1.070292
     18          1           0       -0.330206   -0.799116    0.683290
     19          1           0        1.428682    1.067394   -1.020400
     20          1           0        1.961508   -0.435868   -0.269114
     21          1           0        1.502509    0.935918    0.738683
     22          1           0       -5.371042    3.358418    0.315685
     23         17           0       -9.654165   -0.248519    0.243031
     24          1           0       -6.862881   -0.672215    0.091952
     25          6           0       -7.794009    4.571945    0.510392
     26          1           0       -9.608435    2.604429    0.445232
     27          9           0       -8.576986    5.003415   -0.493239
     28          9           0       -8.451477    4.852198    1.648867
     29          9           0       -6.689059    5.322446    0.498869
 ---------------------------------------------------------------------
                    Distance matrix (angstroms):
                    1          2          3          4          5
     1  C    0.000000
     2  N    1.397466   0.000000
     3  C    2.485020   1.371973   0.000000
     4  O    2.940931   2.300196   1.205049   0.000000
     5  O    3.565906   2.207664   1.339926   2.255605   0.000000
     6  C    4.814427   3.540070   2.351953   2.666010   1.438907
     7  C    5.949993   4.579319   3.628399   4.148047   2.384973
     8  C    7.276471   5.948978   4.843299   5.083643   3.745619
     9  C    1.399678   2.463001   3.006649   2.879749   4.305539
    10  C    2.396106   3.702820   4.387567   4.224698   5.670843
    11  C    2.810002   4.205634   5.195063   5.290935   6.363992
    12  C    2.408162   3.659225   4.883600   5.293362   5.864015
    13  C    1.397828   2.382785   3.697229   4.313278   4.555492
    14  H    2.063053   1.010530   2.023016   3.145292   2.269036
    15  H    5.022875   3.869526   2.616638   2.623189   2.067655
    16  H    5.023124   3.869694   2.616504   2.622647   2.067686
    17  H    6.018436   4.643984   3.876536   4.540021   2.607252
    18  H    6.017911   4.643501   3.876414   4.540270   2.606938
    19  H    7.485540   6.214999   5.038374   5.123067   4.079744
    20  H    8.114063   6.748589   5.745887   6.096669   4.548436
    21  H    7.485289   6.214781   5.038485   5.123589   4.079670
    22  H    2.158465   2.728308   2.741769   2.200456   4.079592
    23  Cl   4.004627   5.075738   6.395779   6.941953   7.214098
    24  H    2.159102   2.597743   3.967735   4.814834   4.534020
    25  C    3.780793   4.965985   5.380717   4.910786   6.715276
    26  H    3.893182   5.288648   6.263095   6.297836   7.444904
    27  F    4.602260   5.817004   6.279735   5.829245   7.595093
    28  F    4.591957   5.801969   6.258412   5.803918   7.573726
    29  F    4.116059   5.031137   5.094518   4.356879   6.422544
                    6          7          8          9         10
     6  C    0.000000
     7  C    1.512596   0.000000
     8  C    2.499086   1.525370   0.000000
     9  C    5.304537   6.634998   7.801680   0.000000
    10  C    6.691167   8.015232   9.187897   1.386750   0.000000
    11  C    7.546860   8.748650  10.035893   2.437854   1.390522
    12  C    7.184089   8.217525   9.607945   2.778914   2.371566
    13  C    5.920890   6.878887   8.298583   2.418197   2.754922
    14  H    3.707189   4.441410   5.915202   3.343763   4.459154
    15  H    1.092626   2.168573   2.769849   5.340135   6.701484
    16  H    1.092622   2.168563   2.770141   5.339230   6.700827
    17  H    2.136887   1.093512   2.163883   6.816423   8.170371
    18  H    2.136901   1.093513   2.163875   6.816913   8.170680
    19  H    2.764452   2.175926   1.093042   7.896940   9.268982
    20  H    3.453901   2.170209   1.091167   8.740167  10.126082
    21  H    2.764677   2.175913   1.093040   7.897608   9.269501
    22  H    4.826401   6.261227   7.278433   1.078858   2.149396
    23  Cl   8.604109   9.481996  10.938535   4.521199   3.983483
    24  H    5.963916   6.709300   8.194303   3.404537   3.839257
    25  C    7.542015   8.963305   9.993404   2.503574   1.503723
    26  H    8.613278   9.829105  11.106173   3.419489   2.163299
    27  F    8.429465   9.837442  10.866193   3.437097   2.355650
    28  F    8.404136   9.813192  10.839107   3.424736   2.355559
    29  F    7.019612   8.504051   9.375860   2.716472   2.368217
                   11         12         13         14         15
    11  C    0.000000
    12  C    1.384957   0.000000
    13  C    2.420237   1.385297   0.000000
    14  H    4.716626   3.895505   2.513646   0.000000
    15  H    7.644777   7.398570   6.203561   4.175821   0.000000
    16  H    7.645050   7.399654   6.204792   4.176492   1.769226
    17  H    8.807831   8.184127   6.829381   4.369441   3.060506
    18  H    8.807294   8.182776   6.827870   4.368354   2.500711
    19  H   10.184849   9.842756   8.572792   6.279685   3.132155
    20  H   10.905748  10.387053   9.044385   6.586226   3.772490
    21  H   10.184583   9.841772   8.571706   6.278997   2.586335
    22  H    3.411539   3.857724   3.400480   3.724227   4.753604
    23  Cl   2.705391   1.742352   2.699349   5.042735   8.882445
    24  H    3.395525   2.142223   1.084405   2.282150   6.347980
    25  C    2.472050   3.737241   4.258388   5.817675   7.432091
    26  H    1.083181   2.154522   3.403273   5.779349   8.686646
    27  F    2.900275   4.199209   4.905476   6.620437   8.427790
    28  F    2.913028   4.206635   4.903415   6.607718   8.171748
    29  F    3.627951   4.739754   4.949653   5.989482   6.815558
                   16         17         18         19         20
    16  H    0.000000
    17  H    2.500442   0.000000
    18  H    3.060500   1.759975   0.000000
    19  H    2.586412   2.524543   3.078978   0.000000
    20  H    3.772577   2.508010   2.508182   1.762990   0.000000
    21  H    3.132972   3.078971   2.524333   1.765533   1.762990
    22  H    4.751452   6.543056   6.544482   7.298641   8.276769
    23  Cl   8.884216   9.352682   9.350572  11.231980  11.628468
    24  H    6.349907   6.562934   6.560611   8.544798   8.834935
    25  C    7.431302   9.196611   9.197094   9.984149  10.993450
    26  H    8.686884   9.886168   9.885662  11.239596  11.984043
    27  F    8.200500   9.965259  10.151993  10.764922  11.861530
    28  F    8.402887  10.131082   9.941062  10.911795  11.835226
    29  F    6.809342   8.823805   8.828507   9.290391  10.420187
                   21         22         23         24         25
    21  H    0.000000
    22  H    7.300215   0.000000
    23  Cl  11.230313   5.600037   0.000000
    24  H    8.543073   4.303678   2.827297   0.000000
    25  C    9.984891   2.716860   5.173832   5.342594   0.000000
    26  H   11.239356   4.305901   2.860470   4.289438   2.677220
    27  F   10.938847   3.693027   5.411582   5.957632   1.344059
    28  F   10.735340   3.673940   5.425878   5.955398   1.344222
    29  F    9.295210   2.372368   6.316088   6.010970   1.335777
                   26         27         28         29
    26  H    0.000000
    27  F    2.774842   0.000000
    28  F    2.799956   2.151102   0.000000
    29  F    3.989142   2.156462   2.156327   0.000000
 Stoichiometry    C11H11ClF3NO2
 Framework group  C1[X(C11H11ClF3NO2)]
 Deg. of freedom    81
 Full point group                 C1      NOp   1
 Largest Abelian subgroup         C1      NOp   1
 Largest concise Abelian subgroup C1      NOp   1
                         Standard orientation:                         
 ---------------------------------------------------------------------
 Center     Atomic      Atomic             Coordinates (Angstroms)
 Number     Number       Type             X           Y           Z
 ---------------------------------------------------------------------
      1          6           0        0.139136    0.708275   -0.001366
      2          7           0       -1.244711    0.902904   -0.001911
      3          6           0       -2.225191   -0.056766   -0.000340
      4          8           0       -2.055209   -1.249764    0.001515
      5          8           0       -3.422977    0.543824   -0.001182
      6          6           0       -4.560317   -0.337598    0.000778
      7          6           0       -5.807808    0.517802   -0.000833
      8          6           0       -7.059347   -0.354205    0.001632
      9          6           0        0.739721   -0.556002   -0.002261
     10          6           0        2.124302   -0.633530   -0.002052
     11          6           0        2.940804    0.492025   -0.000846
     12          6           0        2.319823    1.729962    0.000018
     13          6           0        0.940080    1.853880   -0.000257
     14          1           0       -1.573562    1.858429   -0.002638
     15          1           0       -4.509200   -0.975043    0.886714
     16          1           0       -4.509455   -0.978726   -0.882508
     17          1           0       -5.796944    1.164772   -0.882355
     18          1           0       -5.796388    1.168930    0.877615
     19          1           0       -7.095777   -1.000024   -0.879465
     20          1           0       -7.962437    0.258228    0.000214
     21          1           0       -7.095454   -0.995466    0.886063
     22          1           0        0.136094   -1.450188   -0.003362
     23         17           0        3.294489    3.174197    0.001233
     24          1           0        0.487114    2.839150    0.000355
     25          6           0        2.801565   -1.976100   -0.000182
     26          1           0        4.020678    0.407441   -0.000835
     27          9           0        3.608910   -2.122024   -1.064792
     28          9           0        3.577404   -2.134597    1.086042
     29          9           0        1.937116   -2.994280   -0.018560
 ---------------------------------------------------------------------
 Rotational constants (GHZ):      0.5305674      0.1581115      0.1247374
 Standard basis: 6-311+G(d) (5D, 7F)
 There are   455 symmetry adapted cartesian basis functions of A   symmetry.
 There are   437 symmetry adapted basis functions of A   symmetry.
   437 basis functions,   720 primitive gaussians,   455 cartesian basis functions
    72 alpha electrons       72 beta electrons
       nuclear repulsion energy      1424.3763200786 Hartrees.
 NAtoms=   29 NActive=   29 NUniq=   29 SFac= 1.00D+00 NAtFMM=   60 NAOKFM=F Big=F
 Integral buffers will be    131072 words long.
 Raffenetti 2 integral format.
 Two-electron integral symmetry is turned on.
 Nuclear repulsion after empirical dispersion term =     1424.3750129444 Hartrees.
 ------------------------------------------------------------------------------
 Polarizable Continuum Model (PCM)
 =================================
 Model                : PCM (using non-symmetric T matrix).
 Atomic radii         : SMD-Coulomb.
 Polarization charges : Total charges.
 Charge compensation  : None.
 Solution method      : On-the-fly selection.
 Cavity type          : VdW (van der Waals Surface) (Alpha=1.000).
 Cavity algorithm     : GePol (No added spheres)
                        Default sphere list used, NSphG=   29.
                        Lebedev-Laikov grids with approx.  5.0 points / Ang**2.
                        Smoothing algorithm: York/Karplus (Gamma=1.0000).
                        Polarization charges: spherical gaussians, with
                                              point-specific exponents (IZeta= 3).
                        Self-potential: point-specific (ISelfS= 7).
                        Self-field    : sphere-specific E.n sum rule (ISelfD= 2).
 1st derivatives      : Analytical E(r).r(x)/FMM algorithm (CHGder, D1EAlg=3).
                        Cavity 1st derivative terms included.
 Solvent              : n-Pentadecane, Eps=   2.033300 Eps(inf)=   2.049192
 ------------------------------------------------------------------------------
 ------------------------------------------------------------------------------
 Atomic radii for non-electrostatic terms: SMD-CDS.
 ------------------------------------------------------------------------------
 Nuclear repulsion after PCM non-electrostatic terms =     1424.3696612122 Hartrees.
 One-electron integrals computed using PRISM.
 NBasis=   437 RedAO= T EigKep=  1.27D-06  NBF=   437
 NBsUse=   435 1.00D-06 EigRej=  8.38D-07 NBFU=   435
 ExpMin= 4.38D-02 ExpMax= 1.06D+05 ExpMxC= 3.62D+03 IAcc=3 IRadAn=         5 AccDes= 0.00D+00
 Harris functional with IExCor= 1009 and IRadAn=       5 diagonalized for initial guess.
 HarFok:  IExCor= 1009 AccDes= 0.00D+00 IRadAn=         5 IDoV= 1 UseB2=F ITyADJ=14
 ICtDFT=  3500011 ScaDFX=  1.000000  1.000000  1.000000  1.000000
 FoFCou: FMM=F IPFlag=           0 FMFlag=      100000 FMFlg1=           0
         NFxFlg=           0 DoJE=T BraDBF=F KetDBF=T FulRan=T
         wScrn=  0.000000 ICntrl=     500 IOpCl=  0 I1Cent=   200000004 NGrid=           0
         NMat0=    1 NMatS0=      1 NMatT0=    0 NMatD0=    1 NMtDS0=    0 NMtDT0=    0
 Petite list used in FoFCou.
 Requested convergence on RMS density matrix=1.00D-08 within 128 cycles.
 Requested convergence on MAX density matrix=1.00D-06.
 Requested convergence on             energy=1.00D-06.
 No special actions if energy rises.
 Inv3:  Mode=1 IEnd=    17846163.
 Iteration    1 A*A^-1 deviation from unit magnitude is 4.44D-15 for   2438.
 Iteration    1 A*A^-1 deviation from orthogonality  is 1.90D-15 for   1860    163.
 Iteration    1 A^-1*A deviation from unit magnitude is 4.44D-15 for   2438.
 Iteration    1 A^-1*A deviation from orthogonality  is 3.65D-15 for   1379   1336.
 Error on total polarization charges =  0.01719
 SCF Done:  E(RM062X) =  -1390.68645037     A.U. after   15 cycles
            NFock= 15  Conv=0.54D-08     -V/T= 2.0028
 SMD-CDS (non-electrostatic) energy       (kcal/mol) =      -3.36
 (included in total energy above)

 **********************************************************************

            Population analysis using the SCF density.

 **********************************************************************

 Orbital symmetries:
       Occupied  (A) (A) (A) (A) (A) (A) (A) (A) (A) (A) (A) (A)
                 (A) (A) (A) (A) (A) (A) (A) (A) (A) (A) (A) (A)
                 (A) (A) (A) (A) (A) (A) (A) (A) (A) (A) (A) (A)
                 (A) (A) (A) (A) (A) (A) (A) (A) (A) (A) (A) (A)
                 (A) (A) (A) (A) (A) (A) (A) (A) (A) (A) (A) (A)
                 (A) (A) (A) (A) (A) (A) (A) (A) (A) (A) (A) (A)
       Virtual   (A) (A) (A) (A) (A) (A) (A) (A) (A) (A) (A) (A)
                 (A) (A) (A) (A) (A) (A) (A) (A) (A) (A) (A) (A)
                 (A) (A) (A) (A) (A) (A) (A) (A) (A) (A) (A) (A)
                 (A) (A) (A) (A) (A) (A) (A) (A) (A) (A) (A) (A)
                 (A) (A) (A) (A) (A) (A) (A) (A) (A) (A) (A) (A)
                 (A) (A) (A) (A) (A) (A) (A) (A) (A) (A) (A) (A)
                 (A) (A) (A) (A) (A) (A) (A) (A) (A) (A) (A) (A)
                 (A) (A) (A) (A) (A) (A) (A) (A) (A) (A) (A) (A)
                 (A) (A) (A) (A) (A) (A) (A) (A) (A) (A) (A) (A)
                 (A) (A) (A) (A) (A) (A) (A) (A) (A) (A) (A) (A)
                 (A) (A) (A) (A) (A) (A) (A) (A) (A) (A) (A) (A)
                 (A) (A) (A) (A) (A) (A) (A) (A) (A) (A) (A) (A)
                 (A) (A) (A) (A) (A) (A) (A) (A) (A) (A) (A) (A)
                 (A) (A) (A) (A) (A) (A) (A) (A) (A) (A) (A) (A)
                 (A) (A) (A) (A) (A) (A) (A) (A) (A) (A) (A) (A)
                 (A) (A) (A) (A) (A) (A) (A) (A) (A) (A) (A) (A)
                 (A) (A) (A) (A) (A) (A) (A) (A) (A) (A) (A) (A)
                 (A) (A) (A) (A) (A) (A) (A) (A) (A) (A) (A) (A)
                 (A) (A) (A) (A) (A) (A) (A) (A) (A) (A) (A) (A)
                 (A) (A) (A) (A) (A) (A) (A) (A) (A) (A) (A) (A)
                 (A) (A) (A) (A) (A) (A) (A) (A) (A) (A) (A) (A)
                 (A) (A) (A) (A) (A) (A) (A) (A) (A) (A) (A) (A)
                 (A) (A) (A) (A) (A) (A) (A) (A) (A) (A) (A) (A)
                 (A) (A) (A) (A) (A) (A) (A) (A) (A) (A) (A) (A)
                 (A) (A) (A) (A) (A) (A) (A) (A) (A) (A) (A) (A)
                 (A) (A) (A) (A) (A) (A) (A) (A) (A) (A) (A) (A)
                 (A) (A) (A) (A) (A) (A) (A) (A) (A) (A) (A) (A)
                 (A) (A) (A) (A) (A) (A) (A) (A) (A) (A) (A) (A)
                 (A) (A) (A) (A) (A) (A) (A) (A) (A) (A) (A) (A)
                 (A) (A) (A) (A) (A) (A) (A) (A) (A) (A) (A) (A)
                 (A) (A) (A)
 The electronic state is 1-A.
 Alpha  occ. eigenvalues -- -102.68943 -25.28348 -25.27946 -25.27930 -19.67817
 Alpha  occ. eigenvalues --  -19.61889 -14.80694 -10.80778 -10.71496 -10.62863
 Alpha  occ. eigenvalues --  -10.62556 -10.59870 -10.58904 -10.57588 -10.57277
 Alpha  occ. eigenvalues --  -10.56814 -10.54139 -10.53032  -9.83210  -7.55724
 Alpha  occ. eigenvalues --   -7.55047  -7.55035  -1.47547  -1.38256  -1.37760
 Alpha  occ. eigenvalues --   -1.25949  -1.16010  -1.08386  -1.01732  -0.96373
 Alpha  occ. eigenvalues --   -0.91207  -0.89214  -0.85609  -0.82254  -0.80426
 Alpha  occ. eigenvalues --   -0.74651  -0.74308  -0.70327  -0.69830  -0.68589
 Alpha  occ. eigenvalues --   -0.67678  -0.66933  -0.63982  -0.60381  -0.59755
 Alpha  occ. eigenvalues --   -0.59648  -0.58196  -0.57973  -0.56431  -0.55021
 Alpha  occ. eigenvalues --   -0.54293  -0.53732  -0.53510  -0.51915  -0.51719
 Alpha  occ. eigenvalues --   -0.51363  -0.50020  -0.49819  -0.47518  -0.46727
 Alpha  occ. eigenvalues --   -0.45827  -0.44632  -0.43720  -0.43492  -0.41063
 Alpha  occ. eigenvalues --   -0.40907  -0.39421  -0.39366  -0.38507  -0.37652
 Alpha  occ. eigenvalues --   -0.32696  -0.29757
 Alpha virt. eigenvalues --   -0.01751  -0.00348   0.00289   0.01862   0.02303
 Alpha virt. eigenvalues --    0.02929   0.03332   0.03425   0.03965   0.04805
 Alpha virt. eigenvalues --    0.04897   0.05243   0.05916   0.06588   0.06866
 Alpha virt. eigenvalues --    0.07094   0.07172   0.07900   0.07976   0.08486
 Alpha virt. eigenvalues --    0.09172   0.09528   0.09740   0.10150   0.11417
 Alpha virt. eigenvalues --    0.11983   0.12010   0.12286   0.12966   0.13362
 Alpha virt. eigenvalues --    0.13471   0.13962   0.14163   0.14953   0.16078
 Alpha virt. eigenvalues --    0.16356   0.17264   0.17370   0.17533   0.18114
 Alpha virt. eigenvalues --    0.18344   0.19497   0.19872   0.20046   0.20437
 Alpha virt. eigenvalues --    0.20547   0.21137   0.21221   0.21935   0.22428
 Alpha virt. eigenvalues --    0.22676   0.23025   0.23698   0.23723   0.24211
 Alpha virt. eigenvalues --    0.24683   0.24827   0.25453   0.25575   0.26296
 Alpha virt. eigenvalues --    0.26572   0.26684   0.27207   0.27902   0.28128
 Alpha virt. eigenvalues --    0.28642   0.29004   0.29381   0.29984   0.30483
 Alpha virt. eigenvalues --    0.30522   0.30629   0.31418   0.31733   0.32591
 Alpha virt. eigenvalues --    0.33429   0.33732   0.34255   0.34964   0.35378
 Alpha virt. eigenvalues --    0.36188   0.36621   0.36771   0.38099   0.38335
 Alpha virt. eigenvalues --    0.39052   0.39473   0.40430   0.40544   0.41766
 Alpha virt. eigenvalues --    0.42688   0.43044   0.43391   0.44251   0.45148
 Alpha virt. eigenvalues --    0.45236   0.46413   0.47661   0.48182   0.48293
 Alpha virt. eigenvalues --    0.48644   0.49101   0.50359   0.51327   0.51785
 Alpha virt. eigenvalues --    0.52251   0.54725   0.55751   0.55817   0.57770
 Alpha virt. eigenvalues --    0.58286   0.59757   0.59989   0.61146   0.62229
 Alpha virt. eigenvalues --    0.62485   0.63232   0.63493   0.64601   0.64841
 Alpha virt. eigenvalues --    0.65835   0.67740   0.68025   0.69160   0.69400
 Alpha virt. eigenvalues --    0.69596   0.70101   0.70284   0.72372   0.72535
 Alpha virt. eigenvalues --    0.72584   0.73145   0.74091   0.75052   0.75088
 Alpha virt. eigenvalues --    0.76632   0.77318   0.77930   0.78519   0.79833
 Alpha virt. eigenvalues --    0.80980   0.81469   0.84000   0.85667   0.88123
 Alpha virt. eigenvalues --    0.89313   0.89751   0.90883   0.91570   0.92023
 Alpha virt. eigenvalues --    0.93005   0.93698   0.94132   0.97855   0.98388
 Alpha virt. eigenvalues --    0.98837   0.99244   1.00785   1.03438   1.03774
 Alpha virt. eigenvalues --    1.04299   1.04835   1.06054   1.08894   1.10633
 Alpha virt. eigenvalues --    1.10790   1.11736   1.11764   1.14678   1.15319
 Alpha virt. eigenvalues --    1.19448   1.19730   1.20696   1.21896   1.23015
 Alpha virt. eigenvalues --    1.23463   1.24850   1.27046   1.29788   1.30528
 Alpha virt. eigenvalues --    1.31157   1.33596   1.36428   1.37965   1.38843
 Alpha virt. eigenvalues --    1.40975   1.43726   1.44296   1.46278   1.46498
 Alpha virt. eigenvalues --    1.47471   1.49762   1.49851   1.50879   1.51429
 Alpha virt. eigenvalues --    1.53340   1.53477   1.55764   1.57467   1.58274
 Alpha virt. eigenvalues --    1.58909   1.59346   1.60460   1.61084   1.62836
 Alpha virt. eigenvalues --    1.63047   1.63655   1.64517   1.67956   1.71562
 Alpha virt. eigenvalues --    1.73295   1.73906   1.76911   1.78573   1.78779
 Alpha virt. eigenvalues --    1.79676   1.80148   1.82579   1.84160   1.86021
 Alpha virt. eigenvalues --    1.86043   1.86810   1.89362   1.89570   1.89625
 Alpha virt. eigenvalues --    1.94574   1.95691   1.97820   1.97951   1.99314
 Alpha virt. eigenvalues --    2.03550   2.06289   2.07211   2.08967   2.09991
 Alpha virt. eigenvalues --    2.12183   2.16833   2.18688   2.18952   2.22353
 Alpha virt. eigenvalues --    2.24755   2.29956   2.32147   2.33128   2.35926
 Alpha virt. eigenvalues --    2.36450   2.43136   2.43156   2.46778   2.50536
 Alpha virt. eigenvalues --    2.51917   2.54368   2.54963   2.56330   2.59959
 Alpha virt. eigenvalues --    2.60430   2.61302   2.65191   2.65765   2.69959
 Alpha virt. eigenvalues --    2.70233   2.73523   2.74934   2.80968   2.81675
 Alpha virt. eigenvalues --    2.82400   2.85359   2.90887   2.92904   2.94066
 Alpha virt. eigenvalues --    2.96226   3.01284   3.01646   3.02292   3.04375
 Alpha virt. eigenvalues --    3.04746   3.06933   3.10599   3.11128   3.12174
 Alpha virt. eigenvalues --    3.18243   3.18915   3.21271   3.23727   3.25851
 Alpha virt. eigenvalues --    3.29230   3.29484   3.29901   3.34039   3.36346
 Alpha virt. eigenvalues --    3.39434   3.41216   3.44472   3.46178   3.51489
 Alpha virt. eigenvalues --    3.55789   3.66527   3.71333   3.73518   3.76400
 Alpha virt. eigenvalues --    3.80142   3.82028   3.83883   3.84176   3.86412
 Alpha virt. eigenvalues --    3.86872   3.88202   3.90987   3.96660   3.97275
 Alpha virt. eigenvalues --    4.00471   4.00764   4.02814   4.07929   4.10465
 Alpha virt. eigenvalues --    4.11167   4.18713   4.22821   4.27607   4.31366
 Alpha virt. eigenvalues --    4.56233   4.76396   4.79532   4.97653   5.02023
 Alpha virt. eigenvalues --    5.08683   5.10213   5.16054   5.37441   5.50277
 Alpha virt. eigenvalues --    5.80562   5.96381   6.44770   6.48341   6.49664
 Alpha virt. eigenvalues --    6.52660   6.53631   6.57880   6.62851   6.86584
 Alpha virt. eigenvalues --    6.92056   9.96766  23.44872  23.57233  23.65194
 Alpha virt. eigenvalues --   23.72165  23.81766  23.91848  23.92859  23.96587
 Alpha virt. eigenvalues --   24.09017  24.11100  24.19709  25.92997  26.22473
 Alpha virt. eigenvalues --   26.73829  35.65830  50.01930  50.13795  66.88094
 Alpha virt. eigenvalues --   66.91441  66.96948 216.06962
          Condensed to atoms (all electrons):
               1          2          3          4          5          6
     1  C   25.016621  -0.531034  -0.831636  -0.212899  -0.266338  -0.508511
     2  N   -0.531034   7.656925   0.203899  -0.007668  -0.224480  -0.270117
     3  C   -0.831636   0.203899   8.088524   0.492085   0.320079  -0.526333
     4  O   -0.212899  -0.007668   0.492085   8.065533  -0.193772  -0.176197
     5  O   -0.266338  -0.224480   0.320079  -0.193772   8.339855   0.309917
     6  C   -0.508511  -0.270117  -0.526333  -0.176197   0.309917   7.975031
     7  C   -0.044859   0.028132   0.070241   0.028591  -0.167598  -0.880795
     8  C   -0.009957  -0.004285  -0.216843   0.001390   0.030751   0.280446
     9  C   -2.005965   0.267701  -0.418304   0.344509  -0.050669  -0.242837
    10  C   -4.785623   0.216360  -0.227506   0.060993   0.017557  -0.025778
    11  C   -7.682497   0.079533  -0.093169  -0.037240  -0.007480  -0.008311
    12  C    2.066631  -0.022119  -0.904039   0.011751   0.007803  -0.097338
    13  C   -0.862738  -0.171664  -0.048587  -0.080958   0.006274  -0.050582
    14  H   -0.015153   0.263497  -0.000827   0.000697   0.020482  -0.006893
    15  H    0.006114   0.005017   0.039019  -0.002010  -0.043299   0.354825
    16  H    0.005987   0.005008   0.039054  -0.002024  -0.043269   0.354695
    17  H   -0.000137  -0.000715   0.006646  -0.000311   0.001054  -0.064658
    18  H   -0.000155  -0.000726   0.006660  -0.000313   0.001063  -0.064875
    19  H   -0.000130  -0.000037  -0.001400  -0.000079  -0.000399  -0.048911
    20  H    0.000110   0.000035   0.007332   0.000032  -0.000654   0.091504
    21  H   -0.000127  -0.000037  -0.001372  -0.000079  -0.000402  -0.048832
    22  H    0.092461  -0.026681   0.074165   0.007846   0.002500   0.006708
    23  Cl   0.323120  -0.014047  -0.052386   0.000247  -0.000021  -0.002326
    24  H    0.035215  -0.018452  -0.013346   0.000183  -0.000830  -0.001287
    25  C   -2.611051   0.053437  -0.063857   0.009000   0.005275  -0.012884
    26  H    0.036889   0.000680   0.002976  -0.000004   0.000002   0.000032
    27  F    0.025948   0.000417  -0.000387   0.000031  -0.000001  -0.000019
    28  F    0.024352   0.000436  -0.000435   0.000033  -0.000001  -0.000021
    29  F    0.208138  -0.000854   0.010488   0.000122  -0.000011   0.000309
               7          8          9         10         11         12
     1  C   -0.044859  -0.009957  -2.005965  -4.785623  -7.682497   2.066631
     2  N    0.028132  -0.004285   0.267701   0.216360   0.079533  -0.022119
     3  C    0.070241  -0.216843  -0.418304  -0.227506  -0.093169  -0.904039
     4  O    0.028591   0.001390   0.344509   0.060993  -0.037240   0.011751
     5  O   -0.167598   0.030751  -0.050669   0.017557  -0.007480   0.007803
     6  C   -0.880795   0.280446  -0.242837  -0.025778  -0.008311  -0.097338
     7  C    6.508527  -0.128270  -0.004751  -0.007005   0.002689  -0.003489
     8  C   -0.128270   6.073247  -0.011486  -0.000743   0.000007  -0.000778
     9  C   -0.004751  -0.011486  14.373864   4.187703  -5.010583  -0.085871
    10  C   -0.007005  -0.000743   4.187703  22.561492 -10.878115   4.892191
    11  C    0.002689   0.000007  -5.010583 -10.878115  34.665887 -14.463201
    12  C   -0.003489  -0.000778  -0.085871   4.892191 -14.463201  23.113200
    13  C    0.016222  -0.000191  -4.226916  -4.339122   4.206929  -3.402620
    14  H   -0.001628  -0.000554   0.033121   0.020915  -0.022177   0.020690
    15  H   -0.023707  -0.014323  -0.000727  -0.000013   0.000132   0.000014
    16  H   -0.023477  -0.014406  -0.000728   0.000012   0.000140   0.000005
    17  H    0.443191  -0.044897   0.000352   0.000016   0.000003   0.000003
    18  H    0.443535  -0.045019   0.000337   0.000015   0.000003   0.000003
    19  H    0.014168   0.380816   0.000019  -0.000001   0.000000  -0.000001
    20  H   -0.136994   0.390215   0.000037   0.000001  -0.000000   0.000000
    21  H    0.013955   0.380932   0.000019  -0.000001   0.000000  -0.000001
    22  H   -0.000482   0.000033   0.240902  -0.146477   0.021605  -0.023545
    23  Cl  -0.000055  -0.000005   0.186830   0.231427  -0.612904  -0.647414
    24  H    0.000045  -0.000002  -0.057136   0.033664  -0.029122   0.096997
    25  C   -0.000892  -0.000208  -1.588087  -5.275845   5.687782  -4.986179
    26  H   -0.000000   0.000000  -0.007606   0.058450   0.077480   0.131054
    27  F    0.000000  -0.000000   0.051871   0.212369  -0.330866   0.067386
    28  F    0.000000  -0.000000   0.048564   0.224776  -0.331350   0.060787
    29  F    0.000016   0.000000   0.024961  -0.241136   0.057388   0.049204
              13         14         15         16         17         18
     1  C   -0.862738  -0.015153   0.006114   0.005987  -0.000137  -0.000155
     2  N   -0.171664   0.263497   0.005017   0.005008  -0.000715  -0.000726
     3  C   -0.048587  -0.000827   0.039019   0.039054   0.006646   0.006660
     4  O   -0.080958   0.000697  -0.002010  -0.002024  -0.000311  -0.000313
     5  O    0.006274   0.020482  -0.043299  -0.043269   0.001054   0.001063
     6  C   -0.050582  -0.006893   0.354825   0.354695  -0.064658  -0.064875
     7  C    0.016222  -0.001628  -0.023707  -0.023477   0.443191   0.443535
     8  C   -0.000191  -0.000554  -0.014323  -0.014406  -0.044897  -0.045019
     9  C   -4.226916   0.033121  -0.000727  -0.000728   0.000352   0.000337
    10  C   -4.339122   0.020915  -0.000013   0.000012   0.000016   0.000015
    11  C    4.206929  -0.022177   0.000132   0.000140   0.000003   0.000003
    12  C   -3.402620   0.020690   0.000014   0.000005   0.000003   0.000003
    13  C   14.197298  -0.046624   0.000708   0.000734   0.000034   0.000049
    14  H   -0.046624   0.294106  -0.000011  -0.000010  -0.000002  -0.000002
    15  H    0.000708  -0.000011   0.441872  -0.039675   0.005297  -0.007717
    16  H    0.000734  -0.000010  -0.039675   0.441884  -0.007729   0.005297
    17  H    0.000034  -0.000002   0.005297  -0.007729   0.440717  -0.036677
    18  H    0.000049  -0.000002  -0.007717   0.005297  -0.036677   0.440718
    19  H    0.000005  -0.000000  -0.000469   0.003552  -0.007925   0.005981
    20  H   -0.000010  -0.000000  -0.000190  -0.000191  -0.003202  -0.003201
    21  H    0.000005  -0.000000   0.003552  -0.000467   0.005980  -0.007927
    22  H    0.035516   0.000002  -0.000030  -0.000030  -0.000000  -0.000000
    23  Cl  -0.189584   0.000802   0.000000   0.000000   0.000000   0.000000
    24  H    0.279378   0.005224  -0.000000  -0.000000  -0.000000  -0.000000
    25  C    1.075952   0.001386  -0.000028  -0.000027   0.000000   0.000000
    26  H   -0.012053   0.000001  -0.000000  -0.000000   0.000000   0.000000
    27  F   -0.016565   0.000001  -0.000000   0.000000  -0.000000  -0.000000
    28  F   -0.017003   0.000001   0.000000  -0.000000  -0.000000  -0.000000
    29  F   -0.004779   0.000002   0.000000   0.000000   0.000000   0.000000
              19         20         21         22         23         24
     1  C   -0.000130   0.000110  -0.000127   0.092461   0.323120   0.035215
     2  N   -0.000037   0.000035  -0.000037  -0.026681  -0.014047  -0.018452
     3  C   -0.001400   0.007332  -0.001372   0.074165  -0.052386  -0.013346
     4  O   -0.000079   0.000032  -0.000079   0.007846   0.000247   0.000183
     5  O   -0.000399  -0.000654  -0.000402   0.002500  -0.000021  -0.000830
     6  C   -0.048911   0.091504  -0.048832   0.006708  -0.002326  -0.001287
     7  C    0.014168  -0.136994   0.013955  -0.000482  -0.000055   0.000045
     8  C    0.380816   0.390215   0.380932   0.000033  -0.000005  -0.000002
     9  C    0.000019   0.000037   0.000019   0.240902   0.186830  -0.057136
    10  C   -0.000001   0.000001  -0.000001  -0.146477   0.231427   0.033664
    11  C    0.000000  -0.000000   0.000000   0.021605  -0.612904  -0.029122
    12  C   -0.000001   0.000000  -0.000001  -0.023545  -0.647414   0.096997
    13  C    0.000005  -0.000010   0.000005   0.035516  -0.189584   0.279378
    14  H   -0.000000  -0.000000  -0.000000   0.000002   0.000802   0.005224
    15  H   -0.000469  -0.000190   0.003552  -0.000030   0.000000  -0.000000
    16  H    0.003552  -0.000191  -0.000467  -0.000030   0.000000  -0.000000
    17  H   -0.007925  -0.003202   0.005980  -0.000000   0.000000  -0.000000
    18  H    0.005981  -0.003201  -0.007927  -0.000000   0.000000  -0.000000
    19  H    0.451893  -0.024642  -0.037185  -0.000000  -0.000000  -0.000000
    20  H   -0.024642   0.425959  -0.024636   0.000000   0.000000   0.000000
    21  H   -0.037185  -0.024636   0.451860  -0.000000  -0.000000  -0.000000
    22  H   -0.000000   0.000000  -0.000000   0.335294   0.000188  -0.000034
    23  Cl  -0.000000   0.000000  -0.000000   0.000188  17.549274  -0.008020
    24  H   -0.000000   0.000000  -0.000000  -0.000034  -0.008020   0.393601
    25  C   -0.000000   0.000000  -0.000000   0.034817  -0.162307   0.003651
    26  H    0.000000   0.000000   0.000000  -0.000157  -0.017967  -0.000200
    27  F   -0.000000   0.000000  -0.000000   0.000083  -0.000451  -0.000002
    28  F   -0.000000   0.000000  -0.000000   0.000042  -0.000462  -0.000002
    29  F    0.000000   0.000000   0.000000   0.010806  -0.000166   0.000001
              25         26         27         28         29
     1  C   -2.611051   0.036889   0.025948   0.024352   0.208138
     2  N    0.053437   0.000680   0.000417   0.000436  -0.000854
     3  C   -0.063857   0.002976  -0.000387  -0.000435   0.010488
     4  O    0.009000  -0.000004   0.000031   0.000033   0.000122
     5  O    0.005275   0.000002  -0.000001  -0.000001  -0.000011
     6  C   -0.012884   0.000032  -0.000019  -0.000021   0.000309
     7  C   -0.000892  -0.000000   0.000000   0.000000   0.000016
     8  C   -0.000208   0.000000  -0.000000  -0.000000   0.000000
     9  C   -1.588087  -0.007606   0.051871   0.048564   0.024961
    10  C   -5.275845   0.058450   0.212369   0.224776  -0.241136
    11  C    5.687782   0.077480  -0.330866  -0.331350   0.057388
    12  C   -4.986179   0.131054   0.067386   0.060787   0.049204
    13  C    1.075952  -0.012053  -0.016565  -0.017003  -0.004779
    14  H    0.001386   0.000001   0.000001   0.000001   0.000002
    15  H   -0.000028  -0.000000  -0.000000   0.000000   0.000000
    16  H   -0.000027  -0.000000   0.000000  -0.000000   0.000000
    17  H    0.000000   0.000000  -0.000000  -0.000000   0.000000
    18  H    0.000000   0.000000  -0.000000  -0.000000   0.000000
    19  H   -0.000000   0.000000  -0.000000  -0.000000   0.000000
    20  H    0.000000   0.000000   0.000000   0.000000   0.000000
    21  H   -0.000000   0.000000  -0.000000  -0.000000   0.000000
    22  H    0.034817  -0.000157   0.000083   0.000042   0.010806
    23  Cl  -0.162307  -0.017967  -0.000451  -0.000462  -0.000166
    24  H    0.003651  -0.000200  -0.000002  -0.000002   0.000001
    25  C   12.630775   0.042584   0.158420   0.159578   0.058082
    26  H    0.042584   0.373709  -0.000537  -0.000739   0.000394
    27  F    0.158420  -0.000537   8.980950  -0.053843  -0.030152
    28  F    0.159578  -0.000739  -0.053843   8.979436  -0.031192
    29  F    0.058082   0.000394  -0.030152  -0.031192   9.021559
 Mulliken charges:
               1
     1  C   -1.472777
     2  N   -0.488162
     3  C    0.039261
     4  O   -0.309488
     5  O   -0.063388
     6  C   -0.335962
     7  C   -0.145310
     8  C   -1.045870
     9  C   -0.049125
    10  C   -0.790577
    11  C    0.707437
    12  C    0.118875
    13  C   -0.349108
    14  H    0.432951
    15  H    0.275648
    16  H    0.275666
    17  H    0.262960
    18  H    0.262950
    19  H    0.264746
    20  H    0.278496
    21  H    0.264764
    22  H    0.334468
    23  Cl   0.416229
    24  H    0.280473
    25  C    0.780623
    26  H    0.315013
    27  F   -0.064652
    28  F   -0.062957
    29  F   -0.133181
 Sum of Mulliken charges =  -0.00000
 Mulliken charges with hydrogens summed into heavy atoms:
               1
     1  C   -1.472777
     2  N   -0.055211
     3  C    0.039261
     4  O   -0.309488
     5  O   -0.063388
     6  C    0.215352
     7  C    0.380600
     8  C   -0.237865
     9  C    0.285343
    10  C   -0.790577
    11  C    1.022450
    12  C    0.118875
    13  C   -0.068635
    23  Cl   0.416229
    25  C    0.780623
    27  F   -0.064652
    28  F   -0.062957
    29  F   -0.133181
 Electronic spatial extent (au):  <R**2>=           8017.9525
 Charge=             -0.0000 electrons
 Dipole moment (field-independent basis, Debye):
    X=             -4.8182    Y=              3.6269    Z=             -0.0075  Tot=              6.0307
 Quadrupole moment (field-independent basis, Debye-Ang):
   XX=            -99.4512   YY=           -116.4515   ZZ=           -113.4339
   XY=             -0.3139   XZ=             -0.0111   YZ=              0.0149
 Traceless Quadrupole moment (field-independent basis, Debye-Ang):
   XX=             10.3277   YY=             -6.6726   ZZ=             -3.6550
   XY=             -0.3139   XZ=             -0.0111   YZ=              0.0149
 Octapole moment (field-independent basis, Debye-Ang**2):
  XXX=            -89.2837  YYY=            -11.6883  ZZZ=             -0.0348  XYY=            -10.0205
  XXY=             -1.5958  XXZ=              0.0425  XZZ=             -0.4556  YZZ=            -14.1280
  YYZ=             -0.0153  XYZ=              0.0272
 Hexadecapole moment (field-independent basis, Debye-Ang**3):
 XXXX=          -7351.4731 YYYY=          -2014.4221 ZZZZ=           -203.6159 XXXY=            -48.3620
 XXXZ=              0.4491 YYYX=           -109.9846 YYYZ=             -0.0427 ZZZX=             -0.1755
 ZZZY=              0.1377 XXYY=          -1745.4496 XXZZ=          -1376.2535 YYZZ=           -378.6038
 XXYZ=              0.1405 YYXZ=             -0.0083 ZZXY=            -24.7986
 N-N= 1.424369661212D+03 E-N=-6.127343565997D+03  KE= 1.386764906470D+03
 D1PCM: PCM CHGder 1st derivatives, ID1Alg=3 FixD1E=F DoIter=F DoCFld=F I1PDM=0.
 Calling FoFJK, ICntrl=      2127 FMM=F ISym2X=0 I1Cent= 0 IOpClX= 0 NMat=1 NMatS=1 NMatT=0.
 ***** Axes restored to original set *****
 -------------------------------------------------------------------
 Center     Atomic                   Forces (Hartrees/Bohr)
 Number     Number              X              Y              Z
 -------------------------------------------------------------------
      1        6          -0.000002044    0.000002909    0.000000890
      2        7           0.000006257   -0.000004280   -0.000001501
      3        6           0.000005955    0.000005920    0.000000509
      4        8           0.000000811   -0.000001542   -0.000000934
      5        8           0.000006591    0.000003986    0.000001027
      6        6          -0.000020434   -0.000012229    0.000000475
      7        6          -0.000002871   -0.000005077   -0.000000769
      8        6          -0.000003104   -0.000007445   -0.000000572
      9        6           0.000002710    0.000005595   -0.000000160
     10        6           0.000001401   -0.000000994    0.000001254
     11        6          -0.000001785    0.000008149    0.000000391
     12        6           0.000001407    0.000007678    0.000000289
     13        6          -0.000002075    0.000002291    0.000000361
     14        1          -0.000001995    0.000000315    0.000000101
     15        1           0.000000226   -0.000005049   -0.000002241
     16        1          -0.000000490   -0.000004410    0.000001621
     17        1          -0.000003749   -0.000005652    0.000001256
     18        1          -0.000003945   -0.000005162   -0.000001696
     19        1          -0.000000085   -0.000008371    0.000000554
     20        1          -0.000002816   -0.000007284   -0.000000132
     21        1          -0.000000278   -0.000007856   -0.000001763
     22        1           0.000004454    0.000001028   -0.000000427
     23       17          -0.000001150    0.000007898    0.000000814
     24        1          -0.000002827    0.000003458    0.000000379
     25        6          -0.000008644   -0.000006604    0.000001025
     26        1           0.000001460    0.000006936    0.000000914
     27        9           0.000003579    0.000007066   -0.000001879
     28        9           0.000003143    0.000005826    0.000002229
     29        9           0.000020300    0.000012899   -0.000002013
 -------------------------------------------------------------------
 Cartesian Forces:  Max     0.000020434 RMS     0.000005229

 GradGradGradGradGradGradGradGradGradGradGradGradGradGradGradGradGradGrad
 Berny optimization.
 FormGI is forming the generalized inverse of G from B-inverse, IUseBI=4.
 GSVD:  received Info=                   1 from GESDD.
 Internal  Forces:  Max     0.000023833 RMS     0.000003337
 Search for a local minimum.
 Step number   1 out of a maximum of  149
 All quantities printed in internal units (Hartrees-Bohrs-Radians)
 Mixed Optimization -- En-DIIS/RFO-DIIS
 Second derivative matrix not updated -- first step.
 ITU=  0
     Eigenvalues ---    0.00430   0.00599   0.00717   0.01177   0.01655
     Eigenvalues ---    0.01725   0.01892   0.01996   0.02063   0.02126
     Eigenvalues ---    0.02175   0.02200   0.02201   0.02233   0.02254
     Eigenvalues ---    0.02263   0.02286   0.02486   0.03846   0.04987
     Eigenvalues ---    0.05392   0.05504   0.05548   0.05735   0.08085
     Eigenvalues ---    0.10546   0.10905   0.11283   0.11991   0.13616
     Eigenvalues ---    0.16000   0.16000   0.16000   0.16000   0.16000
     Eigenvalues ---    0.16000   0.16000   0.21884   0.21954   0.22000
     Eigenvalues ---    0.23485   0.23506   0.23509   0.25000   0.25000
     Eigenvalues ---    0.25000   0.25000   0.25000   0.25000   0.25000
     Eigenvalues ---    0.25000   0.25000   0.29855   0.31091   0.31240
     Eigenvalues ---    0.31990   0.34410   0.34410   0.34463   0.34464
     Eigenvalues ---    0.34511   0.34511   0.34678   0.35467   0.35613
     Eigenvalues ---    0.36133   0.39736   0.42523   0.43053   0.45884
     Eigenvalues ---    0.46043   0.46343   0.46845   0.47889   0.48053
     Eigenvalues ---    0.50599   0.56269   0.56305   0.57222   0.58162
     Eigenvalues ---    1.02327
 RFO step:  Lambda= 0.00000000D+00 EMin= 4.30349161D-03
 Linear search not attempted -- first point.
 Iteration  1 RMS(Cart)=  0.00010134 RMS(Int)=  0.00000000
 Iteration  2 RMS(Cart)=  0.00000000 RMS(Int)=  0.00000000
 Variable       Old X    -DE/DX   Delta X   Delta X   Delta X     New X
                                 (Linear)    (Quad)   (Total)
    R1        2.64083  -0.00000   0.00000  -0.00000  -0.00000   2.64083
    R2        2.64501  -0.00000   0.00000  -0.00000  -0.00000   2.64501
    R3        2.64151  -0.00000   0.00000  -0.00000  -0.00000   2.64151
    R4        2.59265  -0.00001   0.00000  -0.00001  -0.00001   2.59264
    R5        1.90962   0.00000   0.00000   0.00000   0.00000   1.90963
    R6        2.27721  -0.00000   0.00000  -0.00000  -0.00000   2.27721
    R7        2.53209  -0.00001   0.00000  -0.00002  -0.00002   2.53207
    R8        2.71914  -0.00002   0.00000  -0.00006  -0.00006   2.71908
    R9        2.85839  -0.00000   0.00000  -0.00001  -0.00001   2.85839
   R10        2.06476  -0.00000   0.00000  -0.00001  -0.00001   2.06476
   R11        2.06476  -0.00000   0.00000  -0.00000  -0.00000   2.06475
   R12        2.88253  -0.00000   0.00000  -0.00000  -0.00000   2.88253
   R13        2.06644  -0.00000   0.00000  -0.00000  -0.00000   2.06644
   R14        2.06644  -0.00000   0.00000  -0.00000  -0.00000   2.06644
   R15        2.06555  -0.00000   0.00000  -0.00000  -0.00000   2.06555
   R16        2.06201  -0.00000   0.00000  -0.00000  -0.00000   2.06200
   R17        2.06555  -0.00000   0.00000  -0.00000  -0.00000   2.06554
   R18        2.62058   0.00000   0.00000   0.00000   0.00000   2.62058
   R19        2.03875   0.00000   0.00000   0.00000   0.00000   2.03875
   R20        2.62771  -0.00000   0.00000  -0.00000  -0.00000   2.62770
   R21        2.84162  -0.00000   0.00000  -0.00000  -0.00000   2.84162
   R22        2.61719  -0.00000   0.00000  -0.00000  -0.00000   2.61719
   R23        2.04692  -0.00000   0.00000  -0.00000  -0.00000   2.04691
   R24        2.61783  -0.00000   0.00000  -0.00000  -0.00000   2.61783
   R25        3.29257  -0.00000   0.00000  -0.00000  -0.00000   3.29256
   R26        2.04923   0.00000   0.00000   0.00000   0.00000   2.04923
   R27        2.53990   0.00000   0.00000   0.00000   0.00000   2.53991
   R28        2.54021   0.00000   0.00000   0.00000   0.00000   2.54022
   R29        2.52425   0.00002   0.00000   0.00003   0.00003   2.52428
    A1        2.15401  -0.00000   0.00000  -0.00000  -0.00000   2.15400
    A2        2.04122  -0.00000   0.00000  -0.00000  -0.00000   2.04122
    A3        2.08796   0.00000   0.00000   0.00000   0.00000   2.08796
    A4        2.22719   0.00000   0.00000   0.00000   0.00000   2.22719
    A5        2.04198   0.00000   0.00000   0.00000   0.00000   2.04199
    A6        2.01401  -0.00000   0.00000  -0.00000  -0.00000   2.01401
    A7        2.20394   0.00001   0.00000   0.00003   0.00003   2.20397
    A8        1.90214  -0.00002   0.00000  -0.00007  -0.00007   1.90207
    A9        2.17711   0.00001   0.00000   0.00004   0.00004   2.17714
   A10        2.01751  -0.00000   0.00000  -0.00001  -0.00001   2.01750
   A11        1.88123  -0.00000   0.00000  -0.00001  -0.00001   1.88122
   A12        1.89811   0.00000   0.00000   0.00000   0.00000   1.89811
   A13        1.89816   0.00000   0.00000   0.00000   0.00000   1.89816
   A14        1.94913   0.00000   0.00000   0.00000   0.00000   1.94913
   A15        1.94912   0.00000   0.00000   0.00001   0.00001   1.94913
   A16        1.88702  -0.00000   0.00000  -0.00001  -0.00001   1.88701
   A17        1.93199  -0.00000   0.00000  -0.00000  -0.00000   1.93199
   A18        1.90419   0.00000   0.00000   0.00000   0.00000   1.90419
   A19        1.90421  -0.00000   0.00000  -0.00000  -0.00000   1.90420
   A20        1.92589   0.00000   0.00000   0.00001   0.00001   1.92590
   A21        1.92588   0.00000   0.00000   0.00001   0.00001   1.92589
   A22        1.87046  -0.00000   0.00000  -0.00001  -0.00001   1.87045
   A23        1.94315   0.00000   0.00000   0.00001   0.00001   1.94316
   A24        1.93714   0.00000   0.00000   0.00000   0.00000   1.93714
   A25        1.94314   0.00000   0.00000   0.00000   0.00000   1.94314
   A26        1.87862  -0.00000   0.00000  -0.00000  -0.00000   1.87862
   A27        1.88023  -0.00000   0.00000  -0.00001  -0.00001   1.88022
   A28        1.87863  -0.00000   0.00000  -0.00001  -0.00001   1.87862
   A29        2.07021  -0.00000   0.00000  -0.00001  -0.00001   2.07021
   A30        2.10432  -0.00000   0.00000  -0.00001  -0.00001   2.10431
   A31        2.10865   0.00000   0.00000   0.00002   0.00002   2.10867
   A32        2.14245   0.00000   0.00000   0.00001   0.00001   2.14246
   A33        2.09393  -0.00000   0.00000  -0.00001  -0.00001   2.09393
   A34        2.04680  -0.00000   0.00000  -0.00000  -0.00000   2.04680
   A35        2.04906  -0.00000   0.00000  -0.00001  -0.00001   2.04905
   A36        2.12021   0.00000   0.00000   0.00001   0.00001   2.12022
   A37        2.11391   0.00000   0.00000   0.00000   0.00000   2.11392
   A38        2.12532   0.00000   0.00000   0.00001   0.00001   2.12532
   A39        2.08299  -0.00000   0.00000  -0.00000  -0.00000   2.08299
   A40        2.07488  -0.00000   0.00000  -0.00001  -0.00001   2.07488
   A41        2.09138  -0.00000   0.00000  -0.00000  -0.00000   2.09137
   A42        2.10052   0.00000   0.00000   0.00000   0.00000   2.10052
   A43        2.09129   0.00000   0.00000   0.00000   0.00000   2.09129
   A44        1.94603   0.00000   0.00000   0.00000   0.00000   1.94603
   A45        1.94575  -0.00000   0.00000   0.00000   0.00000   1.94575
   A46        1.97041  -0.00000   0.00000  -0.00001  -0.00001   1.97040
   A47        1.85518   0.00000   0.00000   0.00000   0.00000   1.85518
   A48        1.87033  -0.00000   0.00000  -0.00001  -0.00001   1.87032
   A49        1.87000   0.00000   0.00000   0.00001   0.00001   1.87001
    D1        0.00277   0.00000   0.00000   0.00004   0.00004   0.00281
    D2       -3.13996  -0.00000   0.00000  -0.00000  -0.00000  -3.13996
    D3       -3.13916   0.00000   0.00000   0.00005   0.00005  -3.13910
    D4        0.00130   0.00000   0.00000   0.00001   0.00001   0.00131
    D5        3.14122   0.00000   0.00000   0.00003   0.00003   3.14126
    D6       -0.00008   0.00000   0.00000   0.00003   0.00003  -0.00005
    D7       -0.00003   0.00000   0.00000   0.00002   0.00002  -0.00001
    D8       -3.14133   0.00000   0.00000   0.00001   0.00001  -3.14132
    D9       -3.14133  -0.00000   0.00000  -0.00003  -0.00003  -3.14136
   D10        0.00022  -0.00000   0.00000  -0.00002  -0.00002   0.00020
   D11       -0.00006  -0.00000   0.00000  -0.00002  -0.00002  -0.00008
   D12        3.14150  -0.00000   0.00000  -0.00001  -0.00001   3.14149
   D13       -0.00030  -0.00000   0.00000  -0.00004  -0.00004  -0.00034
   D14        3.14128  -0.00000   0.00000  -0.00005  -0.00005   3.14122
   D15       -3.14078   0.00000   0.00000   0.00001   0.00001  -3.14077
   D16        0.00081  -0.00000   0.00000  -0.00001  -0.00001   0.00079
   D17       -3.14121   0.00000   0.00000   0.00004   0.00004  -3.14116
   D18        0.00037   0.00000   0.00000   0.00003   0.00003   0.00040
   D19       -3.14139   0.00000   0.00000   0.00007   0.00007  -3.14132
   D20        1.02581   0.00000   0.00000   0.00007   0.00007   1.02587
   D21       -1.02538   0.00000   0.00000   0.00007   0.00007  -1.02531
   D22       -3.14123   0.00000   0.00000   0.00002   0.00002  -3.14122
   D23        1.01944  -0.00000   0.00000   0.00000   0.00000   1.01945
   D24       -1.01873   0.00000   0.00000   0.00002   0.00002  -1.01871
   D25       -1.05738   0.00000   0.00000   0.00002   0.00002  -1.05736
   D26        3.10330  -0.00000   0.00000   0.00000   0.00000   3.10330
   D27        1.06513   0.00000   0.00000   0.00002   0.00002   1.06514
   D28        1.05804   0.00000   0.00000   0.00001   0.00001   1.05806
   D29       -1.06447  -0.00000   0.00000   0.00000   0.00000  -1.06446
   D30       -3.10264   0.00000   0.00000   0.00002   0.00002  -3.10262
   D31       -1.04896  -0.00000   0.00000  -0.00002  -0.00002  -1.04898
   D32       -3.14133  -0.00000   0.00000  -0.00003  -0.00003  -3.14136
   D33        1.04949  -0.00000   0.00000  -0.00003  -0.00003   1.04947
   D34        1.06072   0.00000   0.00000  -0.00002  -0.00002   1.06070
   D35       -1.03165  -0.00000   0.00000  -0.00002  -0.00002  -1.03167
   D36       -3.12401  -0.00000   0.00000  -0.00002  -0.00002  -3.12403
   D37        3.12453   0.00000   0.00000  -0.00002  -0.00002   3.12451
   D38        1.03216  -0.00000   0.00000  -0.00002  -0.00002   1.03214
   D39       -1.06020   0.00000   0.00000  -0.00002  -0.00002  -1.06023
   D40        0.00012  -0.00000   0.00000  -0.00001  -0.00001   0.00012
   D41        3.13943   0.00000   0.00000   0.00001   0.00001   3.13944
   D42        3.14143   0.00000   0.00000   0.00000   0.00000   3.14143
   D43       -0.00245   0.00000   0.00000   0.00002   0.00002  -0.00243
   D44       -0.00013  -0.00000   0.00000  -0.00001  -0.00001  -0.00014
   D45       -3.14145  -0.00000   0.00000  -0.00000  -0.00000  -3.14146
   D46       -3.13949  -0.00000   0.00000  -0.00003  -0.00003  -3.13952
   D47        0.00237  -0.00000   0.00000  -0.00002  -0.00002   0.00234
   D48        2.12271  -0.00000   0.00000   0.00003   0.00003   2.12274
   D49       -2.09006   0.00000   0.00000   0.00003   0.00003  -2.09003
   D50        0.01600   0.00000   0.00000   0.00004   0.00004   0.01605
   D51       -1.02105  -0.00000   0.00000   0.00005   0.00005  -1.02100
   D52        1.04937   0.00000   0.00000   0.00005   0.00005   1.04942
   D53       -3.12775   0.00000   0.00000   0.00006   0.00006  -3.12769
   D54        0.00003   0.00000   0.00000   0.00001   0.00001   0.00005
   D55       -3.14139   0.00000   0.00000   0.00001   0.00001  -3.14138
   D56        3.14136   0.00000   0.00000   0.00001   0.00001   3.14137
   D57       -0.00006   0.00000   0.00000   0.00000   0.00000  -0.00006
   D58        0.00006   0.00000   0.00000   0.00000   0.00000   0.00006
   D59       -3.14150  -0.00000   0.00000  -0.00001  -0.00001  -3.14151
   D60        3.14148   0.00000   0.00000   0.00001   0.00001   3.14149
   D61       -0.00008  -0.00000   0.00000  -0.00000  -0.00000  -0.00008
         Item               Value     Threshold  Converged?
 Maximum Force            0.000024     0.000450     YES
 RMS     Force            0.000003     0.000300     YES
 Maximum Displacement     0.000280     0.001800     YES
 RMS     Displacement     0.000101     0.001200     YES
 Predicted change in Energy=-2.481712D-09
 Optimization completed.
    -- Stationary point found.
                           ----------------------------
                           !   Optimized Parameters   !
                           ! (Angstroms and Degrees)  !
 --------------------------                            --------------------------
 ! Name  Definition              Value          Derivative Info.                !
 --------------------------------------------------------------------------------
 ! R1    R(1,2)                  1.3975         -DE/DX =    0.0                 !
 ! R2    R(1,9)                  1.3997         -DE/DX =    0.0                 !
 ! R3    R(1,13)                 1.3978         -DE/DX =    0.0                 !
 ! R4    R(2,3)                  1.372          -DE/DX =    0.0                 !
 ! R5    R(2,14)                 1.0105         -DE/DX =    0.0                 !
 ! R6    R(3,4)                  1.205          -DE/DX =    0.0                 !
 ! R7    R(3,5)                  1.3399         -DE/DX =    0.0                 !
 ! R8    R(5,6)                  1.4389         -DE/DX =    0.0                 !
 ! R9    R(6,7)                  1.5126         -DE/DX =    0.0                 !
 ! R10   R(6,15)                 1.0926         -DE/DX =    0.0                 !
 ! R11   R(6,16)                 1.0926         -DE/DX =    0.0                 !
 ! R12   R(7,8)                  1.5254         -DE/DX =    0.0                 !
 ! R13   R(7,17)                 1.0935         -DE/DX =    0.0                 !
 ! R14   R(7,18)                 1.0935         -DE/DX =    0.0                 !
 ! R15   R(8,19)                 1.093          -DE/DX =    0.0                 !
 ! R16   R(8,20)                 1.0912         -DE/DX =    0.0                 !
 ! R17   R(8,21)                 1.093          -DE/DX =    0.0                 !
 ! R18   R(9,10)                 1.3867         -DE/DX =    0.0                 !
 ! R19   R(9,22)                 1.0789         -DE/DX =    0.0                 !
 ! R20   R(10,11)                1.3905         -DE/DX =    0.0                 !
 ! R21   R(10,25)                1.5037         -DE/DX =    0.0                 !
 ! R22   R(11,12)                1.385          -DE/DX =    0.0                 !
 ! R23   R(11,26)                1.0832         -DE/DX =    0.0                 !
 ! R24   R(12,13)                1.3853         -DE/DX =    0.0                 !
 ! R25   R(12,23)                1.7424         -DE/DX =    0.0                 !
 ! R26   R(13,24)                1.0844         -DE/DX =    0.0                 !
 ! R27   R(25,27)                1.3441         -DE/DX =    0.0                 !
 ! R28   R(25,28)                1.3442         -DE/DX =    0.0                 !
 ! R29   R(25,29)                1.3358         -DE/DX =    0.0                 !
 ! A1    A(2,1,9)              123.4155         -DE/DX =    0.0                 !
 ! A2    A(2,1,13)             116.9533         -DE/DX =    0.0                 !
 ! A3    A(9,1,13)             119.6312         -DE/DX =    0.0                 !
 ! A4    A(1,2,3)              127.6087         -DE/DX =    0.0                 !
 ! A5    A(1,2,14)             116.9971         -DE/DX =    0.0                 !
 ! A6    A(3,2,14)             115.3942         -DE/DX =    0.0                 !
 ! A7    A(2,3,4)              126.2765         -DE/DX =    0.0                 !
 ! A8    A(2,3,5)              108.9845         -DE/DX =    0.0                 !
 ! A9    A(4,3,5)              124.739          -DE/DX =    0.0                 !
 ! A10   A(3,5,6)              115.5948         -DE/DX =    0.0                 !
 ! A11   A(5,6,7)              107.7864         -DE/DX =    0.0                 !
 ! A12   A(5,6,15)             108.7536         -DE/DX =    0.0                 !
 ! A13   A(5,6,16)             108.7563         -DE/DX =    0.0                 !
 ! A14   A(7,6,15)             111.677          -DE/DX =    0.0                 !
 ! A15   A(7,6,16)             111.6764         -DE/DX =    0.0                 !
 ! A16   A(15,6,16)            108.1181         -DE/DX =    0.0                 !
 ! A17   A(6,7,8)              110.6948         -DE/DX =    0.0                 !
 ! A18   A(6,7,17)             109.102          -DE/DX =    0.0                 !
 ! A19   A(6,7,18)             109.103          -DE/DX =    0.0                 !
 ! A20   A(8,7,17)             110.3455         -DE/DX =    0.0                 !
 ! A21   A(8,7,18)             110.3448         -DE/DX =    0.0                 !
 ! A22   A(17,7,18)            107.1693         -DE/DX =    0.0                 !
 ! A23   A(7,8,19)             111.3344         -DE/DX =    0.0                 !
 ! A24   A(7,8,20)             110.9898         -DE/DX =    0.0                 !
 ! A25   A(7,8,21)             111.3335         -DE/DX =    0.0                 !
 ! A26   A(19,8,20)            107.6372         -DE/DX =    0.0                 !
 ! A27   A(19,8,21)            107.729          -DE/DX =    0.0                 !
 ! A28   A(20,8,21)            107.6374         -DE/DX =    0.0                 !
 ! A29   A(1,9,10)             118.6145         -DE/DX =    0.0                 !
 ! A30   A(1,9,22)             120.5687         -DE/DX =    0.0                 !
 ! A31   A(10,9,22)            120.8168         -DE/DX =    0.0                 !
 ! A32   A(9,10,11)            122.7531         -DE/DX =    0.0                 !
 ! A33   A(9,10,25)            119.9736         -DE/DX =    0.0                 !
 ! A34   A(11,10,25)           117.2732         -DE/DX =    0.0                 !
 ! A35   A(10,11,12)           117.4025         -DE/DX =    0.0                 !
 ! A36   A(10,11,26)           121.4792         -DE/DX =    0.0                 !
 ! A37   A(12,11,26)           121.1182         -DE/DX =    0.0                 !
 ! A38   A(11,12,13)           121.7716         -DE/DX =    0.0                 !
 ! A39   A(11,12,23)           119.3464         -DE/DX =    0.0                 !
 ! A40   A(13,12,23)           118.882          -DE/DX =    0.0                 !
 ! A41   A(1,13,12)            119.827          -DE/DX =    0.0                 !
 ! A42   A(1,13,24)            120.3509         -DE/DX =    0.0                 !
 ! A43   A(12,13,24)           119.8221         -DE/DX =    0.0                 !
 ! A44   A(10,25,27)           111.4992         -DE/DX =    0.0                 !
 ! A45   A(10,25,28)           111.4833         -DE/DX =    0.0                 !
 ! A46   A(10,25,29)           112.8961         -DE/DX =    0.0                 !
 ! A47   A(27,25,28)           106.2941         -DE/DX =    0.0                 !
 ! A48   A(27,25,29)           107.162          -DE/DX =    0.0                 !
 ! A49   A(28,25,29)           107.1429         -DE/DX =    0.0                 !
 ! D1    D(9,1,2,3)              0.1586         -DE/DX =    0.0                 !
 ! D2    D(9,1,2,14)          -179.9065         -DE/DX =    0.0                 !
 ! D3    D(13,1,2,3)          -179.8603         -DE/DX =    0.0                 !
 ! D4    D(13,1,2,14)            0.0745         -DE/DX =    0.0                 !
 ! D5    D(2,1,9,10)           179.9789         -DE/DX =    0.0                 !
 ! D6    D(2,1,9,22)            -0.0046         -DE/DX =    0.0                 !
[...]
 0001481,-0.00004104,0.16051769,0.00186467,-0.00000276,-0.00044366,-0.0
 0119682,-0.00013406,0.00003686,0.00153344,-0.00007246,-0.00005893,-0.0
 0058874,0.00001557,0.00002150,-0.00100422,0.00038964,0.00007188,0.0003
 7076,0.00011349,-0.00000708,-0.00002716,-0.00006051,-0.00000345,-0.000
 01031,0.00004684,0.00000391,-0.00231897,0.00001275,0.00016554,0.006238
 88,-0.00371545,-0.00090178,-0.03643526,-0.02748247,-0.00069796,-0.0658
 1116,-0.09579373,-0.00238939,-0.00472850,-0.00019990,-0.00009734,-0.00
 001912,-0.00016294,-0.00001252,-0.00003339,-0.00002110,0.00000514,-0.0
 0003333,-0.00002033,-0.00000550,0.00000173,0.00000631,0.00000788,0.000
 00099,0.00000754,-0.00000714,0.00000452,-0.00000719,-0.00000189,-0.000
 02879,0.00000547,0.00000167,0.00000450,-0.00000749,0.00000035,0.000133
 68,0.00019038,0.00004796,0.10324821,0.12546443,0.00034768,-0.00064946,
 0.00500346,0.00003770,0.00007091,0.00006713,0.00000855,-0.00002736,-0.
 00015361,-0.00000570,0.00001231,0.00006404,-0.00000478,0.00001373,-0.0
 0000907,0.00000310,-0.00000070,-0.00000235,0.00000032,-0.00000026,0.00
 000078,-0.00000017,0.00000026,0.00000039,-0.00017654,0.00017753,-0.000
 90221,0.00059734,-0.00059092,0.00495140,-0.00213195,-0.00188359,0.0042
 3417,-0.00061032,-0.00240281,-0.02316708,0.00134876,0.00105306,0.00409
 689,-0.00000610,-0.00000254,0.00001597,0.00000288,-0.00000096,0.000000
 26,-0.00000292,0.00000064,0.00000017,-0.00000040,0.00000094,0.00000148
 ,0.00000028,-0.00000087,0.00000071,-0.00000021,-0.00000066,0.00000034,
 -0.00000029,0.00000016,-0.00000055,0.00000048,0.00000046,0.00000067,-0
 .00002885,0.00005551,-0.00057052,0.00095829,0.00371810,0.01171054,0.00
 743994,-0.02272902,-0.00173381,0.00239374,-0.00109780,-0.00033498,-0.0
 0040270,-0.00052857,-0.00006206,0.00004695,0.00047197,0.00004168,0.000
 18930,0.00009370,0.00000146,-0.00010224,-0.00003920,0.00000597,0.00001
 252,0.00001025,0.00000116,-0.00000090,-0.00000826,-0.00000081,-0.00364
 097,-0.00296299,0.00018897,-0.00135295,-0.00041428,-0.00000180,-0.0053
 4408,0.00124054,0.00056378,-0.00095481,0.02919127,0.00223671,-0.065331
 96,0.04307568,0.00440407,-0.00163233,0.00054267,0.00014822,0.00001599,
 0.00000671,0.00000472,0.00001450,0.00000818,-0.00000572,-0.00000457,-0
 .00000041,0.00000535,-0.00000536,0.00000099,-0.00000548,0.00000163,0.0
 0000311,-0.00000222,0.00000603,-0.00000096,-0.00000026,0.00000151,0.00
 000242,0.00000229,0.00047812,-0.00103823,-0.00010343,0.00054413,0.0011
 4008,-0.00006469,0.06747076,0.00598384,-0.01407332,-0.00162736,0.00221
 134,0.00124841,0.00024626,-0.00069035,-0.00024206,0.00007627,0.0001748
 9,0.00054747,0.00001850,0.00007485,0.00000534,-0.00000662,-0.00006389,
 -0.00001011,-0.00000567,0.00000267,0.00000438,-0.00000123,-0.00000027,
 -0.00000481,0.00000004,-0.00330321,-0.00076091,-0.00031339,-0.00062627
 ,0.00066725,0.00012469,0.00165942,0.00147860,-0.00037152,-0.00100772,-
 0.00728566,-0.00065023,0.04456642,-0.33702597,-0.02356514,-0.00083897,
 0.00024082,-0.00000572,0.00000923,0.00000240,0.00000244,0.00001077,0.0
 0000162,-0.00000165,-0.00000236,0.00000198,0.00000126,-0.00000185,0.00
 000120,0.00000007,-0.00000001,0.00000078,-0.00000089,0.00000390,-0.000
 00055,-0.00000031,0.00000058,0.00000119,0.00000133,0.00054303,-0.00059
 902,-0.00005433,-0.00030905,0.00136979,0.00031290,-0.04835553,0.354748
 71,0.00033298,-0.00038085,0.00497819,-0.00009099,0.00040716,-0.0033455
 8,-0.00007392,0.00007170,-0.00091158,0.00001847,0.00000440,0.00020306,
 -0.00000013,-0.00000847,0.00005496,0.00000420,-0.00000679,0.00010569,0
 .00000045,-0.00000164,0.00002019,-0.00000019,0.00000039,-0.00000518,0.
 00016786,-0.00033234,0.00557799,-0.00001902,0.00011973,-0.00070366,0.0
 0059264,-0.00035522,0.00560293,0.00006926,-0.00195407,0.00224448,0.004
 50936,-0.02350209,-0.03685616,0.00003877,-0.00007796,0.00075596,0.0000
 1182,-0.00000715,-0.00001055,-0.00001248,0.00000816,-0.00000818,0.0000
 0363,-0.00000560,-0.00000726,-0.00000400,0.00000678,-0.00000552,0.0000
 0338,0.00000410,-0.00000208,0.00000009,-0.00000011,0.00000147,-0.00000
 368,-0.00000387,-0.00000244,0.00001075,0.00001558,-0.00017785,-0.00016
 823,0.00024863,-0.00279333,-0.00537704,0.02582904,0.02542480,-0.006017
 77,0.00394454,0.00085303,-0.00037444,0.00055085,0.00004157,-0.00014775
 ,0.00336234,0.00027078,0.00073622,-0.00218241,-0.00020624,0.00099905,-
 0.00106335,-0.00012577,-0.00046214,-0.00003122,0.00002260,-0.00000441,
 0.00005943,0.00000546,0.00002177,-0.00005951,-0.00000492,0.00171902,0.
 02696719,0.00205105,-0.09648961,0.02216490,0.00292821,0.01283922,-0.02
 251665,-0.00235819,-0.00081197,-0.00610684,-0.00013383,-0.00432392,-0.
 00140049,0.00005020,-0.00030356,0.00014816,0.00002183,0.00000355,0.000
 04403,-0.00003726,0.00000814,0.00003880,0.00004118,0.00000255,-0.00002
 080,-0.00001982,0.00000391,-0.00002142,0.00001544,-0.00001479,0.000018
 63,0.00001418,0.00004619,-0.00002617,-0.00000373,-0.00001650,0.0000196
 8,-0.00001102,-0.00280053,0.00127521,0.00007641,-0.00164670,-0.0023499
 4,-0.00008346,-0.00029339,-0.00010285,-0.00000843,0.54750649,0.0042075
 5,-0.00095240,-0.00074229,-0.00675233,0.00064310,0.00034216,0.00756985
 ,0.00325279,-0.00011364,-0.00259584,-0.00244020,-0.00003924,-0.0038297
 7,0.00071935,0.00022448,0.00152677,0.00056977,-0.00003317,-0.00012865,
 -0.00018764,-0.00000977,-0.00000249,0.00015803,0.00001071,0.01235589,-
 0.00633222,-0.00111399,0.02513952,-0.21533700,-0.01209292,-0.00458965,
 -0.02148136,-0.00125732,-0.00603954,-0.00174982,-0.00029126,-0.0006793
 5,0.00379237,0.00036618,-0.00010740,-0.00028461,-0.00002021,-0.0001673
 6,-0.00006142,-0.00003514,-0.00016708,-0.00006870,0.00004327,0.0000243
 2,0.00000941,-0.00002591,0.00002689,0.00000124,0.00002662,-0.00000662,
 -0.00002756,0.00003437,-0.00008733,0.00000110,0.00000345,-0.00000796,-
 0.00002052,-0.00003534,-0.00147338,0.00079632,0.00035618,0.00241540,0.
 00241536,0.00005602,-0.00012032,0.00000764,0.00002486,-0.00108214,0.62
 200121,0.00088804,-0.00071834,0.00699504,-0.00048925,0.00004207,-0.000
 14132,0.00058590,0.00004897,0.00040142,-0.00024650,-0.00004564,-0.0003
 9750,-0.00033793,0.00011428,-0.00009940,0.00014199,0.00003318,0.000144
 92,-0.00000880,-0.00001801,0.00001436,-0.00000060,0.00001350,0.0000166
 7,0.00084370,-0.00171261,0.00167082,0.00313125,-0.01178781,-0.06807926
 ,-0.00094198,-0.00045810,-0.00153590,-0.00015646,-0.00027976,0.0062138
 7,0.00009544,0.00041014,-0.00091199,0.00000487,-0.00002937,0.00002387,
 -0.00003436,-0.00001587,-0.00002662,0.00000676,0.00000598,-0.00002464,
 0.00000516,-0.00002373,-0.00001676,-0.00000281,0.00002857,-0.00001019,
 0.00001113,0.00001057,-0.00001027,-0.00000853,0.00000104,0.00000443,-0
 .00001179,-0.00001411,-0.00001524,-0.00009528,0.00023058,-0.00325499,0
 .00026022,0.00027497,0.00014528,-0.00001018,0.00002931,-0.00030564,-0.
 00270224,0.00918724,0.49308221,0.00009496,-0.00026274,-0.00005600,0.00
 042163,0.00004888,-0.00004157,-0.00012779,-0.00038828,-0.00002724,-0.0
 0018215,0.00023759,0.00002185,-0.00002382,0.00005646,0.00000877,0.0000
 1763,0.00000762,0.00000120,-0.00000002,-0.00000099,0.,0.00000022,0.000
 00143,0.00000009,-0.00095256,-0.00384097,0.00002846,-0.01594232,0.0089
 3346,0.00144477,-0.31640028,0.09475916,0.01900308,-0.00087935,-0.00120
 002,0.00005270,0.00133816,0.00009030,0.00018820,-0.00001249,0.00001152
 ,0.00000207,0.00000183,-0.00000220,0.00000070,0.00000136,-0.00000150,-
 0.00000159,-0.00000040,0.00000070,-0.00000004,-0.00000043,0.00000090,0
 .00000009,0.00000022,-0.00000044,0.00000004,-0.00000117,0.00000030,0.0
 0000009,0.00000011,-0.00000051,-0.00000020,-0.00048736,0.00059757,0.00
 009067,0.00067115,-0.00053223,-0.00017599,0.00010585,-0.00005031,0.000
 00708,-0.00222512,0.00084158,0.00004803,0.33323169,-0.00043394,-0.0011
 9675,-0.00000961,0.00000398,0.00032135,0.00006756,0.00009339,-0.000273
 46,-0.00001717,-0.00018443,0.00018721,0.00002611,-0.00009311,0.0001002
 0,0.00000562,0.00004178,0.00000894,-0.00000341,-0.00000051,-0.00000398
 ,-0.00000043,-0.00000069,0.00000400,0.00000036,-0.00321720,-0.00286861
 ,-0.00050378,-0.01871384,0.01204499,0.00148664,0.09238566,-0.09194626,
 -0.00816760,0.02871311,-0.00635317,-0.00186056,-0.00031376,-0.00531987
 ,-0.00076771,-0.00012248,-0.00001397,0.00000306,-0.00000235,-0.0000015
 6,0.00000138,-0.00000181,-0.00000226,-0.00000071,-0.00000036,0.0000009
 1,0.00000066,-0.00000035,0.00000066,-0.00000035,0.00000044,-0.00000084
 ,0.00000025,-0.00000256,0.00000061,0.00000012,0.00000057,-0.00000066,-
 0.00000027,-0.00077522,0.00060892,0.00003244,0.00082250,0.00054168,0.0
 0019196,0.00140262,-0.00020664,-0.00009967,-0.00180535,0.00063396,0.00
 024242,-0.09887713,0.09442615,-0.00006724,-0.00001944,-0.00079124,-0.0
 0004927,0.00006810,-0.00062035,0.00001046,0.00000768,-0.00010293,-0.00
 000713,0.00000629,-0.00006710,-0.00000327,-0.00000131,0.00008343,0.000
 00393,-0.00000191,0.00003190,0.00000002,-0.00000045,0.00000217,-0.0000
 0008,0.00000028,-0.00000035,0.00007947,-0.00047614,0.00608859,-0.00053
 359,0.00029331,0.00272522,0.01877044,-0.00824188,-0.03504463,0.0021973
 6,-0.00057300,0.00216638,0.00015714,-0.00078719,0.00553210,-0.00000740
 ,-0.00000359,0.00002177,0.00000381,-0.00000567,-0.00000619,-0.00000484
 ,0.00000637,-0.00000490,0.00000039,-0.00000219,-0.00000141,-0.00000049
 ,0.00000241,-0.00000109,0.00000113,0.00000107,-0.00000088,-0.00000013,
 0.,0.00000045,-0.00000116,-0.00000100,-0.00000098,-0.00000847,-0.00002
 741,0.00062064,-0.00007866,0.00025137,-0.00256860,0.00011192,-0.000037
 74,0.00034918,-0.00010506,0.00014445,-0.00182048,-0.02046531,0.0092475
 9,0.02529918,0.00039731,-0.00034393,0.00102332,-0.00029801,0.00033178,
 0.00013181,0.00082788,-0.00053015,-0.00011154,-0.00042732,0.00029840,0
 .00011451,-0.00067198,0.00033257,0.00006934,0.00028239,0.00006781,-0.0
 0003173,-0.00001258,-0.00003638,-0.00000554,-0.00000648,0.00003291,0.0
 0000114,0.00129811,0.00157050,-0.00021716,-0.00715274,0.01278351,-0.01
 894065,-0.00192610,-0.00069646,0.00072997,-0.00066956,0.00042173,0.001
 34359,0.00041205,0.00069140,-0.00019068,-0.00004393,-0.00004292,-0.000
 05771,-0.00001640,-0.00001803,0.00001013,-0.00002241,-0.00002014,-0.00
 000404,0.00000146,0.00000953,0.00000529,0.00000226,0.00000241,-0.00000
 023,0.00000222,-0.00000964,0.00000070,-0.00002179,0.00000750,0.0000008
 0,0.00000540,-0.00000596,0.00000143,0.00048935,-0.00035113,-0.00075836
 ,0.00054072,0.00050235,0.00000270,0.00007548,0.00003076,-0.00011708,-0
 .13556493,0.05007914,-0.07813509,0.00050812,0.00037401,-0.00101902,0.1
 8830761,-0.00062956,-0.00047686,-0.00169215,0.00175479,-0.00044100,-0.
 00034366,-0.00220199,-0.00067866,0.00010251,0.00077001,0.00053719,-0.0
 0006186,0.00120198,-0.00029069,-0.00008578,-0.00048015,-0.00016566,0.0
 0003034,0.00003725,0.00006017,0.00000463,0.00000354,-0.00005120,-0.000
 00187,-0.00328079,-0.00411818,0.00148823,0.03096478,-0.01570277,0.0310
 3619,0.00119122,-0.00100203,-0.00019449,0.00096284,0.00194551,-0.00048
 006,0.00113499,-0.00097648,0.00007533,0.00009823,0.00008803,0.00001900
 ,0.00004741,0.00002176,0.00000356,0.00005048,0.00002544,-0.00001032,-0
 .00000664,-0.00000708,0.00000370,-0.00000764,0.00000004,-0.00000698,0.
 00000115,0.00001116,-0.00000919,0.00002967,-0.00000319,-0.00000108,-0.
 00000077,0.00000689,0.00000733,-0.00009829,-0.00002143,0.00087269,-0.0
 0067056,-0.00067075,0.00002193,0.00002228,-0.00002483,0.00000638,0.046
 15598,-0.11528532,0.05607355,-0.00015981,-0.00066923,0.00053235,-0.055
 57637,0.10568512,-0.00033156,-0.00022579,0.00021467,-0.00047107,0.0004
 3113,0.00025045,0.00078337,-0.00014215,-0.00019164,-0.00034480,0.00006
 142,0.00018414,-0.00054249,0.00022101,0.00008053,0.00021435,0.00006534
 ,-0.00005977,-0.00001318,-0.00002854,-0.00000705,-0.00000434,0.0000253
 0,-0.00000372,0.00108454,0.00303376,-0.00038141,-0.01340707,0.00736960
 ,-0.00431264,-0.00079490,-0.00081219,0.00142885,-0.00045523,-0.0000373
 2,0.00026921,0.00012121,0.00033145,-0.00005845,-0.00009464,-0.00003360
 ,-0.00005088,-0.00001198,-0.00001078,0.00001233,-0.00002488,-0.0000192
 9,0.00000524,0.00000049,0.00001339,0.00000651,0.00000298,-0.00000535,0
 .00000395,-0.00000211,-0.00001017,0.00000438,-0.00001545,0.00000402,-0
 .00000042,0.00000588,-0.00000096,0.00000368,0.00034679,-0.00015775,-0.
 00037778,0.00039100,0.00041035,0.00001721,0.00003853,0.00004100,-0.000
 05184,-0.07717557,0.06009375,-0.16332915,0.00028323,0.00024753,-0.0008
 4531,0.14106034,-0.07495443,0.26349418,0.00037700,-0.00023635,-0.00105
 706,-0.00026865,0.00028155,-0.00003478,0.00074756,-0.00050699,-0.00004
 313,-0.00039134,0.00029258,-0.00001932,-0.00061277,0.00030893,0.000036
 27,0.00026053,0.00005784,0.00001167,-0.00001080,-0.00003350,0.00000058
 ,-0.00000579,0.00002979,0.00000375,0.00109831,0.00109464,0.00017832,-0
 .00291655,0.00910281,0.01989142,-0.00184147,-0.00067119,-0.00043575,-0
 .00077653,0.00066697,-0.00118842,0.00046383,0.00063084,0.00024063,-0.0
 0002534,-0.00004688,0.00005048,-0.00001959,-0.00001862,0.00000325,-0.0
 0001586,-0.00001511,-0.00000994,0.00000215,0.00000270,0.00000078,0.000
 00101,0.00000872,-0.00000348,0.00000474,-0.00000550,-0.00000226,-0.000
 02003,0.00000704,0.00000191,0.00000224,-0.00000848,-0.00000178,0.00049
 258,-0.00041362,0.00061559,0.00049151,0.00045496,0.00001688,0.00007550
 ,0.00001153,0.00010957,-0.11703069,0.03225800,0.07749638,0.00045680,0.
 00027850,0.00100359,0.01847511,-0.00365531,-0.01400035,0.15568379,-0.0
 0059462,-0.00075456,0.00163119,0.00168739,-0.00037897,0.00010327,-0.00
 206914,-0.00069319,-0.00000062,0.00071629,0.00053913,0.00005408,0.0011
 1000,-0.00025508,-0.00005838,-0.00044486,-0.00015269,-0.00000630,0.000
 03495,0.00005535,0.00000183,0.00000266,-0.00004670,-0.00000492,-0.0032
 1863,-0.00323726,-0.00161762,0.02486691,-0.00998203,-0.03473701,0.0010
 2147,-0.00123589,-0.00028913,0.00093003,0.00181954,0.00067014,0.001123
 72,-0.00090376,-0.00030080,0.00007685,0.00008321,-0.00000751,0.0000472
 2,0.00002095,0.00000894,0.00004466,0.00002063,-0.00000615,-0.00000672,
 -0.00000170,0.00000684,-0.00000685,-0.00000423,-0.00000482,-0.00000053
 ,0.00000770,-0.00000680,0.00002703,-0.00000249,-0.00000153,0.00000170,
 0.00000821,0.00000974,-0.00010878,0.00005903,-0.00081777,-0.00060992,-
 0.00059964,-0.00005622,0.00002705,-0.00001606,-0.00000762,0.02929081,-
 0.09935309,-0.05020128,-0.00025501,-0.00037581,-0.00042459,-0.00422162
 ,0.01547365,0.01218323,-0.02855447,0.08723609,0.00018209,0.00004595,0.
 00059114,0.00080406,-0.00054203,0.00017237,-0.00121210,0.00009199,-0.0
 0010215,0.00051640,-0.00002151,0.00016250,0.00078926,-0.00029873,-0.00
 001093,-0.00031767,-0.00008834,-0.00005551,0.00001962,0.00004173,-0.00
 000372,0.00000481,-0.00003497,-0.00000915,-0.00175861,-0.00351733,-0.0
 0098891,0.01684530,-0.00931884,-0.01423621,0.00128399,0.00042603,0.001
 49803,0.00069833,0.00021856,0.00046973,0.00003311,-0.00052409,-0.00016
 930,0.00010350,0.00005929,-0.00006149,0.00003547,0.00002388,0.00000756
 ,0.00002173,0.00001361,0.00001304,-0.00000400,0.00000444,0.00000629,-0
 .00000118,-0.00001607,0.00000407,-0.00000623,0.00000197,0.00000343,0.0
 0002166,-0.00000482,-0.00000276,0.00000284,0.00001174,0.00000764,-0.00
 044885,0.00026018,-0.00053428,-0.00054026,-0.00055844,-0.00001926,-0.0
 0004431,-0.00003767,-0.00006937,0.07604921,-0.05439344,-0.19720389,-0.
 00039185,-0.00013514,-0.00096428,0.00065272,0.00330674,-0.09013951,-0.
 13325473,0.05254272,0.31389818,0.00066952,0.00013072,-0.00002629,0.001
 32171,0.00016058,-0.00004158,-0.00099542,-0.00197414,-0.00010429,0.000
 06023,0.00128944,0.00009497,0.00009654,0.00035894,0.00002271,-0.000017
 23,-0.00007698,-0.00000523,0.00002103,-0.00000102,-0.00000107,-0.00000
 985,0.00000353,0.00000063,-0.00385693,0.00297812,0.00034057,-0.0086253
 6,-0.00907877,0.00036265,0.00223667,-0.00231691,-0.00017668,-0.0005163
 2,0.00061945,0.00004019,0.00051215,0.00005309,-0.00002044,-0.00000210,
 0.00000362,0.00000122,0.00002236,-0.00001192,0.00002404,0.00002012,-0.
 00000803,-0.00002714,-0.00000475,0.00000827,0.00001337,-0.00000580,0.0
 0000994,-0.00001151,0.00000814,-0.00000435,-0.00001215,-0.00000840,0.0
 0001174,0.00000123,0.00000913,-0.00000605,0.00001074,0.00197870,0.0013
 5460,-0.00000790,-0.00004094,-0.00038080,-0.00003259,0.00019430,0.0000
 6942,-0.00000510,-0.19535789,-0.10860771,-0.00033705,0.00038554,0.0004
 2851,0.00001146,-0.06479125,-0.01765872,-0.03664308,-0.05469727,-0.020
 91760,0.03991571,0.32139336,-0.00244936,0.00134220,0.00015586,0.002524
 80,0.00003121,-0.00010853,-0.00254871,-0.00151763,0.00000383,0.0008650
 5,0.00112854,0.00003738,0.00115380,-0.00011659,-0.00005941,-0.00045270
 ,-0.00019157,0.00000719,0.00004526,0.00005481,0.00000228,-0.00000328,-
 0.00004404,-0.00000266,-0.00091780,-0.00185088,-0.00003803,-0.04406893
 ,-0.02751197,-0.00005430,0.00625445,-0.00774921,-0.00088690,-0.0012241
 9,0.00022243,0.00004734,0.00019882,-0.00081789,-0.00004614,0.00001709,
 0.00009820,0.00000927,0.00005587,0.00001238,0.00001851,0.00005494,0.00
 001567,-0.00002210,-0.00000850,0.00000026,0.00001238,-0.00000962,0.000
 00319,-0.00001188,0.00000473,0.00000617,-0.00001490,0.00002219,0.00000
 460,-0.00000055,0.00000553,0.00000353,0.00001469,0.00009243,-0.0036298
 4,-0.00022127,-0.00093928,-0.00162845,-0.00007007,0.00005607,-0.000077
 64,-0.00000346,-0.09527142,-0.17141978,-0.00144172,-0.00001533,0.00035
 348,0.00004224,-0.00568357,0.01673042,-0.00809396,-0.01132135,0.012669
 69,0.01244259,0.15356302,0.18387873,-0.00017915,0.00009039,0.00022904,
 0.00010957,-0.00001113,0.00005609,-0.00012810,-0.00000596,-0.00006595,
 0.00006037,0.00000727,0.00011818,0.00007372,-0.00002547,0.00001302,-0.
 00003086,-0.00000699,-0.00002781,0.00000200,0.00000390,-0.00000202,0.0
 0000009,-0.00000279,-0.00000513,0.00014064,-0.00028643,0.00008517,-0.0
 0213244,-0.00201989,0.00866181,0.00038588,-0.00048893,0.00157732,-0.00
 004487,-0.00001191,-0.00036930,-0.00004008,-0.00005493,-0.00010616,0.0
 0000068,0.00000767,-0.00001582,0.00000762,0.00000281,0.00000635,-0.000
 00171,-0.00000092,0.00000615,-0.00000116,0.00000541,0.00000356,0.00000
 067,-0.00000645,0.00000218,-0.00000264,-0.00000195,0.00000220,0.000001
 90,-0.00000024,-0.00000048,0.00000273,0.00000270,0.00000326,-0.0001062
 7,-0.00029093,-0.00051272,-0.00006722,-0.00008104,-0.00012432,-0.00000
 805,-0.00000364,-0.00006267,0.00053440,-0.00071010,-0.07152961,-0.0000
 2130,0.00001272,-0.00008029,-0.04555896,-0.01574258,-0.00616574,0.0503
 8992,0.02133707,-0.01226325,-0.00338739,-0.00171766,0.08056696\\0.0000
 0206,-0.00000293,-0.00000089,-0.00000627,0.00000429,0.00000150,-0.0000
 0595,-0.00000593,-0.00000051,-0.00000081,0.00000154,0.00000093,-0.0000
 0659,-0.00000398,-0.00000103,0.00002044,0.00001223,-0.00000048,0.00000
 287,0.00000508,0.00000077,0.00000310,0.00000744,0.00000057,-0.00000271
 ,-0.00000559,0.00000016,-0.00000140,0.00000100,-0.00000125,0.00000178,
 -0.00000815,-0.00000039,-0.00000139,-0.00000768,-0.00000029,0.00000208
 ,-0.00000228,-0.00000036,0.00000200,-0.00000031,-0.00000010,-0.0000002
 3,0.00000505,0.00000224,0.00000049,0.00000441,-0.00000162,0.00000375,0
 .00000565,-0.00000126,0.00000395,0.00000516,0.00000170,0.00000009,0.00
 000837,-0.00000055,0.00000281,0.00000728,0.00000013,0.00000028,0.00000
 786,0.00000176,-0.00000446,-0.00000103,0.00000043,0.00000115,-0.000007
 89,-0.00000081,0.00000283,-0.00000346,-0.00000038,0.00000864,0.0000066
 1,-0.00000102,-0.00000146,-0.00000693,-0.00000091,-0.00000358,-0.00000
 707,0.00000188,-0.00000315,-0.00000583,-0.00000223,-0.00002030,-0.0000
 1290,0.00000201\\\@


 ALL MY ATTEMPTS TO ADAPT THE THEORETICAL FOUNDATIONS OF PHYSICS
 TO THESE NEW NOTIONS FAILED COMPLETELY. IT WAS AS IF THE GROUND HAD
 BEEN PULLED OUT FROM UNDER ONE WITH NO FIRM FOUNDATION TO BE SEEN ANYWHERE,
 UPON WHICH ONE COULD HAVE BUILT.  -- A.EINSTEIN
 Job cpu time:       0 days  4 hours 13 minutes 35.7 seconds.
 File lengths (MBytes):  RWF=    665 Int=      0 D2E=      0 Chk=     22 Scr=      1
 Normal termination of Gaussian 09 at Thu Nov 14 16:49:54 2019.
pbs_rusage has been removed.
Please contact help@nci.org.au if you require this functionality.
