 Entering Gaussian System, Link 0=/apps/gaussian/g09e01/g09/g09
 Initial command:
 /apps/gaussian/g09e01/g09/l1.exe "/jobfs/local/3588884.r-man2/Gau-36436.inp" -scrdir="/jobfs/local/3588884.r-man2/"
 Entering Link 1 = /apps/gaussian/g09e01/g09/l1.exe PID=     36437.
  
 Copyright (c) 1988,1990,1992,1993,1995,1998,2003,2009,2015,
            Gaussian, Inc.  All Rights Reserved.
  
 This is part of the Gaussian(R) 09 program.  It is based on
 the Gaussian(R) 03 system (copyright 2003, Gaussian, Inc.),
 the Gaussian(R) 98 system (copyright 1998, Gaussian, Inc.),
 the Gaussian(R) 94 system (copyright 1995, Gaussian, Inc.),
 the Gaussian 92(TM) system (copyright 1992, Gaussian, Inc.),
 the Gaussian 90(TM) system (copyright 1990, Gaussian, Inc.),
 the Gaussian 88(TM) system (copyright 1988, Gaussian, Inc.),
 the Gaussian 86(TM) system (copyright 1986, Carnegie Mellon
 University), and the Gaussian 82(TM) system (copyright 1983,
 Carnegie Mellon University). Gaussian is a federally registered
 trademark of Gaussian, Inc.
  
 This software contains proprietary and confidential information,
 including trade secrets, belonging to Gaussian, Inc.
  
 This software is provided under written license and may be
 used, copied, transmitted, or stored only in accord with that
 written license.
  
 The following legend is applicable only to US Government
 contracts under FAR:
  
                    RESTRICTED RIGHTS LEGEND
  
 Use, reproduction and disclosure by the US Government is
 subject to restrictions as set forth in subparagraphs (a)
 and (c) of the Commercial Computer Software - Restricted
 Rights clause in FAR 52.227-19.
  
 Gaussian, Inc.
 340 Quinnipiac St., Bldg. 40, Wallingford CT 06492
  
  
 ---------------------------------------------------------------
 Warning -- This program may not be used in any manner that
 competes with the business of Gaussian, Inc. or will provide
 assistance to any competitor of Gaussian, Inc.  The licensee
 of this program is prohibited from giving any competitor of
 Gaussian, Inc. access to this program.  By using this program,
 the user acknowledges that Gaussian, Inc. is engaged in the
 business of creating and licensing software in the field of
 computational chemistry and represents and warrants to the
 licensee that it is not a competitor of Gaussian, Inc. and that
 it will not use this program in any manner prohibited above.
 ---------------------------------------------------------------
  

 Cite this work as:
 Gaussian 09, Revision E.01,
 M. J. Frisch, G. W. Trucks, H. B. Schlegel, G. E. Scuseria, 
 M. A. Robb, J. R. Cheeseman, G. Scalmani, V. Barone, B. Mennucci, 
 G. A. Petersson, H. Nakatsuji, M. Caricato, X. Li, H. P. Hratchian, 
 A. F. Izmaylov, J. Bloino, G. Zheng, J. L. Sonnenberg, M. Hada, 
 M. Ehara, K. Toyota, R. Fukuda, J. Hasegawa, M. Ishida, T. Nakajima, 
 Y. Honda, O. Kitao, H. Nakai, T. Vreven, J. A. Montgomery, Jr., 
 J. E. Peralta, F. Ogliaro, M. Bearpark, J. J. Heyd, E. Brothers, 
 K. N. Kudin, V. N. Staroverov, T. Keith, R. Kobayashi, J. Normand, 
 K. Raghavachari, A. Rendell, J. C. Burant, S. S. Iyengar, J. Tomasi, 
 M. Cossi, N. Rega, J. M. Millam, M. Klene, J. E. Knox, J. B. Cross, 
 V. Bakken, C. Adamo, J. Jaramillo, R. Gomperts, R. E. Stratmann, 
 O. Yazyev, A. J. Austin, R. Cammi, C. Pomelli, J. W. Ochterski, 
 R. L. Martin, K. Morokuma, V. G. Zakrzewski, G. A. Voth, 
 P. Salvador, J. J. Dannenberg, S. Dapprich, A. D. Daniels, 
 O. Farkas, J. B. Foresman, J. V. Ortiz, J. Cioslowski, 
 and D. J. Fox, Gaussian, Inc., Wallingford CT, 2013.
 
 ******************************************
 Gaussian 09:  ES64L-G09RevE.01 30-Nov-2015
                14-Nov-2019 
 ******************************************
 %chk=NM3CA.M062X_6-311pGd_opt_water_GD3.chk
 %mem=196608000
 %nproc=4
 Will use up to    4 processors via shared memory.
 ----------------------------------------------------------------------
 # M062X/6-311+G* SCF=Tight INT(grid=ultrafine) OPT IOP(2/17=4) Empiric
 alDispersion=GD3 SCRF=(SMD,Solvent=h2o) maxdisk=2147483648
 ----------------------------------------------------------------------
 1/14=-1,18=20,19=15,26=4,38=1/1,3;
 2/9=110,12=2,17=4,18=5,40=1/2;
 3/5=4,6=6,7=11,11=2,16=1,25=1,30=1,70=32201,71=1,72=1,74=-55,75=-5,124=31/1,2,3;
 4//1;
 5/5=2,32=2,38=5,53=1/2;
 6/7=2,8=2,9=2,10=2,28=1/1;
 7//1,2,3,16;
 1/14=-1,18=20,19=15,26=4/3(2);
 2/9=110,17=4/2;
 99//99;
 2/9=110,17=4/2;
 3/5=4,6=6,7=11,11=2,16=1,25=1,30=1,70=32205,71=1,72=1,74=-55,75=-5,124=31/1,2,3;
 4/5=5,16=3,69=1/1;
 5/5=2,32=2,38=5,53=1/2;
 7//1,2,3,16;
 1/14=-1,18=20,19=15,26=4/3(-5);
 2/9=110,17=4/2;
 6/7=2,8=2,9=2,10=2,19=2,28=1/1;
 99/9=1/99;
 ----------------------------------
 NM3CA.M062X_6-311pGd_opt_water_GD3
 ----------------------------------
 Symbolic Z-matrix:
 Charge =  0 Multiplicity = 1
 C                    -5.95735   1.28581   0.15704 
 N                    -4.68147   0.72955   0.01213 
 C                    -3.48157   1.37186   0.09501 
 O                    -3.31876   2.56077   0.28485 
 O                    -2.48447   0.49424  -0.06413 
 C                    -1.1479    1.03671   0.00137 
 C                    -0.17894  -0.10667  -0.19469 
 C                     1.25813   0.40082  -0.14395 
 C                    -6.197     2.66086   0.24368 
 C                    -7.50562   3.10145   0.37813 
 C                    -8.59091   2.23408   0.42429 
 C                    -8.32113   0.87823   0.32991 
 C                    -7.03135   0.3918    0.19956 
 H                    -4.6346   -0.27535  -0.10862 
 H                    -1.01327   1.51399   0.97413 
 H                    -1.04037   1.79125  -0.78063 
 H                    -0.37863  -0.58517  -1.15731 
 H                    -0.34491  -0.8552    0.58482 
 H                     1.44311   1.13794  -0.92937 
 H                     1.96553  -0.41854  -0.28114 
 H                     1.47539   0.87321   0.81737 
 H                    -5.38319   3.36692   0.20481 
 Cl                   -9.64587  -0.25533   0.38117 
 H                    -6.85111  -0.67517   0.13171 
 C                    -7.79262   4.57224   0.47085 
 H                    -9.60502   2.6008    0.5284 
 F                    -8.57759   4.99178  -0.53826 
 F                    -8.44392   4.88306   1.60618 
 F                    -6.6863    5.32421   0.43964 
 

 GradGradGradGradGradGradGradGradGradGradGradGradGradGradGradGradGradGrad
 Berny optimization.
 Initialization pass.
                           ----------------------------
                           !    Initial Parameters    !
                           ! (Angstroms and Degrees)  !
 --------------------------                            --------------------------
 ! Name  Definition              Value          Derivative Info.                !
 --------------------------------------------------------------------------------
 ! R1    R(1,2)                  1.3994         estimate D2E/DX2                !
 ! R2    R(1,9)                  1.3985         estimate D2E/DX2                !
 ! R3    R(1,13)                 1.398          estimate D2E/DX2                !
 ! R4    R(2,3)                  1.3635         estimate D2E/DX2                !
 ! R5    R(2,14)                 1.0132         estimate D2E/DX2                !
 ! R6    R(3,4)                  1.2149         estimate D2E/DX2                !
 ! R7    R(3,5)                  1.3378         estimate D2E/DX2                !
 ! R8    R(5,6)                  1.4439         estimate D2E/DX2                !
 ! R9    R(6,7)                  1.5115         estimate D2E/DX2                !
 ! R10   R(6,15)                 1.0919         estimate D2E/DX2                !
 ! R11   R(6,16)                 1.092          estimate D2E/DX2                !
 ! R12   R(7,8)                  1.5249         estimate D2E/DX2                !
 ! R13   R(7,17)                 1.0934         estimate D2E/DX2                !
 ! R14   R(7,18)                 1.0934         estimate D2E/DX2                !
 ! R15   R(8,19)                 1.0929         estimate D2E/DX2                !
 ! R16   R(8,20)                 1.0911         estimate D2E/DX2                !
 ! R17   R(8,21)                 1.0929         estimate D2E/DX2                !
 ! R18   R(9,10)                 1.3873         estimate D2E/DX2                !
 ! R19   R(9,22)                 1.0781         estimate D2E/DX2                !
 ! R20   R(10,11)                1.3901         estimate D2E/DX2                !
 ! R21   R(10,25)                1.5014         estimate D2E/DX2                !
 ! R22   R(11,12)                1.3856         estimate D2E/DX2                !
 ! R23   R(11,26)                1.0834         estimate D2E/DX2                !
 ! R24   R(12,13)                1.3846         estimate D2E/DX2                !
 ! R25   R(12,23)                1.7443         estimate D2E/DX2                !
 ! R26   R(13,24)                1.0842         estimate D2E/DX2                !
 ! R27   R(25,27)                1.3456         estimate D2E/DX2                !
 ! R28   R(25,28)                1.3453         estimate D2E/DX2                !
 ! R29   R(25,29)                1.338          estimate D2E/DX2                !
 ! A1    A(2,1,9)              123.6077         estimate D2E/DX2                !
 ! A2    A(2,1,13)             116.703          estimate D2E/DX2                !
 ! A3    A(9,1,13)             119.6855         estimate D2E/DX2                !
 ! A4    A(1,2,3)              127.502          estimate D2E/DX2                !
 ! A5    A(1,2,14)             116.664          estimate D2E/DX2                !
 ! A6    A(3,2,14)             115.705          estimate D2E/DX2                !
 ! A7    A(2,3,4)              126.0436         estimate D2E/DX2                !
 ! A8    A(2,3,5)              109.8543         estimate D2E/DX2                !
 ! A9    A(4,3,5)              124.1021         estimate D2E/DX2                !
 ! A10   A(3,5,6)              115.9794         estimate D2E/DX2                !
 ! A11   A(5,6,7)              107.6568         estimate D2E/DX2                !
 ! A12   A(5,6,15)             108.5882         estimate D2E/DX2                !
 ! A13   A(5,6,16)             108.5577         estimate D2E/DX2                !
 ! A14   A(7,6,15)             111.5416         estimate D2E/DX2                !
 ! A15   A(7,6,16)             111.5109         estimate D2E/DX2                !
 ! A16   A(15,6,16)            108.8946         estimate D2E/DX2                !
 ! A17   A(6,7,8)              110.3695         estimate D2E/DX2                !
 ! A18   A(6,7,17)             109.1576         estimate D2E/DX2                !
 ! A19   A(6,7,18)             109.1526         estimate D2E/DX2                !
 ! A20   A(8,7,17)             110.3076         estimate D2E/DX2                !
 ! A21   A(8,7,18)             110.3142         estimate D2E/DX2                !
 ! A22   A(17,7,18)            107.4784         estimate D2E/DX2                !
 ! A23   A(7,8,19)             111.1035         estimate D2E/DX2                !
 ! A24   A(7,8,20)             110.9087         estimate D2E/DX2                !
 ! A25   A(7,8,21)             111.1281         estimate D2E/DX2                !
 ! A26   A(19,8,20)            107.8409         estimate D2E/DX2                !
 ! A27   A(19,8,21)            107.8757         estimate D2E/DX2                !
 ! A28   A(20,8,21)            107.8356         estimate D2E/DX2                !
 ! A29   A(1,9,10)             118.6798         estimate D2E/DX2                !
 ! A30   A(1,9,22)             120.8208         estimate D2E/DX2                !
 ! A31   A(10,9,22)            120.4992         estimate D2E/DX2                !
 ! A32   A(9,10,11)            122.7857         estimate D2E/DX2                !
 ! A33   A(9,10,25)            119.8285         estimate D2E/DX2                !
 ! A34   A(11,10,25)           117.3846         estimate D2E/DX2                !
 ! A35   A(10,11,12)           117.1477         estimate D2E/DX2                !
 ! A36   A(10,11,26)           121.5197         estimate D2E/DX2                !
 ! A37   A(12,11,26)           121.3325         estimate D2E/DX2                !
 ! A38   A(11,12,13)           122.1094         estimate D2E/DX2                !
 ! A39   A(11,12,23)           119.08           estimate D2E/DX2                !
 ! A40   A(13,12,23)           118.8104         estimate D2E/DX2                !
 ! A41   A(1,13,12)            119.5907         estimate D2E/DX2                !
 ! A42   A(1,13,24)            119.98           estimate D2E/DX2                !
 ! A43   A(12,13,24)           120.4293         estimate D2E/DX2                !
 ! A44   A(10,25,27)           111.755          estimate D2E/DX2                !
 ! A45   A(10,25,28)           111.7772         estimate D2E/DX2                !
 ! A46   A(10,25,29)           113.0192         estimate D2E/DX2                !
 ! A47   A(27,25,28)           106.1676         estimate D2E/DX2                !
 ! A48   A(27,25,29)           106.8358         estimate D2E/DX2                !
 ! A49   A(28,25,29)           106.8664         estimate D2E/DX2                !
 ! D1    D(9,1,2,3)              8.707          estimate D2E/DX2                !
 ! D2    D(9,1,2,14)          -175.629          estimate D2E/DX2                !
 ! D3    D(13,1,2,3)          -172.0111         estimate D2E/DX2                !
 ! D4    D(13,1,2,14)            3.6529         estimate D2E/DX2                !
 ! D5    D(2,1,9,10)           179.6209         estimate D2E/DX2                !
 ! D6    D(2,1,9,22)            -0.2422         estimate D2E/DX2                !
 ! D7    D(13,1,9,10)            0.3593         estimate D2E/DX2                !
 ! D8    D(13,1,9,22)         -179.5038         estimate D2E/DX2                !
 ! D9    D(2,1,13,12)         -179.4463         estimate D2E/DX2                !
 ! D10   D(2,1,13,24)            0.6229         estimate D2E/DX2                !
 ! D11   D(9,1,13,12)           -0.1347         estimate D2E/DX2                !
 ! D12   D(9,1,13,24)          179.9344         estimate D2E/DX2                !
 ! D13   D(1,2,3,4)             -1.6375         estimate D2E/DX2                !
 ! D14   D(1,2,3,5)            178.3274         estimate D2E/DX2                !
 ! D15   D(14,2,3,4)          -177.3371         estimate D2E/DX2                !
 ! D16   D(14,2,3,5)             2.6278         estimate D2E/DX2                !
 ! D17   D(2,3,5,6)           -179.9508         estimate D2E/DX2                !
 ! D18   D(4,3,5,6)              0.015          estimate D2E/DX2                !
 ! D19   D(3,5,6,7)            179.7755         estimate D2E/DX2                !
 ! D20   D(3,5,6,15)            58.8725         estimate D2E/DX2                !
 ! D21   D(3,5,6,16)           -59.3758         estimate D2E/DX2                !
 ! D22   D(5,6,7,8)            179.6962         estimate D2E/DX2                !
 ! D23   D(5,6,7,17)            58.3033         estimate D2E/DX2                !
 ! D24   D(5,6,7,18)           -58.906          estimate D2E/DX2                !
 ! D25   D(15,6,7,8)           -61.2718         estimate D2E/DX2                !
 ! D26   D(15,6,7,17)          177.3352         estimate D2E/DX2                !
 ! D27   D(15,6,7,18)           60.1259         estimate D2E/DX2                !
 ! D28   D(16,6,7,8)            60.7196         estimate D2E/DX2                !
 ! D29   D(16,6,7,17)          -60.6733         estimate D2E/DX2                !
 ! D30   D(16,6,7,18)         -177.8827         estimate D2E/DX2                !
 ! D31   D(6,7,8,19)           -60.264          estimate D2E/DX2                !
 ! D32   D(6,7,8,20)           179.8027         estimate D2E/DX2                !
 ! D33   D(6,7,8,21)            59.8597         estimate D2E/DX2                !
 ! D34   D(17,7,8,19)           60.4437         estimate D2E/DX2                !
 ! D35   D(17,7,8,20)          -59.4896         estimate D2E/DX2                !
 ! D36   D(17,7,8,21)         -179.4325         estimate D2E/DX2                !
 ! D37   D(18,7,8,19)          179.0303         estimate D2E/DX2                !
 ! D38   D(18,7,8,20)           59.097          estimate D2E/DX2                !
 ! D39   D(18,7,8,21)          -60.846          estimate D2E/DX2                !
 ! D40   D(1,9,10,11)           -0.306          estimate D2E/DX2                !
 ! D41   D(1,9,10,25)         -179.8858         estimate D2E/DX2                !
 ! D42   D(22,9,10,11)         179.5575         estimate D2E/DX2                !
 ! D43   D(22,9,10,25)          -0.0222         estimate D2E/DX2                !
 ! D44   D(9,10,11,12)           0.0184         estimate D2E/DX2                !
 ! D45   D(9,10,11,26)        -179.9123         estimate D2E/DX2                !
 ! D46   D(25,10,11,12)        179.6079         estimate D2E/DX2                !
 ! D47   D(25,10,11,26)         -0.3229         estimate D2E/DX2                !
 ! D48   D(9,10,25,27)         119.1335         estimate D2E/DX2                !
 ! D49   D(9,10,25,28)        -122.0328         estimate D2E/DX2                !
 ! D50   D(9,10,25,29)          -1.4216         estimate D2E/DX2                !
 ! D51   D(11,10,25,27)        -60.4686         estimate D2E/DX2                !
 ! D52   D(11,10,25,28)         58.3651         estimate D2E/DX2                !
 ! D53   D(11,10,25,29)        178.9763         estimate D2E/DX2                !
 ! D54   D(10,11,12,13)          0.2205         estimate D2E/DX2                !
 ! D55   D(10,11,12,23)       -179.9574         estimate D2E/DX2                !
 ! D56   D(26,11,12,13)       -179.8486         estimate D2E/DX2                !
 ! D57   D(26,11,12,23)         -0.0266         estimate D2E/DX2                !
 ! D58   D(11,12,13,1)          -0.1635         estimate D2E/DX2                !
 ! D59   D(11,12,13,24)        179.767          estimate D2E/DX2                !
 ! D60   D(23,12,13,1)        -179.986          estimate D2E/DX2                !
 ! D61   D(23,12,13,24)         -0.0555         estimate D2E/DX2                !
 --------------------------------------------------------------------------------
 Trust Radius=3.00D-01 FncErr=1.00D-07 GrdErr=1.00D-06
 Number of steps in this run=    149 maximum allowed number of steps=    174.
 GradGradGradGradGradGradGradGradGradGradGradGradGradGradGradGradGradGrad

                          Input orientation:                          
 ---------------------------------------------------------------------
 Center     Atomic      Atomic             Coordinates (Angstroms)
 Number     Number       Type             X           Y           Z
 ---------------------------------------------------------------------
      1          6           0       -5.957352    1.285810    0.157036
      2          7           0       -4.681472    0.729548    0.012131
      3          6           0       -3.481567    1.371859    0.095008
      4          8           0       -3.318758    2.560775    0.284854
      5          8           0       -2.484469    0.494243   -0.064129
      6          6           0       -1.147903    1.036712    0.001369
      7          6           0       -0.178940   -0.106670   -0.194687
      8          6           0        1.258132    0.400820   -0.143946
      9          6           0       -6.197000    2.660860    0.243681
     10          6           0       -7.505619    3.101455    0.378129
     11          6           0       -8.590909    2.234083    0.424287
     12          6           0       -8.321128    0.878235    0.329915
     13          6           0       -7.031347    0.391795    0.199557
     14          1           0       -4.634603   -0.275347   -0.108621
     15          1           0       -1.013274    1.513989    0.974127
     16          1           0       -1.040370    1.791249   -0.780635
     17          1           0       -0.378630   -0.585173   -1.157306
     18          1           0       -0.344909   -0.855198    0.584823
     19          1           0        1.443111    1.137943   -0.929373
     20          1           0        1.965530   -0.418543   -0.281143
     21          1           0        1.475393    0.873210    0.817372
     22          1           0       -5.383190    3.366924    0.204810
     23         17           0       -9.645869   -0.255332    0.381172
     24          1           0       -6.851112   -0.675173    0.131705
     25          6           0       -7.792619    4.572245    0.470854
     26          1           0       -9.605022    2.600804    0.528397
     27          9           0       -8.577589    4.991781   -0.538263
     28          9           0       -8.443922    4.883060    1.606185
     29          9           0       -6.686304    5.324207    0.439639
 ---------------------------------------------------------------------
                    Distance matrix (angstroms):
                    1          2          3          4          5
     1  C    0.000000
     2  N    1.399390   0.000000
     3  C    2.478056   1.363526   0.000000
     4  O    2.933266   2.298860   1.214936   0.000000
     5  O    3.568811   2.210884   1.337812   2.255744   0.000000
     6  C    4.818411   3.546911   2.359467   2.667536   1.443943
     7  C    5.954221   4.584193   3.630058   4.147732   2.386127
     8  C    7.275782   5.950741   4.844044   5.079094   3.744617
     9  C    1.398464   2.465847   3.009518   2.880275   4.309508
    10  C    2.396368   3.706171   4.389152   4.222658   5.674954
    11  C    2.811809   4.209180   5.192035   5.284103   6.368218
    12  C    2.404879   3.656527   4.870338   5.277943   5.862535
    13  C    1.398047   2.381411   3.684072   4.300588   4.555670
    14  H    2.063358   1.013209   2.020950   3.151167   2.284146
    15  H    5.016334   3.872526   2.624028   2.624141   2.069365
    16  H    5.031044   3.874701   2.627181   2.630302   2.069064
    17  H    6.029113   4.648712   3.876401   4.541053   2.606670
    18  H    6.022162   4.652438   3.877928   4.539013   2.611484
    19  H    7.481243   6.209970   5.035527   5.116072   4.072945
    20  H    8.115964   6.751797   5.746120   6.092650   4.547831
    21  H    7.473418   6.210961   5.034075   5.110317   4.074453
    22  H    2.159394   2.735925   2.758353   2.217693   4.089891
    23  Cl   4.003813   5.074586   6.381869   6.926187   7.214279
    24  H    2.155203   2.587446   3.942780   4.792946   4.524760
    25  C    3.777214   4.965478   5.382276   4.908771   6.715114
    26  H    3.895204   5.292398   6.260577   6.291107   7.449226
    27  F    4.591656   5.800801   6.282858   5.851719   7.588067
    28  F    4.606872   5.826550   6.263956   5.779812   7.587275
    29  F    4.113379   5.031203   5.100016   4.359000   6.421663
                    6          7          8          9         10
     6  C    0.000000
     7  C    1.511505   0.000000
     8  C    2.492885   1.524892   0.000000
     9  C    5.309421   6.638406   7.799809   0.000000
    10  C    6.695198   8.018754   9.185278   1.387330   0.000000
    11  C    7.550556   8.753483  10.034309   2.438352   1.390079
    12  C    7.182494   8.218301   9.602848   2.774367   2.368562
    13  C    5.922002   6.881814   8.296598   2.418002   2.756642
    14  H    3.727019   4.459685   5.931507   3.344624   4.458974
    15  H    1.091868   2.165358   2.765595   5.359093   6.710127
    16  H    1.091980   2.165062   2.760757   5.328815   6.697672
    17  H    2.136543   1.093378   2.162885   6.808298   8.169624
    18  H    2.136479   1.093378   2.162967   6.835643   8.183740
    19  H    2.754974   2.172527   1.092915   7.878237   9.254443
    20  H    3.448339   2.168753   1.091142   8.739854  10.125596
    21  H    2.752140   2.172843   1.092926   7.898761   9.263724
    22  H    4.838279   6.269743   7.281934   1.078111   2.145977
    23  Cl   8.604015   9.485592  10.936340   4.518604   3.981042
    24  H    5.956016   6.704297   8.184960   3.401399   3.840836
    25  C    7.541397   8.961210   9.984731   2.500200   1.501396
    26  H    8.616670   9.833834  11.104057   3.420422   2.163498
    27  F    8.434099   9.831050  10.861575   3.422256   2.358437
    28  F    8.402483   9.820920  10.829740   3.441402   2.358527
    29  F    7.017734   8.499564   9.364528   2.715002   2.369744
                   11         12         13         14         15
    11  C    0.000000
    12  C    1.385645   0.000000
    13  C    2.424203   1.384613   0.000000
    14  H    4.715250   3.887613   2.506877   0.000000
    15  H    7.631606   7.363690   6.170614   4.181876   0.000000
    16  H    7.658888   7.421344   6.229851   4.200110   1.776737
    17  H    8.825597   8.211983   6.859605   4.394205   3.058146
    18  H    8.807153   8.166385   6.812626   4.383898   2.492252
    19  H   10.184080   9.848534   8.581821   6.293618   3.130263
    20  H   10.907450  10.386066   9.046077   6.603940   3.766119
    21  H   10.165477   9.808643   8.542720   6.285594   2.574613
    22  H    3.408953   3.852364   3.401152   3.731589   4.808470
    23  Cl   2.704068   1.744288   2.699535   5.035185   8.831976
    24  H    3.402391   2.147862   1.084209   2.265067   6.291459
    25  C    2.471121   3.734287   4.257851   5.814465   7.454242
    26  H    1.083397   2.157550   3.407589   5.777811   8.671677
    27  F    2.920887   4.211979   4.908677   6.593509   8.461751
    28  F    2.904405   4.205064   4.913800   6.637818   8.183194
    29  F    3.629962   4.738286   4.950291   5.988745   6.854685
                   16         17         18         19         20
    16  H    0.000000
    17  H    2.495429   0.000000
    18  H    3.058076   1.763254   0.000000
    19  H    2.572278   2.517900   3.076104   0.000000
    20  H    3.764055   2.508090   2.505732   1.765155   0.000000
    21  H    3.118571   3.076302   2.520907   1.766987   1.765105
    22  H    4.723763   6.520740   6.584452   7.270015   8.280676
    23  Cl   8.921485   9.399864   9.322509  11.252743  11.631419
    24  H    6.378112   6.600202   6.524446   8.556133   8.830032
    25  C    7.408982   9.176987   9.216209   9.952576  10.986124
    26  H    8.701850   9.905471   9.884171  11.239497  11.985386
    27  F    8.192180   9.935218  10.159996  10.743345  11.853062
    28  F    8.370709  10.128543   9.978216  10.872367  11.833245
    29  F    6.771073   8.789639   8.855474   9.245885  10.409272
                   21         22         23         24         25
    21  H    0.000000
    22  H    7.323524   0.000000
    23  Cl  11.186883   5.596631   0.000000
    24  H    8.496959   4.301010   2.837106   0.000000
    25  C    9.984937   2.707199   5.171854   5.341989   0.000000
    26  H   11.218007   4.302965   2.860220   4.298071   2.678562
    27  F   10.948188   3.660123   5.433118   5.961874   1.345551
    28  F   10.728183   3.691964   5.417417   5.966999   1.345279
    29  F    9.304158   2.363093   6.316146   6.009538   1.338041
                   26         27         28         29
    26  H    0.000000
    27  F    2.812499   0.000000
    28  F    2.778214   2.151358   0.000000
    29  F    3.992958   2.154938   2.155147   0.000000
 Stoichiometry    C11H11ClF3NO2
 Framework group  C1[X(C11H11ClF3NO2)]
 Deg. of freedom    81
 Full point group                 C1      NOp   1
 Largest Abelian subgroup         C1      NOp   1
 Largest concise Abelian subgroup C1      NOp   1
                         Standard orientation:                         
 ---------------------------------------------------------------------
 Center     Atomic      Atomic             Coordinates (Angstroms)
 Number     Number       Type             X           Y           Z
 ---------------------------------------------------------------------
      1          6           0        0.140545    0.707683   -0.060928
      2          7           0       -1.243803    0.905813   -0.112098
      3          6           0       -2.222052   -0.037457   -0.000416
      4          8           0       -2.050602   -1.232323    0.137308
      5          8           0       -3.424570    0.545352   -0.063844
      6          6           0       -4.561921   -0.337874    0.042535
      7          6           0       -5.810362    0.509622   -0.045753
      8          6           0       -7.054622   -0.366390    0.052815
      9          6           0        0.742151   -0.554754   -0.056124
     10          6           0        2.126580   -0.632382   -0.011224
     11          6           0        2.942835    0.492284    0.023013
     12          6           0        2.316863    1.728419    0.011075
     13          6           0        0.938622    1.855094   -0.028396
     14          1           0       -1.563681    1.864840   -0.179457
     15          1           0       -4.503418   -0.867427    0.995596
     16          1           0       -4.513842   -1.065814   -0.769999
     17          1           0       -5.805968    1.057463   -0.991971
     18          1           0       -5.800786    1.247548    0.761000
     19          1           0       -7.085889   -1.098231   -0.758291
     20          1           0       -7.961595    0.237326   -0.006495
     21          1           0       -7.077625   -0.913016    0.998943
     22          1           0        0.144612   -1.451526   -0.088852
     23         17           0        3.292995    3.173433    0.051568
     24          1           0        0.477269    2.836237   -0.033034
     25          6           0        2.799576   -1.974490   -0.007608
     26          1           0        4.022414    0.407790    0.056452
     27          9           0        3.602854   -2.132468   -1.075454
     28          9           0        3.580054   -2.138535    1.075775
     29          9           0        1.933347   -2.994219   -0.020044
 ---------------------------------------------------------------------
 Rotational constants (GHZ):      0.5299259      0.1581639      0.1247913
 Standard basis: 6-311+G(d) (5D, 7F)
 There are   455 symmetry adapted cartesian basis functions of A   symmetry.
 There are   437 symmetry adapted basis functions of A   symmetry.
   437 basis functions,   720 primitive gaussians,   455 cartesian basis functions
    72 alpha electrons       72 beta electrons
       nuclear repulsion energy      1424.1483136419 Hartrees.
 NAtoms=   29 NActive=   29 NUniq=   29 SFac= 1.00D+00 NAtFMM=   60 NAOKFM=F Big=F
 Integral buffers will be    131072 words long.
 Raffenetti 2 integral format.
 Two-electron integral symmetry is turned on.
 Nuclear repulsion after empirical dispersion term =     1424.1470067858 Hartrees.
 ------------------------------------------------------------------------------
 Polarizable Continuum Model (PCM)
 =================================
 Model                : PCM (using non-symmetric T matrix).
 Atomic radii         : SMD-Coulomb.
 Polarization charges : Total charges.
 Charge compensation  : None.
 Solution method      : On-the-fly selection.
 Cavity type          : VdW (van der Waals Surface) (Alpha=1.000).
 Cavity algorithm     : GePol (No added spheres)
                        Default sphere list used, NSphG=   29.
                        Lebedev-Laikov grids with approx.  5.0 points / Ang**2.
                        Smoothing algorithm: York/Karplus (Gamma=1.0000).
                        Polarization charges: spherical gaussians, with
                                              point-specific exponents (IZeta= 3).
                        Self-potential: point-specific (ISelfS= 7).
                        Self-field    : sphere-specific E.n sum rule (ISelfD= 2).
 1st derivatives      : Analytical E(r).r(x)/FMM algorithm (CHGder, D1EAlg=3).
                        Cavity 1st derivative terms included.
 Solvent              : Water, Eps=  78.355300 Eps(inf)=   1.777849
 ------------------------------------------------------------------------------
 ------------------------------------------------------------------------------
 Atomic radii for non-electrostatic terms: SMD-CDS.
 ------------------------------------------------------------------------------
 Nuclear repulsion after PCM non-electrostatic terms =     1424.1598861390 Hartrees.
 One-electron integrals computed using PRISM.
 NBasis=   437 RedAO= T EigKep=  1.30D-06  NBF=   437
 NBsUse=   435 1.00D-06 EigRej=  9.00D-07 NBFU=   435
 ExpMin= 4.38D-02 ExpMax= 1.06D+05 ExpMxC= 3.62D+03 IAcc=3 IRadAn=         5 AccDes= 0.00D+00
 Harris functional with IExCor= 1009 and IRadAn=       5 diagonalized for initial guess.
 HarFok:  IExCor= 1009 AccDes= 0.00D+00 IRadAn=         5 IDoV= 1 UseB2=F ITyADJ=14
 ICtDFT=  3500011 ScaDFX=  1.000000  1.000000  1.000000  1.000000
 FoFCou: FMM=F IPFlag=           0 FMFlag=      100000 FMFlg1=           0
         NFxFlg=           0 DoJE=T BraDBF=F KetDBF=T FulRan=T
         wScrn=  0.000000 ICntrl=     500 IOpCl=  0 I1Cent=   200000004 NGrid=           0
         NMat0=    1 NMatS0=      1 NMatT0=    0 NMatD0=    1 NMtDS0=    0 NMtDT0=    0
 Petite list used in FoFCou.
 Requested convergence on RMS density matrix=1.00D-08 within 128 cycles.
 Requested convergence on MAX density matrix=1.00D-06.
 Requested convergence on             energy=1.00D-06.
 No special actions if energy rises.
 Inv3:  Mode=1 IEnd=    16864923.
 Iteration    1 A*A^-1 deviation from unit magnitude is 6.77D-15 for   2365.
 Iteration    1 A*A^-1 deviation from orthogonality  is 4.97D-15 for   1394    591.
 Iteration    1 A^-1*A deviation from unit magnitude is 6.22D-15 for   2365.
 Iteration    1 A^-1*A deviation from orthogonality  is 2.10D-11 for   1574   1570.
 Error on total polarization charges =  0.04222
 SCF Done:  E(RM062X) =  -1390.68387778     A.U. after   15 cycles
            NFock= 15  Conv=0.41D-08     -V/T= 2.0028
 SMD-CDS (non-electrostatic) energy       (kcal/mol) =       8.08
 (included in total energy above)

 **********************************************************************

            Population analysis using the SCF density.

 **********************************************************************

 Orbital symmetries:
       Occupied  (A) (A) (A) (A) (A) (A) (A) (A) (A) (A) (A) (A)
                 (A) (A) (A) (A) (A) (A) (A) (A) (A) (A) (A) (A)
                 (A) (A) (A) (A) (A) (A) (A) (A) (A) (A) (A) (A)
                 (A) (A) (A) (A) (A) (A) (A) (A) (A) (A) (A) (A)
                 (A) (A) (A) (A) (A) (A) (A) (A) (A) (A) (A) (A)
                 (A) (A) (A) (A) (A) (A) (A) (A) (A) (A) (A) (A)
       Virtual   (A) (A) (A) (A) (A) (A) (A) (A) (A) (A) (A) (A)
                 (A) (A) (A) (A) (A) (A) (A) (A) (A) (A) (A) (A)
                 (A) (A) (A) (A) (A) (A) (A) (A) (A) (A) (A) (A)
                 (A) (A) (A) (A) (A) (A) (A) (A) (A) (A) (A) (A)
                 (A) (A) (A) (A) (A) (A) (A) (A) (A) (A) (A) (A)
                 (A) (A) (A) (A) (A) (A) (A) (A) (A) (A) (A) (A)
                 (A) (A) (A) (A) (A) (A) (A) (A) (A) (A) (A) (A)
                 (A) (A) (A) (A) (A) (A) (A) (A) (A) (A) (A) (A)
                 (A) (A) (A) (A) (A) (A) (A) (A) (A) (A) (A) (A)
                 (A) (A) (A) (A) (A) (A) (A) (A) (A) (A) (A) (A)
                 (A) (A) (A) (A) (A) (A) (A) (A) (A) (A) (A) (A)
                 (A) (A) (A) (A) (A) (A) (A) (A) (A) (A) (A) (A)
                 (A) (A) (A) (A) (A) (A) (A) (A) (A) (A) (A) (A)
                 (A) (A) (A) (A) (A) (A) (A) (A) (A) (A) (A) (A)
                 (A) (A) (A) (A) (A) (A) (A) (A) (A) (A) (A) (A)
                 (A) (A) (A) (A) (A) (A) (A) (A) (A) (A) (A) (A)
                 (A) (A) (A) (A) (A) (A) (A) (A) (A) (A) (A) (A)
                 (A) (A) (A) (A) (A) (A) (A) (A) (A) (A) (A) (A)
                 (A) (A) (A) (A) (A) (A) (A) (A) (A) (A) (A) (A)
                 (A) (A) (A) (A) (A) (A) (A) (A) (A) (A) (A) (A)
                 (A) (A) (A) (A) (A) (A) (A) (A) (A) (A) (A) (A)
                 (A) (A) (A) (A) (A) (A) (A) (A) (A) (A) (A) (A)
                 (A) (A) (A) (A) (A) (A) (A) (A) (A) (A) (A) (A)
                 (A) (A) (A) (A) (A) (A) (A) (A) (A) (A) (A) (A)
                 (A) (A) (A) (A) (A) (A) (A) (A) (A) (A) (A) (A)
                 (A) (A) (A) (A) (A) (A) (A) (A) (A) (A) (A) (A)
                 (A) (A) (A) (A) (A) (A) (A) (A) (A) (A) (A) (A)
                 (A) (A) (A) (A) (A) (A) (A) (A) (A) (A) (A) (A)
                 (A) (A) (A) (A) (A) (A) (A) (A) (A) (A) (A) (A)
                 (A) (A) (A) (A) (A) (A) (A) (A) (A) (A) (A) (A)
                 (A) (A) (A)
 The electronic state is 1-A.
 Alpha  occ. eigenvalues -- -102.68774 -25.28808 -25.28414 -25.28399 -19.67650
 Alpha  occ. eigenvalues --  -19.62132 -14.80123 -10.81142 -10.71724 -10.62527
 Alpha  occ. eigenvalues --  -10.62105 -10.59019 -10.58752 -10.56991 -10.56986
 Alpha  occ. eigenvalues --  -10.56656 -10.53076 -10.51908  -9.83044  -7.55554
 Alpha  occ. eigenvalues --   -7.54886  -7.54870  -1.47949  -1.38650  -1.38195
 Alpha  occ. eigenvalues --   -1.25728  -1.15801  -1.07898  -1.01464  -0.96223
 Alpha  occ. eigenvalues --   -0.90745  -0.88653  -0.85339  -0.82346  -0.79748
 Alpha  occ. eigenvalues --   -0.74623  -0.73858  -0.70539  -0.70276  -0.67796
 Alpha  occ. eigenvalues --   -0.67281  -0.66647  -0.63745  -0.60018  -0.59411
 Alpha  occ. eigenvalues --   -0.59318  -0.58520  -0.58479  -0.56510  -0.54962
 Alpha  occ. eigenvalues --   -0.54254  -0.53681  -0.53438  -0.52217  -0.51815
 Alpha  occ. eigenvalues --   -0.50944  -0.49634  -0.49564  -0.46908  -0.46329
 Alpha  occ. eigenvalues --   -0.45296  -0.44417  -0.43162  -0.42716  -0.40146
 Alpha  occ. eigenvalues --   -0.40130  -0.39364  -0.39195  -0.38101  -0.38017
 Alpha  occ. eigenvalues --   -0.32448  -0.29536
 Alpha virt. eigenvalues --   -0.01490  -0.00226   0.00989   0.02321   0.02704
 Alpha virt. eigenvalues --    0.03193   0.03597   0.03785   0.04683   0.04918
 Alpha virt. eigenvalues --    0.05152   0.05364   0.06014   0.06663   0.07122
 Alpha virt. eigenvalues --    0.07254   0.07803   0.08121   0.08223   0.09003
 Alpha virt. eigenvalues --    0.09253   0.09989   0.10258   0.10481   0.11433
 Alpha virt. eigenvalues --    0.11861   0.12156   0.12454   0.13279   0.13636
 Alpha virt. eigenvalues --    0.13821   0.14256   0.14482   0.15429   0.16071
 Alpha virt. eigenvalues --    0.16646   0.17443   0.17520   0.18021   0.18217
 Alpha virt. eigenvalues --    0.18665   0.19730   0.20201   0.20702   0.21012
 Alpha virt. eigenvalues --    0.21310   0.21432   0.21706   0.22446   0.22659
 Alpha virt. eigenvalues --    0.23114   0.23554   0.23976   0.24394   0.24487
 Alpha virt. eigenvalues --    0.24746   0.25043   0.25841   0.26210   0.26720
 Alpha virt. eigenvalues --    0.27049   0.27264   0.27787   0.28096   0.28452
 Alpha virt. eigenvalues --    0.28859   0.29257   0.29698   0.29929   0.30255
 Alpha virt. eigenvalues --    0.30751   0.31124   0.31635   0.32050   0.32713
 Alpha virt. eigenvalues --    0.33504   0.33583   0.34715   0.35109   0.35441
 Alpha virt. eigenvalues --    0.35651   0.36629   0.36891   0.37499   0.38434
 Alpha virt. eigenvalues --    0.38695   0.39468   0.39892   0.40373   0.41648
 Alpha virt. eigenvalues --    0.42585   0.42811   0.43763   0.44636   0.45209
 Alpha virt. eigenvalues --    0.45308   0.46256   0.47276   0.48059   0.48522
 Alpha virt. eigenvalues --    0.48894   0.49730   0.50098   0.51007   0.51728
 Alpha virt. eigenvalues --    0.52234   0.55002   0.55579   0.56236   0.57430
 Alpha virt. eigenvalues --    0.59025   0.59701   0.60155   0.61455   0.62601
 Alpha virt. eigenvalues --    0.62891   0.63928   0.64280   0.64688   0.65370
 Alpha virt. eigenvalues --    0.66171   0.68704   0.68881   0.69168   0.69759
 Alpha virt. eigenvalues --    0.70012   0.70345   0.71241   0.72561   0.73057
 Alpha virt. eigenvalues --    0.73394   0.73941   0.74456   0.75299   0.75935
 Alpha virt. eigenvalues --    0.77023   0.78014   0.78558   0.79058   0.79880
 Alpha virt. eigenvalues --    0.81267   0.81845   0.84241   0.85582   0.88062
 Alpha virt. eigenvalues --    0.89236   0.90049   0.90824   0.91800   0.92691
 Alpha virt. eigenvalues --    0.93438   0.93901   0.94458   0.97834   0.98404
 Alpha virt. eigenvalues --    0.98875   0.99443   1.00745   1.03136   1.04386
 Alpha virt. eigenvalues --    1.04762   1.05665   1.06047   1.08688   1.10144
 Alpha virt. eigenvalues --    1.10757   1.11988   1.12483   1.13937   1.15976
 Alpha virt. eigenvalues --    1.19176   1.19973   1.21383   1.22476   1.22658
 Alpha virt. eigenvalues --    1.23808   1.24002   1.27108   1.30082   1.30398
 Alpha virt. eigenvalues --    1.32311   1.33842   1.36383   1.37907   1.38834
 Alpha virt. eigenvalues --    1.41352   1.43527   1.44396   1.45961   1.46168
 Alpha virt. eigenvalues --    1.47384   1.49281   1.50570   1.50641   1.51678
 Alpha virt. eigenvalues --    1.52957   1.53426   1.55494   1.57265   1.58070
 Alpha virt. eigenvalues --    1.59274   1.59614   1.60567   1.62272   1.62885
 Alpha virt. eigenvalues --    1.63685   1.64096   1.64365   1.68564   1.71418
 Alpha virt. eigenvalues --    1.73937   1.74236   1.77007   1.79242   1.79611
 Alpha virt. eigenvalues --    1.79771   1.80240   1.82466   1.85165   1.86054
 Alpha virt. eigenvalues --    1.86388   1.87054   1.89278   1.89363   1.90593
 Alpha virt. eigenvalues --    1.94667   1.95977   1.97705   1.97952   1.99883
 Alpha virt. eigenvalues --    2.03256   2.06066   2.07508   2.09678   2.10392
 Alpha virt. eigenvalues --    2.11921   2.17231   2.19273   2.19686   2.22510
 Alpha virt. eigenvalues --    2.24854   2.30036   2.32387   2.33232   2.35816
 Alpha virt. eigenvalues --    2.36758   2.42309   2.44990   2.47025   2.51454
 Alpha virt. eigenvalues --    2.53027   2.54808   2.56237   2.57345   2.60459
 Alpha virt. eigenvalues --    2.60939   2.62421   2.65909   2.66380   2.70341
 Alpha virt. eigenvalues --    2.70817   2.74573   2.75720   2.81245   2.82092
 Alpha virt. eigenvalues --    2.82690   2.85954   2.90911   2.92938   2.94262
 Alpha virt. eigenvalues --    2.96426   3.01050   3.01371   3.02250   3.04410
 Alpha virt. eigenvalues --    3.04524   3.07694   3.10537   3.11532   3.12601
 Alpha virt. eigenvalues --    3.19202   3.19256   3.22092   3.23844   3.26054
 Alpha virt. eigenvalues --    3.30175   3.30304   3.30957   3.34352   3.36596
 Alpha virt. eigenvalues --    3.39481   3.41301   3.42984   3.45847   3.51522
 Alpha virt. eigenvalues --    3.54859   3.66589   3.70433   3.73911   3.76703
 Alpha virt. eigenvalues --    3.79669   3.82159   3.83408   3.83691   3.85950
 Alpha virt. eigenvalues --    3.86421   3.87693   3.90697   3.96438   3.98230
 Alpha virt. eigenvalues --    3.99862   4.00988   4.02660   4.07882   4.10627
 Alpha virt. eigenvalues --    4.11439   4.18743   4.22161   4.26743   4.30526
 Alpha virt. eigenvalues --    4.56691   4.76109   4.79533   4.97106   5.01223
 Alpha virt. eigenvalues --    5.08898   5.10470   5.15903   5.36481   5.49460
 Alpha virt. eigenvalues --    5.79986   5.95892   6.44265   6.47908   6.49194
 Alpha virt. eigenvalues --    6.52183   6.53039   6.57270   6.62377   6.85931
 Alpha virt. eigenvalues --    6.91019   9.96839  23.44858  23.58071  23.64989
 Alpha virt. eigenvalues --   23.73067  23.82946  23.91558  23.92447  23.96900
 Alpha virt. eigenvalues --   24.09410  24.11449  24.19994  25.93149  26.22399
 Alpha virt. eigenvalues --   26.73489  35.66558  50.01910  50.12816  66.87646
 Alpha virt. eigenvalues --   66.90955  66.96439 216.07041
          Condensed to atoms (all electrons):
               1          2          3          4          5          6
     1  C   23.949136  -0.592577  -0.664963  -0.132016  -0.205432  -0.486335
     2  N   -0.592577   7.508911   0.318993  -0.045535  -0.147823  -0.225325
     3  C   -0.664963   0.318993   7.724097   0.517637   0.321003  -0.492200
     4  O   -0.132016  -0.045535   0.517637   8.187154  -0.181569  -0.163107
     5  O   -0.205432  -0.147823   0.321003  -0.181569   8.282298   0.247095
     6  C   -0.486335  -0.225325  -0.492200  -0.163107   0.247095   7.882555
     7  C   -0.047338   0.018991   0.065577   0.029360  -0.151168  -0.855676
     8  C   -0.011663  -0.005647  -0.223102   0.000290   0.030322   0.285104
     9  C   -1.827405   0.266102  -0.427241   0.242415  -0.064803  -0.240300
    10  C   -5.086881   0.220327  -0.343852   0.042486   0.009867  -0.032196
    11  C   -6.873267   0.079745  -0.005400  -0.029980  -0.005564  -0.003742
    12  C    2.104099  -0.034062  -0.877477   0.011924   0.007544  -0.091103
    13  C   -0.920155  -0.148329   0.010216  -0.062165   0.011623  -0.035397
    14  H   -0.014504   0.268271  -0.017255   0.000195   0.012535  -0.005783
    15  H    0.005922   0.004411   0.036032  -0.000631  -0.040783   0.354167
    16  H    0.002805   0.003693   0.023106  -0.001020  -0.041747   0.370120
    17  H    0.000149  -0.000808   0.007103  -0.000281   0.001543  -0.064387
    18  H   -0.000648  -0.000642   0.002480  -0.000291   0.001621  -0.065876
    19  H   -0.000196  -0.000018  -0.002585  -0.000060  -0.000324  -0.049803
    20  H    0.000123   0.000033   0.007930   0.000029  -0.000653   0.091209
    21  H   -0.000079  -0.000053  -0.001525  -0.000074  -0.000324  -0.048642
    22  H    0.087289  -0.023155   0.065850   0.003640   0.001526   0.006377
    23  Cl   0.271468  -0.012331  -0.049614   0.000171   0.000030  -0.002147
    24  H    0.022371  -0.016501  -0.013497   0.000090  -0.000610  -0.001138
    25  C   -2.509455   0.047335  -0.102268   0.004380   0.003771  -0.013271
    26  H    0.032276   0.000590   0.002602  -0.000003   0.000002   0.000026
    27  F    0.011098   0.000480  -0.001489   0.000031  -0.000001  -0.000036
    28  F    0.037110   0.000347   0.000739   0.000031  -0.000002   0.000000
    29  F    0.190673  -0.000482   0.009817  -0.000060  -0.000012   0.000285
               7          8          9         10         11         12
     1  C   -0.047338  -0.011663  -1.827405  -5.086881  -6.873267   2.104099
     2  N    0.018991  -0.005647   0.266102   0.220327   0.079745  -0.034062
     3  C    0.065577  -0.223102  -0.427241  -0.343852  -0.005400  -0.877477
     4  O    0.029360   0.000290   0.242415   0.042486  -0.029980   0.011924
     5  O   -0.151168   0.030322  -0.064803   0.009867  -0.005564   0.007544
     6  C   -0.855676   0.285104  -0.240300  -0.032196  -0.003742  -0.091103
     7  C    6.503638  -0.146577  -0.007692  -0.007288   0.002855  -0.003094
     8  C   -0.146577   6.124536  -0.011339  -0.000763  -0.000005  -0.000749
     9  C   -0.007692  -0.011339  13.795544   3.971946  -4.438570  -0.075100
    10  C   -0.007288  -0.000763   3.971946  22.504506 -10.129532   4.608818
    11  C    0.002855  -0.000005  -4.438570 -10.129532  31.162055 -13.142682
    12  C   -0.003094  -0.000749  -0.075100   4.608818 -13.142682  21.784948
    13  C    0.019200  -0.000153  -4.118868  -4.178645   4.340286  -3.402812
    14  H   -0.001846  -0.000430   0.038575   0.021332  -0.017501   0.017415
    15  H   -0.021103  -0.016707   0.000267  -0.000025   0.000065   0.000090
    16  H   -0.022347  -0.013139  -0.001391   0.000071   0.000141  -0.000075
    17  H    0.443560  -0.046047   0.000591   0.000043  -0.000002  -0.000007
    18  H    0.449189  -0.044806   0.000021  -0.000007   0.000006   0.000013
    19  H    0.014921   0.381523   0.000031  -0.000001   0.000000  -0.000001
    20  H   -0.132602   0.383828   0.000034   0.000000  -0.000000   0.000000
    21  H    0.011136   0.382984  -0.000001  -0.000001   0.000000  -0.000000
    22  H   -0.000375   0.000032   0.263094  -0.148000   0.016831  -0.021256
    23  Cl  -0.000054  -0.000005   0.169901   0.244740  -0.571372  -0.564826
    24  H    0.000015  -0.000002  -0.044494   0.028511  -0.016547   0.061886
    25  C   -0.000806  -0.000196  -1.480589  -5.153922   5.443065  -4.800896
    26  H   -0.000000   0.000000  -0.012990   0.037960   0.131393   0.108758
    27  F    0.000000  -0.000000   0.033452   0.218268  -0.305424   0.049880
    28  F    0.000000  -0.000000   0.059741   0.197292  -0.330370   0.071470
    29  F    0.000014   0.000000   0.037307  -0.248006   0.061615   0.040915
              13         14         15         16         17         18
     1  C   -0.920155  -0.014504   0.005922   0.002805   0.000149  -0.000648
     2  N   -0.148329   0.268271   0.004411   0.003693  -0.000808  -0.000642
     3  C    0.010216  -0.017255   0.036032   0.023106   0.007103   0.002480
     4  O   -0.062165   0.000195  -0.000631  -0.001020  -0.000281  -0.000291
     5  O    0.011623   0.012535  -0.040783  -0.041747   0.001543   0.001621
     6  C   -0.035397  -0.005783   0.354167   0.370120  -0.064387  -0.065876
     7  C    0.019200  -0.001846  -0.021103  -0.022347   0.443560   0.449189
     8  C   -0.000153  -0.000430  -0.016707  -0.013139  -0.046047  -0.044806
     9  C   -4.118868   0.038575   0.000267  -0.001391   0.000591   0.000021
    10  C   -4.178645   0.021332  -0.000025   0.000071   0.000043  -0.000007
    11  C    4.340286  -0.017501   0.000065   0.000141  -0.000002   0.000006
    12  C   -3.402812   0.017415   0.000090  -0.000075  -0.000007   0.000013
    13  C   13.719536  -0.038007   0.000347   0.000926  -0.000219   0.000289
    14  H   -0.038007   0.246242  -0.000018  -0.000028   0.000015  -0.000019
    15  H    0.000347  -0.000018   0.426710  -0.038676   0.004972  -0.007586
    16  H    0.000926  -0.000028  -0.038676   0.426897  -0.007453   0.005008
    17  H   -0.000219   0.000015   0.004972  -0.007453   0.431620  -0.036261
    18  H    0.000289  -0.000019  -0.007586   0.005008  -0.036261   0.431560
    19  H    0.000008  -0.000000  -0.000336   0.003181  -0.007651   0.005713
    20  H   -0.000010  -0.000000  -0.000161  -0.000140  -0.003120  -0.003105
    21  H    0.000002  -0.000000   0.003178  -0.000375   0.005701  -0.007527
    22  H    0.033620  -0.000039  -0.000002  -0.000028  -0.000000  -0.000000
    23  Cl  -0.255527   0.000832   0.000000   0.000000   0.000000   0.000000
    24  H    0.305786   0.003381  -0.000000  -0.000000  -0.000000  -0.000000
    25  C    1.139427   0.001323   0.000013  -0.000026   0.000002  -0.000000
    26  H   -0.011327   0.000002  -0.000000  -0.000000   0.000000   0.000000
    27  F   -0.016849   0.000001   0.000000   0.000000   0.000000   0.000000
    28  F   -0.017524   0.000001   0.000000  -0.000000  -0.000000  -0.000000
    29  F   -0.001469   0.000003   0.000000   0.000000   0.000000   0.000000
              19         20         21         22         23         24
     1  C   -0.000196   0.000123  -0.000079   0.087289   0.271468   0.022371
     2  N   -0.000018   0.000033  -0.000053  -0.023155  -0.012331  -0.016501
     3  C   -0.002585   0.007930  -0.001525   0.065850  -0.049614  -0.013497
     4  O   -0.000060   0.000029  -0.000074   0.003640   0.000171   0.000090
     5  O   -0.000324  -0.000653  -0.000324   0.001526   0.000030  -0.000610
     6  C   -0.049803   0.091209  -0.048642   0.006377  -0.002147  -0.001138
     7  C    0.014921  -0.132602   0.011136  -0.000375  -0.000054   0.000015
     8  C    0.381523   0.383828   0.382984   0.000032  -0.000005  -0.000002
     9  C    0.000031   0.000034  -0.000001   0.263094   0.169901  -0.044494
    10  C   -0.000001   0.000000  -0.000001  -0.148000   0.244740   0.028511
    11  C    0.000000  -0.000000   0.000000   0.016831  -0.571372  -0.016547
    12  C   -0.000001   0.000000  -0.000000  -0.021256  -0.564826   0.061886
    13  C    0.000008  -0.000010   0.000002   0.033620  -0.255527   0.305786
    14  H   -0.000000  -0.000000  -0.000000  -0.000039   0.000832   0.003381
    15  H   -0.000336  -0.000161   0.003178  -0.000002   0.000000  -0.000000
    16  H    0.003181  -0.000140  -0.000375  -0.000028   0.000000  -0.000000
    17  H   -0.007651  -0.003120   0.005701  -0.000000   0.000000  -0.000000
    18  H    0.005713  -0.003105  -0.007527  -0.000000   0.000000  -0.000000
    19  H    0.443635  -0.024012  -0.036281  -0.000000  -0.000000  -0.000000
    20  H   -0.024012   0.420717  -0.024120   0.000000  -0.000000   0.000000
    21  H   -0.036281  -0.024120   0.443667  -0.000000  -0.000000  -0.000000
    22  H   -0.000000   0.000000  -0.000000   0.338933   0.000227  -0.000013
    23  Cl  -0.000000  -0.000000  -0.000000   0.000227  17.544990  -0.006567
    24  H   -0.000000   0.000000  -0.000000  -0.000013  -0.006567   0.352626
    25  C   -0.000000   0.000000  -0.000000   0.032419  -0.151968   0.003475
    26  H    0.000000  -0.000000   0.000000  -0.000140  -0.017145  -0.000160
    27  F   -0.000000   0.000000  -0.000000  -0.000089  -0.000334  -0.000002
    28  F   -0.000000   0.000000  -0.000000   0.000075  -0.000530  -0.000002
    29  F    0.000000   0.000000   0.000000   0.010748  -0.000131   0.000000
              25         26         27         28         29
     1  C   -2.509455   0.032276   0.011098   0.037110   0.190673
     2  N    0.047335   0.000590   0.000480   0.000347  -0.000482
     3  C   -0.102268   0.002602  -0.001489   0.000739   0.009817
     4  O    0.004380  -0.000003   0.000031   0.000031  -0.000060
     5  O    0.003771   0.000002  -0.000001  -0.000002  -0.000012
     6  C   -0.013271   0.000026  -0.000036   0.000000   0.000285
     7  C   -0.000806  -0.000000   0.000000   0.000000   0.000014
     8  C   -0.000196   0.000000  -0.000000  -0.000000   0.000000
     9  C   -1.480589  -0.012990   0.033452   0.059741   0.037307
    10  C   -5.153922   0.037960   0.218268   0.197292  -0.248006
    11  C    5.443065   0.131393  -0.305424  -0.330370   0.061615
    12  C   -4.800896   0.108758   0.049880   0.071470   0.040915
    13  C    1.139427  -0.011327  -0.016849  -0.017524  -0.001469
    14  H    0.001323   0.000002   0.000001   0.000001   0.000003
    15  H    0.000013  -0.000000   0.000000   0.000000   0.000000
    16  H   -0.000026  -0.000000   0.000000  -0.000000   0.000000
    17  H    0.000002   0.000000   0.000000  -0.000000   0.000000
    18  H   -0.000000   0.000000   0.000000  -0.000000   0.000000
    19  H   -0.000000   0.000000  -0.000000  -0.000000   0.000000
    20  H    0.000000  -0.000000   0.000000   0.000000   0.000000
    21  H   -0.000000   0.000000  -0.000000  -0.000000   0.000000
    22  H    0.032419  -0.000140  -0.000089   0.000075   0.010748
    23  Cl  -0.151968  -0.017145  -0.000334  -0.000530  -0.000131
    24  H    0.003475  -0.000160  -0.000002  -0.000002   0.000000
    25  C   12.305899   0.039204   0.180536   0.150131   0.073788
    26  H    0.039204   0.348590  -0.000752  -0.000279   0.000293
    27  F    0.180536  -0.000752   8.988442  -0.051872  -0.029821
    28  F    0.150131  -0.000279  -0.051872   8.990390  -0.028364
    29  F    0.073788   0.000293  -0.029821  -0.028364   9.029461
 Mulliken charges:
               1
     1  C   -1.341604
     2  N   -0.484942
     3  C    0.109286
     4  O   -0.423039
     5  O   -0.089966
     6  C   -0.360474
     7  C   -0.160490
     8  C   -1.067291
     9  C   -0.128235
    10  C   -0.777049
    11  C    0.631899
    12  C    0.146380
    13  C   -0.373810
    14  H    0.485305
    15  H    0.289852
    16  H    0.290496
    17  H    0.270937
    18  H    0.270869
    19  H    0.272255
    20  H    0.284020
    21  H    0.272334
    22  H    0.332436
    23  Cl   0.400192
    24  H    0.321393
    25  C    0.788630
    26  H    0.341099
    27  F   -0.075519
    28  F   -0.078386
    29  F   -0.146577
 Sum of Mulliken charges =  -0.00000
 Mulliken charges with hydrogens summed into heavy atoms:
               1
     1  C   -1.341604
     2  N    0.000363
     3  C    0.109286
     4  O   -0.423039
     5  O   -0.089966
     6  C    0.219874
     7  C    0.381316
     8  C   -0.238682
     9  C    0.204201
    10  C   -0.777049
    11  C    0.972998
    12  C    0.146380
    13  C   -0.052416
    23  Cl   0.400192
    25  C    0.788630
    27  F   -0.075519
    28  F   -0.078386
    29  F   -0.146577
 Electronic spatial extent (au):  <R**2>=           8015.9456
 Charge=             -0.0000 electrons
 Dipole moment (field-independent basis, Debye):
    X=             -5.1055    Y=              4.7960    Z=             -0.3668  Tot=              7.0144
 Quadrupole moment (field-independent basis, Debye-Ang):
   XX=            -98.9261   YY=           -116.7797   ZZ=           -113.4908
   XY=             -1.3201   XZ=              0.4453   YZ=              0.3089
 Traceless Quadrupole moment (field-independent basis, Debye-Ang):
   XX=             10.8061   YY=             -7.0475   ZZ=             -3.7586
   XY=             -1.3201   XZ=              0.4453   YZ=              0.3089
 Octapole moment (field-independent basis, Debye-Ang**2):
  XXX=            -99.3701  YYY=             -5.3042  ZZZ=              0.5310  XYY=            -13.5377
  XXY=              0.5639  XXZ=              1.0146  XZZ=             -1.8817  YZZ=            -13.2593
  YYZ=             -2.2070  XYZ=             -1.3590
 Hexadecapole moment (field-independent basis, Debye-Ang**3):
 XXXX=          -7307.6210 YYYY=          -2020.3655 ZZZZ=           -206.0347 XXXY=            -54.2481
 XXXZ=              3.2362 YYYX=           -115.8528 YYYZ=             -0.3858 ZZZX=             -1.3346
 ZZZY=             -0.1878 XXYY=          -1759.9630 XXZZ=          -1373.8250 YYZZ=           -380.0288
 XXYZ=              4.3313 YYXZ=              4.3240 ZZXY=            -25.1367
 N-N= 1.424159886139D+03 E-N=-6.126953005683D+03  KE= 1.386732503185D+03
 D1PCM: PCM CHGder 1st derivatives, ID1Alg=3 FixD1E=F DoIter=F DoCFld=F I1PDM=0.
 Calling FoFJK, ICntrl=      2127 FMM=F ISym2X=0 I1Cent= 0 IOpClX= 0 NMat=1 NMatS=1 NMatT=0.
 ***** Axes restored to original set *****
 -------------------------------------------------------------------
 Center     Atomic                   Forces (Hartrees/Bohr)
 Number     Number              X              Y              Z
 -------------------------------------------------------------------
      1        6           0.000000178    0.000002513    0.000001519
      2        7           0.000001712    0.000003318   -0.000001616
      3        6          -0.000000607   -0.000005038    0.000000425
      4        8           0.000001196   -0.000000640   -0.000000785
      5        8          -0.000006316   -0.000003786    0.000000850
      6        6           0.000001596   -0.000002999    0.000001291
      7        6          -0.000002223   -0.000005966    0.000000522
      8        6          -0.000001798   -0.000008183   -0.000000088
      9        6           0.000001566    0.000001632   -0.000000283
     10        6           0.000001892    0.000006889   -0.000001078
     11        6           0.000002104    0.000005936   -0.000000610
     12        6          -0.000002135    0.000005105    0.000000025
     13        6          -0.000001244    0.000004603   -0.000000381
     14        1          -0.000002841    0.000000090    0.000001039
     15        1          -0.000000471   -0.000004753    0.000000898
     16        1           0.000000391   -0.000003977   -0.000001003
     17        1          -0.000002562   -0.000006264    0.000000039
     18        1          -0.000003663   -0.000005563    0.000001613
     19        1          -0.000000229   -0.000008270    0.000000180
     20        1          -0.000002676   -0.000009725    0.000000943
     21        1          -0.000001314   -0.000008133    0.000001264
     22        1           0.000002228    0.000002113   -0.000000511
     23       17          -0.000002990    0.000007676    0.000000126
     24        1          -0.000003208    0.000003742    0.000000321
     25        6           0.000004384    0.000008128   -0.000000654
     26        1           0.000001438    0.000007864   -0.000000562
     27        9           0.000006223    0.000005647   -0.000000051
     28        9           0.000005841    0.000006071   -0.000003161
     29        9           0.000003529    0.000001971   -0.000000272
 -------------------------------------------------------------------
 Cartesian Forces:  Max     0.000009725 RMS     0.000003693

 GradGradGradGradGradGradGradGradGradGradGradGradGradGradGradGradGradGrad
 Berny optimization.
 FormGI is forming the generalized inverse of G from B-inverse, IUseBI=4.
 GSVD:  received Info=                   1 from GESDD.
 Internal  Forces:  Max     0.000003578 RMS     0.000000732
 Search for a local minimum.
 Step number   1 out of a maximum of  149
 All quantities printed in internal units (Hartrees-Bohrs-Radians)
 Mixed Optimization -- En-DIIS/RFO-DIIS
 Second derivative matrix not updated -- first step.
 ITU=  0
     Eigenvalues ---    0.00437   0.00614   0.00747   0.01110   0.01667
     Eigenvalues ---    0.01700   0.01945   0.01993   0.02132   0.02174
     Eigenvalues ---    0.02179   0.02204   0.02233   0.02252   0.02264
     Eigenvalues ---    0.02284   0.02286   0.02514   0.03896   0.05011
     Eigenvalues ---    0.05442   0.05549   0.05575   0.05749   0.08028
     Eigenvalues ---    0.10517   0.10831   0.11244   0.11946   0.13585
     Eigenvalues ---    0.15981   0.16000   0.16000   0.16000   0.16000
     Eigenvalues ---    0.16000   0.16000   0.21889   0.21984   0.22007
     Eigenvalues ---    0.23486   0.23508   0.23510   0.24998   0.24999
     Eigenvalues ---    0.25000   0.25000   0.25000   0.25000   0.25000
     Eigenvalues ---    0.25000   0.25000   0.29900   0.31047   0.31200
     Eigenvalues ---    0.32231   0.34425   0.34425   0.34477   0.34478
     Eigenvalues ---    0.34585   0.34598   0.34681   0.35491   0.35587
     Eigenvalues ---    0.36224   0.39050   0.42571   0.43083   0.45439
     Eigenvalues ---    0.45722   0.46376   0.46901   0.47804   0.48100
     Eigenvalues ---    0.52241   0.55979   0.56038   0.57646   0.57698
     Eigenvalues ---    0.97663
 RFO step:  Lambda= 0.00000000D+00 EMin= 4.36667969D-03
 Linear search not attempted -- first point.
 Iteration  1 RMS(Cart)=  0.00003724 RMS(Int)=  0.00000000
 Iteration  2 RMS(Cart)=  0.00000000 RMS(Int)=  0.00000000
 Variable       Old X    -DE/DX   Delta X   Delta X   Delta X     New X
                                 (Linear)    (Quad)   (Total)
    R1        2.64446   0.00000   0.00000   0.00000   0.00000   2.64446
    R2        2.64271   0.00000   0.00000   0.00000   0.00000   2.64271
    R3        2.64193   0.00000   0.00000   0.00000   0.00000   2.64193
    R4        2.57669  -0.00000   0.00000  -0.00001  -0.00001   2.57668
    R5        1.91469   0.00000   0.00000   0.00000   0.00000   1.91469
    R6        2.29590   0.00000   0.00000   0.00000   0.00000   2.29590
    R7        2.52810  -0.00000   0.00000  -0.00000  -0.00000   2.52809
    R8        2.72866   0.00000   0.00000   0.00001   0.00001   2.72866
    R9        2.85633   0.00000   0.00000   0.00000   0.00000   2.85633
   R10        2.06333   0.00000   0.00000   0.00000   0.00000   2.06333
   R11        2.06354   0.00000   0.00000   0.00000   0.00000   2.06355
   R12        2.88163   0.00000   0.00000   0.00000   0.00000   2.88163
   R13        2.06619   0.00000   0.00000   0.00000   0.00000   2.06619
   R14        2.06619   0.00000   0.00000   0.00000   0.00000   2.06619
   R15        2.06531   0.00000   0.00000   0.00000   0.00000   2.06531
   R16        2.06196   0.00000   0.00000   0.00000   0.00000   2.06196
   R17        2.06533   0.00000   0.00000   0.00000   0.00000   2.06533
   R18        2.62167   0.00000   0.00000   0.00000   0.00000   2.62167
   R19        2.03733  -0.00000   0.00000  -0.00000  -0.00000   2.03733
   R20        2.62687   0.00000   0.00000   0.00000   0.00000   2.62687
   R21        2.83723   0.00000   0.00000   0.00000   0.00000   2.83723
   R22        2.61849   0.00000   0.00000   0.00000   0.00000   2.61849
   R23        2.04732   0.00000   0.00000   0.00000   0.00000   2.04732
   R24        2.61654   0.00000   0.00000   0.00000   0.00000   2.61654
   R25        3.29623   0.00000   0.00000   0.00000   0.00000   3.29623
   R26        2.04886   0.00000   0.00000   0.00000   0.00000   2.04886
   R27        2.54272  -0.00000   0.00000  -0.00000  -0.00000   2.54272
   R28        2.54221  -0.00000   0.00000  -0.00000  -0.00000   2.54221
   R29        2.52853  -0.00000   0.00000  -0.00000  -0.00000   2.52853
    A1        2.15736   0.00000   0.00000   0.00000   0.00000   2.15736
    A2        2.03685  -0.00000   0.00000  -0.00000  -0.00000   2.03685
    A3        2.08891  -0.00000   0.00000  -0.00000  -0.00000   2.08891
    A4        2.22533   0.00000   0.00000   0.00000   0.00000   2.22533
    A5        2.03617  -0.00000   0.00000  -0.00000  -0.00000   2.03617
    A6        2.01943   0.00000   0.00000   0.00000   0.00000   2.01943
    A7        2.19988  -0.00000   0.00000  -0.00000  -0.00000   2.19987
    A8        1.91732   0.00000   0.00000   0.00000   0.00000   1.91732
    A9        2.16599  -0.00000   0.00000  -0.00000  -0.00000   2.16599
   A10        2.02422  -0.00000   0.00000  -0.00001  -0.00001   2.02421
   A11        1.87897   0.00000   0.00000   0.00000   0.00000   1.87897
   A12        1.89522  -0.00000   0.00000  -0.00001  -0.00001   1.89522
   A13        1.89469  -0.00000   0.00000  -0.00000  -0.00000   1.89469
   A14        1.94677  -0.00000   0.00000  -0.00000  -0.00000   1.94677
   A15        1.94623  -0.00000   0.00000   0.00000   0.00000   1.94623
   A16        1.90057   0.00000   0.00000   0.00000   0.00000   1.90057
   A17        1.92631   0.00000   0.00000   0.00000   0.00000   1.92631
   A18        1.90516   0.00000   0.00000   0.00001   0.00001   1.90517
   A19        1.90507  -0.00000   0.00000  -0.00000  -0.00000   1.90507
   A20        1.92523  -0.00000   0.00000  -0.00000  -0.00000   1.92523
   A21        1.92535  -0.00000   0.00000  -0.00000  -0.00000   1.92534
   A22        1.87585   0.00000   0.00000   0.00000   0.00000   1.87585
   A23        1.93912   0.00000   0.00000   0.00000   0.00000   1.93913
   A24        1.93572  -0.00000   0.00000  -0.00000  -0.00000   1.93572
   A25        1.93955  -0.00000   0.00000  -0.00000  -0.00000   1.93955
   A26        1.88218  -0.00000   0.00000   0.00000   0.00000   1.88218
   A27        1.88279   0.00000   0.00000   0.00000   0.00000   1.88279
   A28        1.88209   0.00000   0.00000   0.00000   0.00000   1.88209
   A29        2.07135   0.00000   0.00000   0.00000   0.00000   2.07136
   A30        2.10872   0.00000   0.00000   0.00000   0.00000   2.10872
   A31        2.10311  -0.00000   0.00000  -0.00001  -0.00001   2.10310
   A32        2.14301  -0.00000   0.00000  -0.00000  -0.00000   2.14301
   A33        2.09140  -0.00000   0.00000  -0.00000  -0.00000   2.09140
   A34        2.04875   0.00000   0.00000   0.00000   0.00000   2.04875
   A35        2.04461   0.00000   0.00000   0.00000   0.00000   2.04462
   A36        2.12092  -0.00000   0.00000  -0.00000  -0.00000   2.12092
   A37        2.11765  -0.00000   0.00000  -0.00000  -0.00000   2.11765
   A38        2.13121  -0.00000   0.00000  -0.00000  -0.00000   2.13121
   A39        2.07834   0.00000   0.00000   0.00000   0.00000   2.07834
   A40        2.07363   0.00000   0.00000   0.00000   0.00000   2.07363
   A41        2.08725   0.00000   0.00000   0.00000   0.00000   2.08725
   A42        2.09405  -0.00000   0.00000  -0.00000  -0.00000   2.09404
   A43        2.10189  -0.00000   0.00000  -0.00000  -0.00000   2.10189
   A44        1.95049   0.00000   0.00000   0.00000   0.00000   1.95049
   A45        1.95088   0.00000   0.00000   0.00000   0.00000   1.95088
   A46        1.97256  -0.00000   0.00000  -0.00000  -0.00000   1.97256
   A47        1.85297   0.00000   0.00000   0.00000   0.00000   1.85297
   A48        1.86464   0.00000   0.00000   0.00000   0.00000   1.86464
   A49        1.86517  -0.00000   0.00000  -0.00000  -0.00000   1.86517
    D1        0.15197  -0.00000   0.00000  -0.00001  -0.00001   0.15195
    D2       -3.06530  -0.00000   0.00000  -0.00003  -0.00003  -3.06533
    D3       -3.00216  -0.00000   0.00000  -0.00003  -0.00003  -3.00219
    D4        0.06376  -0.00000   0.00000  -0.00005  -0.00005   0.06371
    D5        3.13498  -0.00000   0.00000  -0.00002  -0.00002   3.13495
    D6       -0.00423  -0.00000   0.00000  -0.00002  -0.00002  -0.00424
    D7        0.00627  -0.00000   0.00000  -0.00001  -0.00001   0.00626
    D8       -3.13293   0.00000   0.00000   0.00000   0.00000  -3.13293
    D9       -3.13193   0.00000   0.00000   0.00002   0.00002  -3.13191
   D10        0.01087   0.00000   0.00000   0.00002   0.00002   0.01089
   D11       -0.00235   0.00000   0.00000   0.00000   0.00000  -0.00235
   D12        3.14045  -0.00000   0.00000  -0.00000  -0.00000   3.14045
   D13       -0.02858  -0.00000   0.00000  -0.00003  -0.00003  -0.02861
   D14        3.11240  -0.00000   0.00000  -0.00001  -0.00001   3.11240
   D15       -3.09512  -0.00000   0.00000  -0.00002  -0.00002  -3.09513
   D16        0.04586   0.00000   0.00000   0.00001   0.00001   0.04587
   D17       -3.14073  -0.00000   0.00000  -0.00001  -0.00001  -3.14075
   D18        0.00026   0.00000   0.00000   0.00001   0.00001   0.00027
   D19        3.13767   0.00000   0.00000   0.00002   0.00002   3.13769
   D20        1.02752   0.00000   0.00000   0.00002   0.00002   1.02754
   D21       -1.03630   0.00000   0.00000   0.00002   0.00002  -1.03629
   D22        3.13629   0.00000   0.00000   0.00001   0.00001   3.13630
   D23        1.01758   0.00000   0.00000   0.00001   0.00001   1.01759
   D24       -1.02810   0.00000   0.00000   0.00000   0.00000  -1.02810
   D25       -1.06940  -0.00000   0.00000   0.00000   0.00000  -1.06939
   D26        3.09508  -0.00000   0.00000   0.00000   0.00000   3.09509
   D27        1.04940  -0.00000   0.00000  -0.00000  -0.00000   1.04939
   D28        1.05976   0.00000   0.00000   0.00001   0.00001   1.05976
   D29       -1.05895   0.00000   0.00000   0.00001   0.00001  -1.05894
   D30       -3.10464  -0.00000   0.00000   0.00000   0.00000  -3.10464
   D31       -1.05181  -0.00000   0.00000  -0.00001  -0.00001  -1.05181
   D32        3.13815  -0.00000   0.00000  -0.00001  -0.00001   3.13814
   D33        1.04475  -0.00000   0.00000  -0.00001  -0.00001   1.04474
   D34        1.05494   0.00000   0.00000  -0.00000  -0.00000   1.05494
   D35       -1.03829   0.00000   0.00000  -0.00000  -0.00000  -1.03829
   D36       -3.13169   0.00000   0.00000   0.00000   0.00000  -3.13169
   D37        3.12467   0.00000   0.00000   0.00000   0.00000   3.12467
   D38        1.03144  -0.00000   0.00000  -0.00000  -0.00000   1.03143
   D39       -1.06196   0.00000   0.00000   0.00000   0.00000  -1.06196
   D40       -0.00534   0.00000   0.00000   0.00000   0.00000  -0.00534
   D41       -3.13960  -0.00000   0.00000  -0.00000  -0.00000  -3.13960
   D42        3.13387  -0.00000   0.00000  -0.00000  -0.00000   3.13387
   D43       -0.00039  -0.00000   0.00000  -0.00001  -0.00001  -0.00040
   D44        0.00032   0.00000   0.00000   0.00000   0.00000   0.00033
   D45       -3.14006  -0.00000   0.00000  -0.00000  -0.00000  -3.14007
   D46        3.13475   0.00000   0.00000   0.00001   0.00001   3.13476
   D47       -0.00564   0.00000   0.00000   0.00000   0.00000  -0.00563
   D48        2.07927  -0.00000   0.00000  -0.00005  -0.00005   2.07922
   D49       -2.12987  -0.00000   0.00000  -0.00005  -0.00005  -2.12992
   D50       -0.02481  -0.00000   0.00000  -0.00005  -0.00005  -0.02487
   D51       -1.05538  -0.00000   0.00000  -0.00006  -0.00006  -1.05544
   D52        1.01866  -0.00000   0.00000  -0.00006  -0.00006   1.01861
   D53        3.12373  -0.00000   0.00000  -0.00006  -0.00006   3.12366
   D54        0.00385  -0.00000   0.00000  -0.00001  -0.00001   0.00384
   D55       -3.14085  -0.00000   0.00000  -0.00000  -0.00000  -3.14085
   D56       -3.13895   0.00000   0.00000   0.00000   0.00000  -3.13895
   D57       -0.00046   0.00000   0.00000   0.00000   0.00000  -0.00046
   D58       -0.00285   0.00000   0.00000   0.00000   0.00000  -0.00285
   D59        3.13753   0.00000   0.00000   0.00001   0.00001   3.13753
   D60       -3.14135   0.00000   0.00000   0.00000   0.00000  -3.14135
   D61       -0.00097   0.00000   0.00000   0.00001   0.00001  -0.00096
         Item               Value     Threshold  Converged?
 Maximum Force            0.000004     0.000450     YES
 RMS     Force            0.000001     0.000300     YES
 Maximum Displacement     0.000191     0.001800     YES
 RMS     Displacement     0.000037     0.001200     YES
 Predicted change in Energy=-2.564492D-10
 Optimization completed.
    -- Stationary point found.
                           ----------------------------
                           !   Optimized Parameters   !
                           ! (Angstroms and Degrees)  !
 --------------------------                            --------------------------
 ! Name  Definition              Value          Derivative Info.                !
 --------------------------------------------------------------------------------
 ! R1    R(1,2)                  1.3994         -DE/DX =    0.0                 !
 ! R2    R(1,9)                  1.3985         -DE/DX =    0.0                 !
 ! R3    R(1,13)                 1.398          -DE/DX =    0.0                 !
 ! R4    R(2,3)                  1.3635         -DE/DX =    0.0                 !
 ! R5    R(2,14)                 1.0132         -DE/DX =    0.0                 !
 ! R6    R(3,4)                  1.2149         -DE/DX =    0.0                 !
 ! R7    R(3,5)                  1.3378         -DE/DX =    0.0                 !
 ! R8    R(5,6)                  1.4439         -DE/DX =    0.0                 !
 ! R9    R(6,7)                  1.5115         -DE/DX =    0.0                 !
 ! R10   R(6,15)                 1.0919         -DE/DX =    0.0                 !
 ! R11   R(6,16)                 1.092          -DE/DX =    0.0                 !
 ! R12   R(7,8)                  1.5249         -DE/DX =    0.0                 !
 ! R13   R(7,17)                 1.0934         -DE/DX =    0.0                 !
 ! R14   R(7,18)                 1.0934         -DE/DX =    0.0                 !
 ! R15   R(8,19)                 1.0929         -DE/DX =    0.0                 !
 ! R16   R(8,20)                 1.0911         -DE/DX =    0.0                 !
 ! R17   R(8,21)                 1.0929         -DE/DX =    0.0                 !
 ! R18   R(9,10)                 1.3873         -DE/DX =    0.0                 !
 ! R19   R(9,22)                 1.0781         -DE/DX =    0.0                 !
 ! R20   R(10,11)                1.3901         -DE/DX =    0.0                 !
 ! R21   R(10,25)                1.5014         -DE/DX =    0.0                 !
 ! R22   R(11,12)                1.3856         -DE/DX =    0.0                 !
 ! R23   R(11,26)                1.0834         -DE/DX =    0.0                 !
 ! R24   R(12,13)                1.3846         -DE/DX =    0.0                 !
 ! R25   R(12,23)                1.7443         -DE/DX =    0.0                 !
 ! R26   R(13,24)                1.0842         -DE/DX =    0.0                 !
 ! R27   R(25,27)                1.3456         -DE/DX =    0.0                 !
 ! R28   R(25,28)                1.3453         -DE/DX =    0.0                 !
 ! R29   R(25,29)                1.338          -DE/DX =    0.0                 !
 ! A1    A(2,1,9)              123.6077         -DE/DX =    0.0                 !
 ! A2    A(2,1,13)             116.703          -DE/DX =    0.0                 !
 ! A3    A(9,1,13)             119.6855         -DE/DX =    0.0                 !
 ! A4    A(1,2,3)              127.502          -DE/DX =    0.0                 !
 ! A5    A(1,2,14)             116.664          -DE/DX =    0.0                 !
 ! A6    A(3,2,14)             115.705          -DE/DX =    0.0                 !
 ! A7    A(2,3,4)              126.0436         -DE/DX =    0.0                 !
 ! A8    A(2,3,5)              109.8543         -DE/DX =    0.0                 !
 ! A9    A(4,3,5)              124.1021         -DE/DX =    0.0                 !
 ! A10   A(3,5,6)              115.9794         -DE/DX =    0.0                 !
 ! A11   A(5,6,7)              107.6568         -DE/DX =    0.0                 !
 ! A12   A(5,6,15)             108.5882         -DE/DX =    0.0                 !
 ! A13   A(5,6,16)             108.5577         -DE/DX =    0.0                 !
 ! A14   A(7,6,15)             111.5416         -DE/DX =    0.0                 !
 ! A15   A(7,6,16)             111.5109         -DE/DX =    0.0                 !
 ! A16   A(15,6,16)            108.8946         -DE/DX =    0.0                 !
 ! A17   A(6,7,8)              110.3695         -DE/DX =    0.0                 !
 ! A18   A(6,7,17)             109.1576         -DE/DX =    0.0                 !
 ! A19   A(6,7,18)             109.1526         -DE/DX =    0.0                 !
 ! A20   A(8,7,17)             110.3076         -DE/DX =    0.0                 !
 ! A21   A(8,7,18)             110.3142         -DE/DX =    0.0                 !
 ! A22   A(17,7,18)            107.4784         -DE/DX =    0.0                 !
 ! A23   A(7,8,19)             111.1035         -DE/DX =    0.0                 !
 ! A24   A(7,8,20)             110.9087         -DE/DX =    0.0                 !
 ! A25   A(7,8,21)             111.1281         -DE/DX =    0.0                 !
 ! A26   A(19,8,20)            107.8409         -DE/DX =    0.0                 !
 ! A27   A(19,8,21)            107.8757         -DE/DX =    0.0                 !
 ! A28   A(20,8,21)            107.8356         -DE/DX =    0.0                 !
 ! A29   A(1,9,10)             118.6798         -DE/DX =    0.0                 !
 ! A30   A(1,9,22)             120.8208         -DE/DX =    0.0                 !
 ! A31   A(10,9,22)            120.4992         -DE/DX =    0.0                 !
 ! A32   A(9,10,11)            122.7857         -DE/DX =    0.0                 !
 ! A33   A(9,10,25)            119.8285         -DE/DX =    0.0                 !
 ! A34   A(11,10,25)           117.3846         -DE/DX =    0.0                 !
 ! A35   A(10,11,12)           117.1477         -DE/DX =    0.0                 !
 ! A36   A(10,11,26)           121.5197         -DE/DX =    0.0                 !
 ! A37   A(12,11,26)           121.3325         -DE/DX =    0.0                 !
 ! A38   A(11,12,13)           122.1094         -DE/DX =    0.0                 !
 ! A39   A(11,12,23)           119.08           -DE/DX =    0.0                 !
 ! A40   A(13,12,23)           118.8104         -DE/DX =    0.0                 !
 ! A41   A(1,13,12)            119.5907         -DE/DX =    0.0                 !
 ! A42   A(1,13,24)            119.98           -DE/DX =    0.0                 !
 ! A43   A(12,13,24)           120.4293         -DE/DX =    0.0                 !
 ! A44   A(10,25,27)           111.755          -DE/DX =    0.0                 !
 ! A45   A(10,25,28)           111.7772         -DE/DX =    0.0                 !
 ! A46   A(10,25,29)           113.0192         -DE/DX =    0.0                 !
 ! A47   A(27,25,28)           106.1676         -DE/DX =    0.0                 !
 ! A48   A(27,25,29)           106.8358         -DE/DX =    0.0                 !
 ! A49   A(28,25,29)           106.8664         -DE/DX =    0.0                 !
 ! D1    D(9,1,2,3)              8.707          -DE/DX =    0.0                 !
 ! D2    D(9,1,2,14)          -175.629          -DE/DX =    0.0                 !
 ! D3    D(13,1,2,3)          -172.0111         -DE/DX =    0.0                 !
 ! D4    D(13,1,2,14)            3.6529         -DE/DX =    0.0                 !
 ! D5    D(2,1,9,10)           179.6209         -DE/DX =    0.0                 !
 ! D6    D(2,1,9,22)            -0.2422         -DE/DX =    0.0                 !
 ! D7    D(13,1,9,10)            0.3593         -DE/DX =    0.0                 !
[...]
 076,0.00000572,0.00000404,0.00000009,0.00000680,-0.00000191,-0.0000004
 3,-0.00000226,0.00000088,-0.00001802,-0.00000345,-0.00000005,-0.000000
 59,-0.00000174,-0.00000161,0.00029187,-0.00008034,-0.00006410,0.156754
 72,0.00216868,0.00026164,-0.00039632,-0.00143205,-0.00021344,0.0000158
 8,0.00138531,0.00066087,0.00009482,-0.00050232,-0.00037492,-0.00007410
 ,-0.00070668,0.00017894,0.00004355,0.00017124,0.00008896,0.00001207,-0
 .00002605,-0.00003744,-0.00000634,-0.00000550,0.00002339,0.00000363,-0
 .00253628,-0.00017485,0.00023935,0.00633728,-0.00410046,-0.00093793,-0
 .03655870,-0.02797723,0.00123523,-0.06321472,-0.09320678,0.00104122,-0
 .00538957,-0.00051147,0.00021061,-0.00001201,-0.00013902,-0.00003072,-
 0.00003008,-0.00000994,-0.00000218,-0.00002963,-0.00000972,-0.00000039
 ,-0.00000004,0.00000350,0.00000254,-0.00000031,0.00000428,-0.00000129,
 -0.00000034,-0.00000131,0.00000029,-0.00001044,-0.00000187,-0.00000003
 ,-0.00000036,-0.00000119,-0.00000082,0.00011922,0.00011829,0.00004340,
 0.10096905,0.12412415,0.00047218,-0.00078049,0.00507639,0.00021786,0.0
 0014844,0.00002919,-0.00011377,-0.00006123,-0.00015902,0.00003842,0.00
 003944,0.00004883,0.00006526,-0.00000705,-0.00001509,-0.00001235,-0.00
 000929,0.00000390,0.00000327,0.00000351,0.00000302,0.00000055,-0.00000
 230,-0.00000003,-0.00011285,0.00022785,-0.00088978,0.00063992,-0.00040
 062,0.00487505,-0.00100185,-0.00102616,0.00422038,0.00419954,0.0010396
 7,-0.02324880,0.00285288,0.00240012,0.00394763,-0.00000538,0.00000897,
 0.00003796,0.00000418,0.00000005,-0.00000054,-0.00000001,0.00000225,-0
 .00000003,0.,-0.00000031,0.00000016,0.00000004,-0.00000049,0.00000003,
 0.00000004,0.00000017,-0.00000003,0.00000093,0.00000017,-0.00000025,-0
 .00000002,-0.00000006,0.00000016,-0.00005849,0.00004283,-0.00056538,-0
 .00659727,-0.00187855,0.01164334,0.00718145,-0.02299059,-0.00130851,0.
 00161439,-0.00125579,-0.00035571,-0.00008286,-0.00022052,-0.00011035,-
 0.00004015,0.00019576,0.00004795,0.00009590,0.00002019,0.00001762,-0.0
 0002166,-0.00001687,-0.00000098,0.00000599,0.00000697,0.00000192,0.000
 00086,-0.00000356,-0.00000045,-0.00362379,-0.00295902,0.00062341,-0.00
 125489,-0.00040275,0.00001778,-0.00509748,0.00120654,0.00095524,-0.001
 53093,0.02830822,0.00176371,-0.06681733,0.04750990,0.00472821,-0.00219
 224,-0.00019706,0.00045689,0.00000601,0.00000150,0.00000166,0.00000317
 ,0.00000290,-0.00000202,-0.00000040,-0.00000059,0.00000003,-0.00000036
 ,-0.00000017,-0.00000035,0.00000028,0.00000047,-0.00000031,0.00000163,
 0.00000031,-0.00000002,0.00000008,0.00000017,0.00000037,0.00046300,-0.
 00105920,-0.00011016,0.00049223,0.00140129,-0.00024666,0.07060258,0.00
 505133,-0.01348007,-0.00137490,0.00218934,0.00112396,0.00016799,-0.000
 39929,-0.00001240,-0.00000787,0.00012096,0.00032933,0.00004972,0.00004
 628,-0.00004416,-0.00000518,-0.00001588,-0.00000103,-0.00000523,0.0000
 0063,0.00000126,0.00000060,0.00000041,-0.00000142,0.00000009,-0.002993
 04,-0.00078725,-0.00008911,-0.00058272,0.00059640,0.00011801,0.0012548
 0,0.00136841,-0.00032089,-0.00086954,-0.00574246,-0.00038038,0.0479433
 6,-0.34088750,-0.01902720,-0.00090976,0.00006876,-0.00001856,0.0000050
 1,0.00000015,-0.00000014,0.00000487,0.00000066,-0.00000013,-0.00000015
 ,0.00000055,0.00000035,-0.00000011,0.00000061,-0.00000041,0.00000018,-
 0.00000003,0.00000002,0.00000078,0.00000024,0.00000002,0.00000012,0.00
 000008,-0.00000002,0.00047626,-0.00054125,-0.00005563,-0.00042654,0.00
 111011,0.00021953,-0.05086533,0.35710357,0.00042914,0.00082247,0.00528
 528,0.00008443,0.00087022,-0.00309977,-0.00026729,0.00004424,-0.000919
 43,0.00000605,0.00004439,0.00022355,0.00002908,-0.00005877,0.00009316,
 -0.00000787,-0.00000911,0.00008576,-0.00000087,-0.00000046,0.00000329,
 0.,0.00000054,-0.00000180,0.00054675,-0.00014794,0.00561396,-0.0000352
 8,0.00010537,-0.00072295,0.00099550,-0.00028773,0.00568749,0.00027276,
 -0.00274718,0.00244640,0.00459160,-0.01883727,-0.03805511,0.00024110,-
 0.00051164,0.00003854,0.00001747,-0.00000007,-0.00000563,-0.00001328,0
 .00000166,-0.00000451,0.00000041,-0.00000125,-0.00000131,-0.00000036,0
 .00000093,-0.00000050,0.00000067,0.00000059,-0.00000021,0.00000015,0.,
 -0.00000037,-0.00000061,-0.00000066,-0.00000049,0.00000714,0.00005181,
 -0.00025356,-0.00033780,0.00005269,-0.00264447,-0.00651973,0.02071053,
 0.02645638,-0.00612639,0.00369156,0.00136579,0.00108584,0.00098226,0.0
 0001317,-0.00079020,0.00010025,0.00008277,0.00068705,-0.00012757,0.000
 03323,0.00046102,-0.00027132,-0.00005756,-0.00012537,-0.00004475,-0.00
 001376,0.00001236,0.00002252,0.00000501,0.00000540,-0.00001525,-0.0000
 0263,0.00115434,0.02683099,0.00121679,-0.09667895,0.02208539,0.0037656
 6,0.01181120,-0.02232178,-0.00205371,-0.00041929,-0.00563591,0.0003164
 9,-0.00378701,-0.00145804,0.00016172,-0.00024531,0.00010605,0.00000064
 ,0.00001720,0.00000758,-0.00000319,0.00001945,0.00000374,0.00000489,0.
 00000093,-0.00000386,-0.00000288,0.00000069,-0.00000444,0.00000169,-0.
 00000054,0.00000164,0.00000102,0.00000823,-0.00000035,-0.00000024,-0.0
 0000036,0.00000172,-0.00000050,-0.00241811,0.00045190,-0.00021838,-0.0
 0128134,-0.00221262,-0.00000892,-0.00011828,-0.00006537,-0.00003272,0.
 51880108,0.00385165,-0.00000192,-0.00069296,-0.00524517,0.00133984,0.0
 0029444,0.00504208,0.00231856,0.00021907,-0.00190521,-0.00144496,-0.00
 026462,-0.00235214,0.00066576,0.00016925,0.00058311,0.00026357,0.00003
 413,-0.00007684,-0.00011902,-0.00001855,-0.00001322,0.00007153,0.00001
 197,0.01282377,-0.00704986,-0.00183203,0.02584396,-0.21706780,-0.00894
 327,-0.00492800,-0.02199093,-0.00072742,-0.00587939,-0.00098826,0.0000
 2562,-0.00076851,0.00423365,0.00031535,-0.00031579,-0.00037872,-0.0000
 2657,-0.00010326,-0.00003108,-0.00000924,-0.00010729,-0.00003033,0.000
 00250,0.00000112,0.00001148,0.00000526,0.00000084,0.00001197,-0.000000
 79,-0.00000288,-0.00000458,0.00000351,-0.00003276,-0.00000689,-0.00000
 039,-0.00000256,-0.00000303,-0.00000450,-0.00122583,-0.00016229,0.0003
 4970,0.00243615,0.00254733,-0.00006574,-0.00004298,-0.00000171,0.00003
 253,-0.00533727,0.60781862,0.00127148,-0.00081137,0.00663554,-0.000347
 38,0.00004090,0.00017591,0.00032147,0.00009488,0.00006000,-0.00018911,
 -0.00005339,0.00001781,-0.00015935,0.00006195,-0.00000810,0.00004250,0
 .00001994,0.00001485,-0.00000465,-0.00000745,0.00000204,-0.00000090,0.
 00000483,0.00000015,0.00080383,-0.00284816,0.00240330,0.00412364,-0.00
 914598,-0.06599151,-0.00142016,0.00067971,-0.00059405,0.00026743,0.000
 16477,0.00636156,0.00027005,0.00036215,-0.00095887,-0.00001606,-0.0000
 2319,-0.00012045,-0.00000959,-0.00000228,-0.00000320,-0.00000357,-0.00
 000079,-0.00000283,0.00000052,-0.00000183,-0.00000139,-0.00000046,0.00
 000387,-0.00000053,0.00000119,0.00000107,-0.00000057,-0.00000230,-0.00
 000059,0.00000065,-0.00000171,-0.00000112,-0.00000171,-0.00019385,0.00
 013794,-0.00399998,0.00023091,0.00028257,0.00025540,-0.00002107,0.0000
 3107,-0.00041158,-0.00499168,0.00820142,0.46617846,0.00015275,-0.00024
 485,-0.00010179,0.00028638,0.00006990,-0.00006620,-0.00007426,-0.00022
 475,-0.00002811,-0.00016912,0.00015372,0.00000078,-0.00001254,0.000024
 44,0.00001382,0.00000714,0.00000569,0.00000219,-0.00000053,-0.00000052
 ,-0.00000009,0.00000023,0.00000040,0.,-0.00081166,-0.00368115,0.000434
 24,-0.01542561,0.00862663,0.00197570,-0.31561363,0.09425104,0.02847674
 ,-0.00046130,-0.00132752,0.00016472,0.00129849,-0.00002883,0.00038298,
 -0.00001893,0.00000368,-0.00000817,0.00000110,-0.00000138,-0.00000022,
 0.00000007,-0.00000024,-0.00000084,-0.00000028,0.00000031,0.00000009,-
 0.00000025,0.00000048,0.00000004,0.00000004,-0.00000014,0.00000005,-0.
 00000042,0.00000002,0.00000002,-0.00000005,-0.00000012,-0.00000011,-0.
 00047438,0.00055990,0.00013068,0.00078822,-0.00028760,-0.00031012,0.00
 011759,-0.00005336,0.00001033,-0.00160460,0.00086858,-0.00006947,0.331
 24028,-0.00047173,-0.00108602,0.00003238,0.00004212,0.00027463,0.00005
 005,0.00007425,-0.00014628,-0.00003252,-0.00017841,0.00011977,0.000001
 90,-0.00003684,0.00005388,0.00000838,0.00001541,0.00000283,0.00000036,
 -0.00000025,-0.00000103,0.00000005,-0.00000025,0.00000092,0.00000010,-
 0.00311386,-0.00293569,-0.00017057,-0.01897771,0.01201305,0.00202967,0
 .09231330,-0.09188276,-0.01077479,0.02793217,-0.00638972,-0.00279623,-
 0.00022866,-0.00527698,-0.00056439,-0.00010111,0.00000276,0.00001328,-
 0.00000200,-0.00000049,0.00000064,-0.00000158,-0.00000077,-0.00000044,
 -0.00000020,0.00000038,0.00000015,-0.00000018,0.00000036,-0.00000003,0
 .,-0.00000011,-0.00000003,-0.00000058,-0.00000004,0.,0.,-0.00000011,0.
 ,-0.00078592,0.00058082,0.00008899,0.00139480,0.00061186,0.00007308,0.
 00133215,-0.00011492,-0.00013223,-0.00081232,0.00043818,0.00021322,-0.
 09826542,0.09551310,-0.00010997,-0.00001230,-0.00085390,-0.00008422,0.
 00012908,-0.00059385,0.00000837,0.00006741,-0.00010577,0.00007804,-0.0
 0002416,-0.00004188,-0.00001343,-0.00001463,0.00009124,0.00000245,-0.0
 0000220,0.00002224,-0.00000037,-0.00000035,0.00000035,-0.00000011,0.00
 000016,-0.00000094,0.00051173,-0.00020977,0.00611426,0.00047235,-0.000
 30774,0.00290588,0.02838986,-0.01091762,-0.03675951,0.00177090,-0.0003
 7289,0.00226793,0.00024578,-0.00055534,0.00556400,-0.00000196,-0.00001
 486,-0.00000168,0.00000530,-0.00000488,-0.00000553,-0.00000576,0.00000
 479,-0.00000281,0.00000010,-0.00000069,-0.00000036,0.,0.00000054,-0.00
 000013,0.00000040,0.00000016,-0.00000013,0.,-0.00000003,0.00000002,-0.
 00000038,-0.00000009,-0.00000014,0.00001645,-0.00003595,0.00058356,-0.
 00022030,0.00021112,-0.00242132,0.00008573,-0.00000409,0.00026790,-0.0
 0027742,0.00008565,-0.00320189,-0.03075025,0.01209724,0.02690142,0.000
 61488,-0.00027361,0.00107300,-0.00070191,0.00033534,0.00009135,0.00085
 100,0.00028417,0.00003124,-0.00037765,-0.00017678,-0.00002604,-0.00042
 619,0.00013449,0.00003322,0.00010805,0.00004657,0.00000414,-0.00001373
 ,-0.00002200,-0.00000438,-0.00000314,0.00001352,0.00000266,0.00134569,
 0.00154038,-0.00045715,-0.00678610,0.01258703,-0.01902308,-0.00182118,
 -0.00036068,0.00030580,-0.00078628,0.00043818,0.00133317,0.00023917,0.
 00074626,-0.00021468,-0.00008294,-0.00006293,-0.00003973,-0.00001710,-
 0.00000693,-0.00000005,-0.00001887,-0.00000573,-0.00000103,-0.00000011
 ,0.00000247,0.00000181,-0.00000014,0.00000220,-0.00000047,-0.00000026,
 -0.00000110,0.00000014,-0.00000646,-0.00000077,-0.00000007,0.00000006,
 -0.00000075,-0.00000027,0.00038464,-0.00020541,-0.00064099,0.00044193,
 0.00049601,-0.00002545,0.00002509,0.00002561,-0.00009549,-0.12734810,0
 .04791267,-0.07410108,0.00020165,-0.00015639,-0.00068835,0.18508247,-0
 .00062053,-0.00074605,-0.00175341,0.00135859,-0.00061592,-0.00030417,-
 0.00150124,-0.00067543,-0.00005049,0.00056265,0.00043180,0.00006366,0.
 00070473,-0.00019180,-0.00005039,-0.00017572,-0.00007978,-0.00000651,0
 .00002391,0.00003589,0.00000584,0.00000448,-0.00002144,-0.00000343,-0.
 00332093,-0.00379028,0.00194981,0.03068362,-0.01523453,0.03105388,0.00
 169410,-0.00072872,-0.00017180,0.00078329,0.00157523,-0.00065224,0.001
 15913,-0.00104397,0.00009068,0.00016406,0.00011705,0.00001033,0.000030
 88,0.00000963,0.00000245,0.00003168,0.00000927,-0.00000047,-0.00000048
 ,-0.00000344,-0.00000191,-0.00000038,-0.00000332,0.00000033,0.00000070
 ,0.00000164,-0.00000095,0.00001001,0.00000189,0.00000006,0.00000044,0.
 00000100,0.00000109,-0.00010256,0.00014245,0.00081238,-0.00060626,-0.0
 0065714,0.00005596,-0.00000093,-0.00001494,0.00000405,0.04270364,-0.10
 845041,0.05174206,-0.00018318,-0.00092515,0.00056747,-0.05163516,0.100
 80257,-0.00018561,-0.00012077,0.00034711,-0.00066282,0.00045638,0.0001
 6771,0.00078216,0.00029726,0.00000558,-0.00031875,-0.00018163,-0.00003
 131,-0.00038087,0.00011278,0.00003323,0.00009328,0.00004263,-0.0000007
 8,-0.00001217,-0.00001910,-0.00000370,-0.00000266,0.00001176,0.0000019
 9,0.00129823,0.00301975,-0.00084862,-0.01400785,0.00764985,-0.00512847
 ,-0.00100865,-0.00084902,0.00110672,-0.00040016,-0.00010857,0.00025458
 ,-0.00005012,0.00035860,-0.00008432,-0.00011909,-0.00006116,0.00000511
 ,-0.00001559,-0.00000557,0.00000015,-0.00001719,-0.00000599,0.00000020
 ,-0.00000051,0.00000315,0.00000191,-0.00000031,0.00000153,-0.00000016,
 -0.00000069,-0.00000121,0.00000031,-0.00000551,-0.00000083,-0.00000011
 ,0.00000025,-0.00000035,0.00000012,0.00033913,-0.00009633,-0.00017467,
 0.00035086,0.00041617,-0.00003610,0.00003024,0.00002935,-0.00001219,-0
 .07372650,0.05801717,-0.15423392,0.00015178,0.00031075,-0.00032727,0.1
 3872965,-0.06994548,0.25882435,0.00043180,-0.00005452,-0.00105813,-0.0
 0060363,0.00025500,-0.00000453,0.00073714,0.00024361,0.00001323,-0.000
 33654,-0.00015075,-0.00004132,-0.00036966,0.00011500,0.00002489,0.0000
 9441,0.00004013,0.00000957,-0.00001155,-0.00001876,-0.00000230,-0.0000
 0254,0.00001152,0.00000170,0.00133137,0.00117221,0.00025158,-0.0027682
 2,0.00941736,0.01972270,-0.00179835,0.00002903,0.00002398,-0.00084907,
 0.00046968,-0.00113188,0.00021004,0.00065317,0.00023398,-0.00006024,-0
 .00005874,0.00001282,-0.00001614,-0.00000535,-0.00000076,-0.00001573,-
 0.00000460,-0.00000138,0.00000011,0.00000163,0.00000100,-0.00000023,0.
 00000251,-0.00000074,0.00000007,-0.00000064,0.00000004,-0.00000559,-0.
 00000068,0.00000006,-0.00000035,-0.00000076,-0.00000050,0.00044265,-0.
 00026023,0.00054138,0.00039093,0.00042932,0.00001589,0.00003869,0.0000
 1110,0.00008971,-0.10960008,0.03347144,0.07207139,0.00035763,-0.000154
 40,0.00056855,0.01688337,-0.00390874,-0.01359655,0.15208133,-0.0002795
 8,-0.00090447,0.00159233,0.00134814,-0.00055333,0.00012041,-0.00140687
 ,-0.00064823,-0.00008179,0.00052631,0.00041414,0.00008702,0.00066139,-
 0.00017719,-0.00004453,-0.00016363,-0.00007277,-0.00001527,0.00002198,
 0.00003366,0.00000506,0.00000399,-0.00002005,-0.00000337,-0.00353335,-
 0.00356851,-0.00158331,0.02518704,-0.01080845,-0.03515914,0.00150266,-
 0.00126443,-0.00029406,0.00080362,0.00156603,0.00061725,0.00112757,-0.
 00095592,-0.00034837,0.00013680,0.00010292,0.00001951,0.00002853,0.000
 00887,0.00000296,0.00003014,0.00000854,-0.00000021,-0.00000039,-0.0000
 0298,-0.00000135,-0.00000032,-0.00000359,0.00000047,0.00000054,0.00000
 123,-0.00000077,0.00000934,0.00000182,0.00000007,0.00000075,0.00000104
 ,0.00000135,-0.00019032,0.00021884,-0.00073939,-0.00056820,-0.00059727
 ,-0.00002898,0.00000217,-0.00001092,0.00000038,0.02924836,-0.09787396,
 -0.04961686,-0.00022630,-0.00118783,-0.00068502,-0.00410084,0.01484340
 ,0.00945133,-0.03057408,0.08910178,0.00020505,0.00009741,0.00061990,0.
 00090186,-0.00055230,0.00005926,-0.00101633,-0.00039450,-0.00006170,0.
 00042060,0.00024630,0.00007196,0.00049163,-0.00014268,-0.00003038,-0.0
 0012236,-0.00005346,-0.00001602,0.00001609,0.00002453,0.00000334,0.000
 00336,-0.00001506,-0.00000254,-0.00198590,-0.00360350,-0.00112781,0.01
 625003,-0.00923590,-0.01391086,0.00156109,0.00055964,0.00105908,0.0006
 3419,0.00015173,0.00040433,0.00005994,-0.00052966,-0.00018297,0.000137
 37,0.00007377,0.00001625,0.00002207,0.00000743,0.00000247,0.00002133,0
 .00000593,0.00000170,-0.00000004,-0.00000156,-0.00000073,0.00000037,-0
 .00000396,0.00000082,-0.00000025,0.00000047,-0.00000003,0.00000703,0.0
 0000117,-0.00000004,0.00000094,0.00000119,0.00000108,-0.00044353,0.000
 17290,-0.00025232,-0.00046024,-0.00052563,-0.00002602,-0.00004009,-0.0
 0003088,-0.00002416,0.07141037,-0.05675158,-0.18438787,-0.00039362,-0.
 00043887,-0.00047714,-0.00051153,0.00199810,-0.09296835,-0.12901339,0.
 05647582,0.30614838,0.00077194,-0.00002479,-0.00004625,0.00045701,-0.0
 0013833,-0.00001896,-0.00030618,-0.00034058,-0.00004298,-0.00002989,0.
 00017545,0.00002430,0.00012476,-0.00000534,-0.00000412,-0.00002948,-0.
 00002034,-0.00000356,0.00000497,0.00000619,0.00000111,-0.00000024,-0.0
 0000366,-0.00000038,-0.00370516,0.00332723,0.00042103,-0.00857366,-0.0
 0904153,0.00073474,0.00240543,-0.00234732,-0.00020381,-0.00052316,0.00
 045023,0.00005146,0.00032697,-0.00004527,-0.00003225,0.00001199,0.0000
 2894,0.00000340,0.00000718,0.00000067,0.00000310,0.00000636,0.00000271
 ,-0.00000313,-0.00000015,-0.00000017,0.00000067,-0.00000049,0.00000034
 ,-0.00000074,0.00000091,-0.00000021,-0.00000091,0.00000081,0.00000107,
 0.00000015,0.00000060,-0.00000036,0.00000072,0.00177148,0.00213555,-0.
 00004481,-0.00025340,-0.00052212,-0.00001781,0.00013141,0.00005004,-0.
 00001097,-0.18352084,-0.10449625,0.00212801,0.00021601,0.00018362,-0.0
 0000350,-0.06778786,-0.01785981,-0.03726400,-0.05656164,-0.01959543,0.
 04184398,0.31505432,-0.00208972,0.00107691,0.00034536,0.00172129,-0.00
 023765,-0.00011067,-0.00154311,-0.00073936,-0.00005098,0.00058706,0.00
 048297,0.00008721,0.00070068,-0.00020064,-0.00005120,-0.00017448,-0.00
 007792,-0.00001009,0.00002339,0.00003562,0.00000503,0.00000333,-0.0000
 2063,-0.00000309,-0.00097383,-0.00133457,-0.00035389,-0.04424801,-0.02
 714672,0.00104582,0.00639980,-0.00777818,-0.00108002,-0.00128423,0.000
 02333,0.00022326,0.00012350,-0.00098036,-0.00007698,0.00006945,0.00012
 228,0.00000224,0.00003107,0.00000869,0.00000292,0.00003242,0.00000842,
 -0.00000159,-0.00000061,-0.00000332,-0.00000126,-0.00000036,-0.0000032
 6,-0.00000008,0.00000099,0.00000135,-0.00000137,0.00000941,0.00000236,
 0.00000014,0.00000082,0.00000074,0.00000162,0.00018208,-0.00336870,-0.
 00023417,-0.00102474,-0.00171928,-0.00000077,0.00002683,-0.00006404,-0
 .00000809,-0.08792675,-0.16411475,0.00047068,-0.00003946,0.00033538,-0
 .00000100,-0.00755585,0.01521051,-0.00878244,-0.01113046,0.01234762,0.
 01246313,0.14807949,0.17813318,-0.00019208,0.00001511,0.00025663,0.000
 07116,-0.00000261,0.00000949,-0.00006405,-0.00001475,0.00000393,0.0000
 4108,0.00000942,-0.00000173,0.00003397,-0.00001398,-0.00000138,-0.0000
 0936,-0.00000347,0.00000195,0.00000065,0.00000207,-0.00000039,0.000000
 11,-0.00000128,-0.00000091,0.00011086,-0.00053462,-0.00005157,-0.00095
 537,-0.00123439,0.00879621,0.00029330,-0.00037245,0.00149802,-0.000104
 20,0.00001895,-0.00037319,0.00001342,-0.00004277,-0.00009775,0.0000024
 8,0.00000520,0.00001114,0.00000208,0.00000050,0.00000069,0.00000156,0.
 00000009,0.00000051,-0.00000011,0.00000043,0.00000031,0.00000027,-0.00
 000099,0.00000028,-0.00000044,-0.00000006,0.00000003,0.00000049,0.0000
 0003,-0.00000002,0.00000036,0.00000014,0.00000030,-0.00015478,-0.00026
 491,-0.00022576,-0.00005091,-0.00005080,-0.00013460,-0.00001436,-0.000
 00667,-0.00004367,0.00301087,0.00157010,-0.06818720,-0.00001516,-0.000
 01013,0.00007546,-0.04577636,-0.01541689,-0.00689909,0.05126901,0.0202
 2846,-0.01491960,-0.00751448,-0.00387972,0.08028194\\-0.00000018,-0.00
 000252,-0.00000152,-0.00000172,-0.00000332,0.00000162,0.00000062,0.000
 00504,-0.00000042,-0.00000120,0.00000064,0.00000079,0.00000631,0.00000
 379,-0.00000085,-0.00000160,0.00000300,-0.00000129,0.00000222,0.000005
 97,-0.00000052,0.00000180,0.00000818,0.00000009,-0.00000157,-0.0000016
 3,0.00000028,-0.00000189,-0.00000689,0.00000108,-0.00000210,-0.0000059
 3,0.00000061,0.00000213,-0.00000511,-0.00000003,0.00000125,-0.00000460
 ,0.00000038,0.00000284,-0.00000009,-0.00000104,0.00000047,0.00000475,-
 0.00000090,-0.00000039,0.00000398,0.00000100,0.00000256,0.00000626,-0.
 00000004,0.00000366,0.00000556,-0.00000161,0.00000023,0.00000827,-0.00
 000018,0.00000268,0.00000973,-0.00000094,0.00000131,0.00000813,-0.0000
 0126,-0.00000223,-0.00000211,0.00000051,0.00000299,-0.00000767,-0.0000
 0013,0.00000321,-0.00000374,-0.00000032,-0.00000438,-0.00000813,0.0000
 0065,-0.00000144,-0.00000786,0.00000056,-0.00000623,-0.00000564,0.0000
 0005,-0.00000584,-0.00000607,0.00000316,-0.00000353,-0.00000197,0.0000
 0027\\\@


 Once you get people laughing, they're
 listening and you can tell them almost anything.
                                 -- Herb Gardner
 Job cpu time:       0 days  4 hours 16 minutes 55.7 seconds.
 File lengths (MBytes):  RWF=    659 Int=      0 D2E=      0 Chk=     22 Scr=      1
 Normal termination of Gaussian 09 at Thu Nov 14 16:53:36 2019.
pbs_rusage has been removed.
Please contact help@nci.org.au if you require this functionality.
