 Entering Gaussian System, Link 0=/apps/gaussian/g09e01/g09/g09
 Initial command:
 /apps/gaussian/g09e01/g09/l1.exe "/jobfs/local/3588876.r-man2/Gau-35351.inp" -scrdir="/jobfs/local/3588876.r-man2/"
 Entering Link 1 = /apps/gaussian/g09e01/g09/l1.exe PID=     35352.
  
 Copyright (c) 1988,1990,1992,1993,1995,1998,2003,2009,2015,
            Gaussian, Inc.  All Rights Reserved.
  
 This is part of the Gaussian(R) 09 program.  It is based on
 the Gaussian(R) 03 system (copyright 2003, Gaussian, Inc.),
 the Gaussian(R) 98 system (copyright 1998, Gaussian, Inc.),
 the Gaussian(R) 94 system (copyright 1995, Gaussian, Inc.),
 the Gaussian 92(TM) system (copyright 1992, Gaussian, Inc.),
 the Gaussian 90(TM) system (copyright 1990, Gaussian, Inc.),
 the Gaussian 88(TM) system (copyright 1988, Gaussian, Inc.),
 the Gaussian 86(TM) system (copyright 1986, Carnegie Mellon
 University), and the Gaussian 82(TM) system (copyright 1983,
 Carnegie Mellon University). Gaussian is a federally registered
 trademark of Gaussian, Inc.
  
 This software contains proprietary and confidential information,
 including trade secrets, belonging to Gaussian, Inc.
  
 This software is provided under written license and may be
 used, copied, transmitted, or stored only in accord with that
 written license.
  
 The following legend is applicable only to US Government
 contracts under FAR:
  
                    RESTRICTED RIGHTS LEGEND
  
 Use, reproduction and disclosure by the US Government is
 subject to restrictions as set forth in subparagraphs (a)
 and (c) of the Commercial Computer Software - Restricted
 Rights clause in FAR 52.227-19.
  
 Gaussian, Inc.
 340 Quinnipiac St., Bldg. 40, Wallingford CT 06492
  
  
 ---------------------------------------------------------------
 Warning -- This program may not be used in any manner that
 competes with the business of Gaussian, Inc. or will provide
 assistance to any competitor of Gaussian, Inc.  The licensee
 of this program is prohibited from giving any competitor of
 Gaussian, Inc. access to this program.  By using this program,
 the user acknowledges that Gaussian, Inc. is engaged in the
 business of creating and licensing software in the field of
 computational chemistry and represents and warrants to the
 licensee that it is not a competitor of Gaussian, Inc. and that
 it will not use this program in any manner prohibited above.
 ---------------------------------------------------------------
  

 Cite this work as:
 Gaussian 09, Revision E.01,
 M. J. Frisch, G. W. Trucks, H. B. Schlegel, G. E. Scuseria, 
 M. A. Robb, J. R. Cheeseman, G. Scalmani, V. Barone, B. Mennucci, 
 G. A. Petersson, H. Nakatsuji, M. Caricato, X. Li, H. P. Hratchian, 
 A. F. Izmaylov, J. Bloino, G. Zheng, J. L. Sonnenberg, M. Hada, 
 M. Ehara, K. Toyota, R. Fukuda, J. Hasegawa, M. Ishida, T. Nakajima, 
 Y. Honda, O. Kitao, H. Nakai, T. Vreven, J. A. Montgomery, Jr., 
 J. E. Peralta, F. Ogliaro, M. Bearpark, J. J. Heyd, E. Brothers, 
 K. N. Kudin, V. N. Staroverov, T. Keith, R. Kobayashi, J. Normand, 
 K. Raghavachari, A. Rendell, J. C. Burant, S. S. Iyengar, J. Tomasi, 
 M. Cossi, N. Rega, J. M. Millam, M. Klene, J. E. Knox, J. B. Cross, 
 V. Bakken, C. Adamo, J. Jaramillo, R. Gomperts, R. E. Stratmann, 
 O. Yazyev, A. J. Austin, R. Cammi, C. Pomelli, J. W. Ochterski, 
 R. L. Martin, K. Morokuma, V. G. Zakrzewski, G. A. Voth, 
 P. Salvador, J. J. Dannenberg, S. Dapprich, A. D. Daniels, 
 O. Farkas, J. B. Foresman, J. V. Ortiz, J. Cioslowski, 
 and D. J. Fox, Gaussian, Inc., Wallingford CT, 2013.
 
 ******************************************
 Gaussian 09:  ES64L-G09RevE.01 30-Nov-2015
                14-Nov-2019 
 ******************************************
 %chk=NM3CA.M062X_6-311pGd_opt_GD3.chk
 %mem=196608000
 %nproc=4
 Will use up to    4 processors via shared memory.
 ----------------------------------------------------------------------
 # M062X/6-311+G* SCF=Tight INT(grid=ultrafine) OPT IOP(2/17=4) Empiric
 alDispersion=GD3 maxdisk=2147483648
 ----------------------------------------------------------------------
 1/14=-1,18=20,19=15,26=4,38=1/1,3;
 2/9=110,12=2,17=4,18=5,40=1/2;
 3/5=4,6=6,7=11,11=2,16=1,25=1,30=1,71=1,74=-55,75=-5,124=31/1,2,3;
 4//1;
 5/5=2,32=2,38=5/2;
 6/7=2,8=2,9=2,10=2,28=1/1;
 7//1,2,3,16;
 1/14=-1,18=20,19=15,26=4/3(2);
 2/9=110,17=4/2;
 99//99;
 2/9=110,17=4/2;
 3/5=4,6=6,7=11,11=2,16=1,25=1,30=1,71=1,74=-55,75=-5,124=31/1,2,3;
 4/5=5,16=3,69=1/1;
 5/5=2,32=2,38=5/2;
 7//1,2,3,16;
 1/14=-1,18=20,19=15,26=4/3(-5);
 2/9=110,17=4/2;
 6/7=2,8=2,9=2,10=2,19=2,28=1/1;
 99/9=1/99;
 ----------------------------
 NM3CA.M062X_6-311pGd_opt_GD3
 ----------------------------
 Symbolic Z-matrix:
 Charge =  0 Multiplicity = 1
 C                    -5.95698   1.28084   0.19372 
 N                    -4.67619   0.72609   0.09852 
 C                    -3.47489   1.39187   0.09536 
 O                    -3.3167    2.58164   0.1747 
 O                    -2.48234   0.49363  -0.01209 
 C                    -1.15502   1.04274  -0.02912 
 C                    -0.18225  -0.10965  -0.15429 
 C                     1.25829   0.39416  -0.17941 
 C                    -6.19114   2.65638   0.30321 
 C                    -7.50136   3.10126   0.39172 
 C                    -8.59022   2.23644   0.37603 
 C                    -8.33113   0.88052   0.26687 
 C                    -7.03641   0.39444   0.17606 
 H                    -4.61017  -0.27818   0.02315 
 H                    -0.99669   1.60948   0.89157 
 H                    -1.07205   1.73706  -0.86874 
 H                    -0.40698  -0.66787  -1.06717 
 H                    -0.33201  -0.79486   0.68447 
 H                     1.42884   1.06685  -1.02342 
 H                     1.96121  -0.43482  -0.26967 
 H                     1.50414   0.93924   0.73513 
 H                    -5.36766   3.3534    0.31818 
 Cl                   -9.65633  -0.24587   0.24244 
 H                    -6.8718   -0.67412   0.09175 
 C                    -7.78981   4.57378   0.51063 
 H                    -9.60602   2.6051    0.44635 
 F                    -8.55585   5.00409  -0.50479 
 F                    -8.46293   4.84914   1.63942 
 F                    -6.68127   5.31742   0.51636 
 

 GradGradGradGradGradGradGradGradGradGradGradGradGradGradGradGradGradGrad
 Berny optimization.
 Initialization pass.
                           ----------------------------
                           !    Initial Parameters    !
                           ! (Angstroms and Degrees)  !
 --------------------------                            --------------------------
 ! Name  Definition              Value          Derivative Info.                !
 --------------------------------------------------------------------------------
 ! R1    R(1,2)                  1.399          estimate D2E/DX2                !
 ! R2    R(1,9)                  1.3996         estimate D2E/DX2                !
 ! R3    R(1,13)                 1.3969         estimate D2E/DX2                !
 ! R4    R(2,3)                  1.3735         estimate D2E/DX2                !
 ! R5    R(2,14)                 1.0093         estimate D2E/DX2                !
 ! R6    R(3,4)                  1.2029         estimate D2E/DX2                !
 ! R7    R(3,5)                  1.343          estimate D2E/DX2                !
 ! R8    R(5,6)                  1.4365         estimate D2E/DX2                !
 ! R9    R(6,7)                  1.5133         estimate D2E/DX2                !
 ! R10   R(6,15)                 1.0927         estimate D2E/DX2                !
 ! R11   R(6,16)                 1.0927         estimate D2E/DX2                !
 ! R12   R(7,8)                  1.5263         estimate D2E/DX2                !
 ! R13   R(7,17)                 1.0934         estimate D2E/DX2                !
 ! R14   R(7,18)                 1.0934         estimate D2E/DX2                !
 ! R15   R(8,19)                 1.0927         estimate D2E/DX2                !
 ! R16   R(8,20)                 1.0906         estimate D2E/DX2                !
 ! R17   R(8,21)                 1.0927         estimate D2E/DX2                !
 ! R18   R(9,10)                 1.3865         estimate D2E/DX2                !
 ! R19   R(9,22)                 1.079          estimate D2E/DX2                !
 ! R20   R(10,11)                1.3906         estimate D2E/DX2                !
 ! R21   R(10,25)                1.5052         estimate D2E/DX2                !
 ! R22   R(11,12)                1.3848         estimate D2E/DX2                !
 ! R23   R(11,26)                1.0829         estimate D2E/DX2                !
 ! R24   R(12,13)                1.3859         estimate D2E/DX2                !
 ! R25   R(12,23)                1.7394         estimate D2E/DX2                !
 ! R26   R(13,24)                1.0844         estimate D2E/DX2                !
 ! R27   R(25,27)                1.3428         estimate D2E/DX2                !
 ! R28   R(25,28)                1.3428         estimate D2E/DX2                !
 ! R29   R(25,29)                1.3349         estimate D2E/DX2                !
 ! A1    A(2,1,9)              123.2437         estimate D2E/DX2                !
 ! A2    A(2,1,13)             117.0628         estimate D2E/DX2                !
 ! A3    A(9,1,13)             119.6935         estimate D2E/DX2                !
 ! A4    A(1,2,3)              127.4939         estimate D2E/DX2                !
 ! A5    A(1,2,14)             117.3582         estimate D2E/DX2                !
 ! A6    A(3,2,14)             115.1479         estimate D2E/DX2                !
 ! A7    A(2,3,4)              126.4657         estimate D2E/DX2                !
 ! A8    A(2,3,5)              108.8081         estimate D2E/DX2                !
 ! A9    A(4,3,5)              124.7262         estimate D2E/DX2                !
 ! A10   A(3,5,6)              115.3522         estimate D2E/DX2                !
 ! A11   A(5,6,7)              107.6893         estimate D2E/DX2                !
 ! A12   A(5,6,15)             108.7936         estimate D2E/DX2                !
 ! A13   A(5,6,16)             108.7938         estimate D2E/DX2                !
 ! A14   A(7,6,15)             111.8105         estimate D2E/DX2                !
 ! A15   A(7,6,16)             111.81           estimate D2E/DX2                !
 ! A16   A(15,6,16)            107.871          estimate D2E/DX2                !
 ! A17   A(6,7,8)              110.8977         estimate D2E/DX2                !
 ! A18   A(6,7,17)             109.01           estimate D2E/DX2                !
 ! A19   A(6,7,18)             109.0104         estimate D2E/DX2                !
 ! A20   A(8,7,17)             110.4119         estimate D2E/DX2                !
 ! A21   A(8,7,18)             110.4119         estimate D2E/DX2                !
 ! A22   A(17,7,18)            107.001          estimate D2E/DX2                !
 ! A23   A(7,8,19)             111.2993         estimate D2E/DX2                !
 ! A24   A(7,8,20)             111.0239         estimate D2E/DX2                !
 ! A25   A(7,8,21)             111.2994         estimate D2E/DX2                !
 ! A26   A(19,8,20)            107.6634         estimate D2E/DX2                !
 ! A27   A(19,8,21)            107.7142         estimate D2E/DX2                !
 ! A28   A(20,8,21)            107.6636         estimate D2E/DX2                !
 ! A29   A(1,9,10)             118.583          estimate D2E/DX2                !
 ! A30   A(1,9,22)             120.5503         estimate D2E/DX2                !
 ! A31   A(10,9,22)            120.8667         estimate D2E/DX2                !
 ! A32   A(9,10,11)            122.6607         estimate D2E/DX2                !
 ! A33   A(9,10,25)            120.002          estimate D2E/DX2                !
 ! A34   A(11,10,25)           117.3374         estimate D2E/DX2                !
 ! A35   A(10,11,12)           117.6029         estimate D2E/DX2                !
 ! A36   A(10,11,26)           121.4694         estimate D2E/DX2                !
 ! A37   A(12,11,26)           120.9278         estimate D2E/DX2                !
 ! A38   A(11,12,13)           121.5582         estimate D2E/DX2                !
 ! A39   A(11,12,23)           119.5151         estimate D2E/DX2                !
 ! A40   A(13,12,23)           118.9267         estimate D2E/DX2                !
 ! A41   A(1,13,12)            119.9017         estimate D2E/DX2                !
 ! A42   A(1,13,24)            120.5947         estimate D2E/DX2                !
 ! A43   A(12,13,24)           119.5036         estimate D2E/DX2                !
 ! A44   A(10,25,27)           111.29           estimate D2E/DX2                !
 ! A45   A(10,25,28)           111.2901         estimate D2E/DX2                !
 ! A46   A(10,25,29)           112.7168         estimate D2E/DX2                !
 ! A47   A(27,25,28)           106.4991         estimate D2E/DX2                !
 ! A48   A(27,25,29)           107.366          estimate D2E/DX2                !
 ! A49   A(28,25,29)           107.3642         estimate D2E/DX2                !
 ! D1    D(9,1,2,3)              0.021          estimate D2E/DX2                !
 ! D2    D(9,1,2,14)           179.997          estimate D2E/DX2                !
 ! D3    D(13,1,2,3)          -179.9808         estimate D2E/DX2                !
 ! D4    D(13,1,2,14)           -0.0048         estimate D2E/DX2                !
 ! D5    D(2,1,9,10)           179.9989         estimate D2E/DX2                !
 ! D6    D(2,1,9,22)            -0.0013         estimate D2E/DX2                !
 ! D7    D(13,1,9,10)            0.0007         estimate D2E/DX2                !
 ! D8    D(13,1,9,22)         -179.9995         estimate D2E/DX2                !
 ! D9    D(2,1,13,12)         -179.9989         estimate D2E/DX2                !
 ! D10   D(2,1,13,24)            0.0014         estimate D2E/DX2                !
 ! D11   D(9,1,13,12)           -0.0006         estimate D2E/DX2                !
 ! D12   D(9,1,13,24)          179.9997         estimate D2E/DX2                !
 ! D13   D(1,2,3,4)             -0.0157         estimate D2E/DX2                !
 ! D14   D(1,2,3,5)            179.9849         estimate D2E/DX2                !
 ! D15   D(14,2,3,4)          -179.9922         estimate D2E/DX2                !
 ! D16   D(14,2,3,5)             0.0084         estimate D2E/DX2                !
 ! D17   D(2,3,5,6)            179.9987         estimate D2E/DX2                !
 ! D18   D(4,3,5,6)             -0.0007         estimate D2E/DX2                !
 ! D19   D(3,5,6,7)           -179.9928         estimate D2E/DX2                !
 ! D20   D(3,5,6,15)            58.6432         estimate D2E/DX2                !
 ! D21   D(3,5,6,16)           -58.6293         estimate D2E/DX2                !
 ! D22   D(5,6,7,8)           -179.9986         estimate D2E/DX2                !
 ! D23   D(5,6,7,17)            58.2386         estimate D2E/DX2                !
 ! D24   D(5,6,7,18)           -58.2354         estimate D2E/DX2                !
 ! D25   D(15,6,7,8)           -60.5362         estimate D2E/DX2                !
 ! D26   D(15,6,7,17)          177.701          estimate D2E/DX2                !
 ! D27   D(15,6,7,18)           61.227          estimate D2E/DX2                !
 ! D28   D(16,6,7,8)            60.539          estimate D2E/DX2                !
 ! D29   D(16,6,7,17)          -61.2238         estimate D2E/DX2                !
 ! D30   D(16,6,7,18)         -177.6978         estimate D2E/DX2                !
 ! D31   D(6,7,8,19)           -60.0789         estimate D2E/DX2                !
 ! D32   D(6,7,8,20)          -179.9954         estimate D2E/DX2                !
 ! D33   D(6,7,8,21)            60.0877         estimate D2E/DX2                !
 ! D34   D(17,7,8,19)           60.8594         estimate D2E/DX2                !
 ! D35   D(17,7,8,20)          -59.0571         estimate D2E/DX2                !
 ! D36   D(17,7,8,21)         -178.9739         estimate D2E/DX2                !
 ! D37   D(18,7,8,19)          178.9822         estimate D2E/DX2                !
 ! D38   D(18,7,8,20)           59.0656         estimate D2E/DX2                !
 ! D39   D(18,7,8,21)          -60.8512         estimate D2E/DX2                !
 ! D40   D(1,9,10,11)           -0.0003         estimate D2E/DX2                !
 ! D41   D(1,9,10,25)          179.9965         estimate D2E/DX2                !
 ! D42   D(22,9,10,11)         179.9998         estimate D2E/DX2                !
 ! D43   D(22,9,10,25)          -0.0033         estimate D2E/DX2                !
 ! D44   D(9,10,11,12)          -0.0002         estimate D2E/DX2                !
 ! D45   D(9,10,11,26)        -179.9995         estimate D2E/DX2                !
 ! D46   D(25,10,11,12)       -179.9971         estimate D2E/DX2                !
 ! D47   D(25,10,11,26)          0.0036         estimate D2E/DX2                !
 ! D48   D(9,10,25,27)         120.711          estimate D2E/DX2                !
 ! D49   D(9,10,25,28)        -120.6702         estimate D2E/DX2                !
 ! D50   D(9,10,25,29)           0.0192         estimate D2E/DX2                !
 ! D51   D(11,10,25,27)        -59.292          estimate D2E/DX2                !
 ! D52   D(11,10,25,28)         59.3268         estimate D2E/DX2                !
 ! D53   D(11,10,25,29)       -179.9838         estimate D2E/DX2                !
 ! D54   D(10,11,12,13)          0.0003         estimate D2E/DX2                !
 ! D55   D(10,11,12,23)        180.0            estimate D2E/DX2                !
 ! D56   D(26,11,12,13)        179.9997         estimate D2E/DX2                !
 ! D57   D(26,11,12,23)         -0.0007         estimate D2E/DX2                !
 ! D58   D(11,12,13,1)           0.0001         estimate D2E/DX2                !
 ! D59   D(11,12,13,24)        179.9998         estimate D2E/DX2                !
 ! D60   D(23,12,13,1)        -179.9996         estimate D2E/DX2                !
 ! D61   D(23,12,13,24)          0.0001         estimate D2E/DX2                !
 --------------------------------------------------------------------------------
 Trust Radius=3.00D-01 FncErr=1.00D-07 GrdErr=1.00D-06
 Number of steps in this run=    149 maximum allowed number of steps=    174.
 GradGradGradGradGradGradGradGradGradGradGradGradGradGradGradGradGradGrad

                          Input orientation:                          
 ---------------------------------------------------------------------
 Center     Atomic      Atomic             Coordinates (Angstroms)
 Number     Number       Type             X           Y           Z
 ---------------------------------------------------------------------
      1          6           0       -5.956977    1.280842    0.193724
      2          7           0       -4.676193    0.726085    0.098524
      3          6           0       -3.474890    1.391866    0.095356
      4          8           0       -3.316705    2.581644    0.174699
      5          8           0       -2.482341    0.493632   -0.012089
      6          6           0       -1.155019    1.042736   -0.029119
      7          6           0       -0.182250   -0.109651   -0.154291
      8          6           0        1.258290    0.394161   -0.179415
      9          6           0       -6.191136    2.656376    0.303215
     10          6           0       -7.501357    3.101257    0.391717
     11          6           0       -8.590215    2.236442    0.376031
     12          6           0       -8.331132    0.880516    0.266875
     13          6           0       -7.036409    0.394438    0.176064
     14          1           0       -4.610165   -0.278178    0.023147
     15          1           0       -0.996689    1.609482    0.891571
     16          1           0       -1.072048    1.737061   -0.868742
     17          1           0       -0.406977   -0.667869   -1.067175
     18          1           0       -0.332013   -0.794863    0.684472
     19          1           0        1.428838    1.066852   -1.023418
     20          1           0        1.961208   -0.434824   -0.269674
     21          1           0        1.504142    0.939238    0.735128
     22          1           0       -5.367662    3.353399    0.318183
     23         17           0       -9.656326   -0.245871    0.242445
     24          1           0       -6.871800   -0.674118    0.091747
     25          6           0       -7.789815    4.573777    0.510633
     26          1           0       -9.606019    2.605096    0.446354
     27          9           0       -8.555853    5.004090   -0.504788
     28          9           0       -8.462929    4.849136    1.639418
     29          9           0       -6.681270    5.317417    0.516358
 ---------------------------------------------------------------------
                    Distance matrix (angstroms):
                    1          2          3          4          5
     1  C    0.000000
     2  N    1.399009   0.000000
     3  C    2.486516   1.373464   0.000000
     4  O    2.943380   2.301545   1.202867   0.000000
     5  O    3.568635   2.208904   1.342953   2.256291   0.000000
     6  C    4.813020   3.537687   2.349295   2.661328   1.436520
     7  C    5.949963   4.577979   3.627445   4.144407   2.382140
     8  C    7.279116   5.950253   4.844988   5.083410   3.745693
     9  C    1.399612   2.462311   3.003362   2.878273   4.304886
    10  C    2.395458   3.702560   4.384323   4.222370   5.670387
    11  C    2.807196   4.204493   5.192171   5.288631   6.363502
    12  C    2.408780   3.662072   4.886102   5.295924   5.868208
    13  C    1.396852   2.384664   3.699432   4.315098   4.559032
    14  H    2.067255   1.009250   2.020671   3.142386   2.263751
    15  H    5.019906   3.866272   2.612047   2.615622   2.066128
    16  H    5.019911   3.866204   2.611952   2.615449   2.066131
    17  H    6.015800   4.639845   3.873767   4.535207   2.601812
    18  H    6.015780   4.639884   3.873825   4.535312   2.601793
    19  H    7.488491   6.216613   5.040222   5.123500   4.080281
    20  H    8.115166   6.748213   5.746408   6.095319   4.546813
    21  H    7.488532   6.216690   5.040331   5.123684   4.080312
    22  H    2.158304   2.725648   2.734931   2.196046   4.075834
    23  Cl   4.002300   5.076134   6.396403   6.941918   7.216489
    24  H    2.160826   2.604094   3.975840   4.821366   4.543322
    25  C    3.781950   4.966810   5.377322   4.908173   6.714916
    26  H    3.890113   5.287235   6.259862   6.295222   7.444142
    27  F    4.593980   5.806640   6.262948   5.811938   7.581196
    28  F    4.593751   5.806313   6.262378   5.811243   7.580589
    29  F    4.113713   5.027449   5.086066   4.349883   6.417100
                    6          7          8          9         10
     6  C    0.000000
     7  C    1.513256   0.000000
     8  C    2.503457   1.526307   0.000000
     9  C    5.298750   6.630756   7.800288   0.000000
    10  C    6.685104   8.011079   9.186184   1.386517   0.000000
    11  C    7.541301   8.745243  10.034719   2.436643   1.390599
    12  C    7.184047   8.219617   9.612114   2.781112   2.373985
    13  C    5.920569   6.880605   8.302313   2.418061   2.754915
    14  H    3.699403   4.434673   5.910317   3.345073   4.462669
    15  H    1.092675   2.170842   2.776499   5.331456   6.692230
    16  H    1.092675   2.170836   2.776514   5.331386   6.692219
    17  H    2.136187   1.093374   2.165443   6.810658   8.164857
    18  H    2.136194   1.093374   2.165443   6.810707   8.164861
    19  H    2.768669   2.176040   1.092677   7.896236   9.267674
    20  H    3.457155   2.171051   1.090622   8.737530  10.123312
    21  H    2.768740   2.176040   1.092676   7.896354   9.267754
    22  H    4.817275   6.253355   7.273784   1.078968   2.149799
    23  Cl   8.602702   9.483358  10.941501   4.520429   3.983647
    24  H    5.970242   6.717830   8.204457   3.405909   3.839242
    25  C    7.535257   8.958329   9.990673   2.505039   1.505212
    26  H    8.607349   9.825378  11.104640   3.418267   2.163045
    27  F    8.407790   9.817863  10.847798   3.428778   2.352968
    28  F    8.407036   9.817159  10.846984   3.428510   2.352968
    29  F    7.007845   8.493533   9.367986   2.714185   2.366314
                   11         12         13         14         15
    11  C    0.000000
    12  C    1.384765   0.000000
    13  C    2.418115   1.385940   0.000000
    14  H    4.721084   3.904814   2.522390   0.000000
    15  H    7.636786   7.397006   6.202136   4.168288   0.000000
    16  H    7.636863   7.397134   6.202246   4.168324   1.766539
    17  H    8.802457   8.183485   6.828140   4.359754   3.061172
    18  H    8.802378   8.183349   6.828019   4.359691   2.503110
    19  H   10.183704   9.846654   8.576206   6.274868   3.137644
    20  H   10.903446  10.389913   9.046738   6.579760   3.778470
    21  H   10.183700   9.846590   8.576151   6.274852   2.593811
    22  H    3.411127   3.860044   3.400054   3.721451   4.740825
    23  Cl   2.704869   1.739391   2.697845   5.051027   8.879922
    24  H    3.391921   2.139441   1.084443   2.297056   6.353855
    25  C    2.474246   3.740671   4.259863   5.821450   7.421504
    26  H    1.082917   2.152145   3.400436   5.783678   8.678135
    27  F    2.904634   4.201170   4.901140   6.614342   8.403222
    28  F    2.904913   4.201332   4.901092   6.614036   8.173088
    29  F    3.627144   4.740293   4.947489   5.986937   6.797355
                   16         17         18         19         20
    16  H    0.000000
    17  H    2.503074   0.000000
    18  H    3.061171   1.757844   0.000000
    19  H    2.593750   2.526141   3.079524   0.000000
    20  H    3.778440   2.509705   2.509758   1.762549   0.000000
    21  H    3.137782   3.079524   2.526091   1.764778   1.762550
    22  H    4.740637   6.534386   6.534524   7.295245   8.270946
    23  Cl   8.880123   9.351130   9.350914  11.234167  11.630351
    24  H    6.354010   6.567882   6.567703   8.554248   8.843638
    25  C    7.421457   9.190790   9.190828   9.981753  10.989878
    26  H    8.678227   9.880559   9.880467  11.238083  11.981426
    27  F    8.173939   9.944424  10.132806  10.745458  11.842535
    28  F    8.402440  10.132194   9.943764  10.919864  11.841769
    29  F    6.797119   8.814646   8.814834   9.285045  10.411463
                   21         22         23         24         25
    21  H    0.000000
    22  H    7.295458   0.000000
    23  Cl  11.234023   5.599385   0.000000
    24  H    8.554137   4.305183   2.821292   0.000000
    25  C    9.981879   2.719041   5.175403   5.344026   0.000000
    26  H   11.238067   4.305817   2.858693   4.284268   2.679260
    27  F   10.920802   3.683290   5.415856   5.952641   1.342782
    28  F   10.744652   3.682875   5.416164   5.952589   1.342781
    29  F    9.285326   2.371120   6.314757   6.009583   1.334880
                   26         27         28         29
    26  H    0.000000
    27  F    2.786161   0.000000
    28  F    2.786714   2.151805   0.000000
    29  F    3.989454   2.157539   2.157512   0.000000
 Stoichiometry    C11H11ClF3NO2
 Framework group  C1[X(C11H11ClF3NO2)]
 Deg. of freedom    81
 Full point group                 C1      NOp   1
 Largest Abelian subgroup         C1      NOp   1
 Largest concise Abelian subgroup C1      NOp   1
                         Standard orientation:                         
 ---------------------------------------------------------------------
 Center     Atomic      Atomic             Coordinates (Angstroms)
 Number     Number       Type             X           Y           Z
 ---------------------------------------------------------------------
      1          6           0        0.141669    0.711592   -0.000223
      2          7           0       -1.243678    0.906635   -0.000379
      3          6           0       -2.223435   -0.055904   -0.000142
      4          8           0       -2.055479   -1.246987   -0.000020
      5          8           0       -3.423192    0.547507   -0.000079
      6          6           0       -4.555987   -0.335876    0.000136
      7          6           0       -5.805153    0.518249   -0.000002
      8          6           0       -7.059396   -0.351514    0.000249
      9          6           0        0.738251   -0.554506   -0.000211
     10          6           0        2.122394   -0.635608   -0.000074
     11          6           0        2.940042    0.489210    0.000045
     12          6           0        2.324693    1.729742    0.000019
     13          6           0        0.944402    1.854752   -0.000113
     14          1           0       -1.577984    1.858908   -0.000328
     15          1           0       -4.502470   -0.976722    0.883534
     16          1           0       -4.502531   -0.977081   -0.883004
     17          1           0       -5.792041    1.168270   -0.879075
     18          1           0       -5.791970    1.168675    0.878769
     19          1           0       -7.096217   -0.995179   -0.881954
     20          1           0       -7.961038    0.262080    0.000069
     21          1           0       -7.096219   -0.994668    0.882824
     22          1           0        0.131468   -1.446688   -0.000304
     23         17           0        3.299907    3.170033    0.000165
     24          1           0        0.497646    2.842894   -0.000126
     25          6           0        2.797509   -1.980927    0.000022
     26          1           0        4.019554    0.403405    0.000143
     27          9           0        3.587382   -2.130122   -1.075573
     28          9           0        3.586487   -2.130418    1.076233
     29          9           0        1.928193   -2.993940   -0.000452
 ---------------------------------------------------------------------
 Rotational constants (GHZ):      0.5307402      0.1582254      0.1248190
 Standard basis: 6-311+G(d) (5D, 7F)
 There are   455 symmetry adapted cartesian basis functions of A   symmetry.
 There are   437 symmetry adapted basis functions of A   symmetry.
   437 basis functions,   720 primitive gaussians,   455 cartesian basis functions
    72 alpha electrons       72 beta electrons
       nuclear repulsion energy      1424.7130275932 Hartrees.
 NAtoms=   29 NActive=   29 NUniq=   29 SFac= 1.00D+00 NAtFMM=   60 NAOKFM=F Big=F
 Integral buffers will be    131072 words long.
 Raffenetti 2 integral format.
 Two-electron integral symmetry is turned on.
 Nuclear repulsion after empirical dispersion term =     1424.7117197692 Hartrees.
 One-electron integrals computed using PRISM.
 NBasis=   437 RedAO= T EigKep=  1.27D-06  NBF=   437
 NBsUse=   435 1.00D-06 EigRej=  8.36D-07 NBFU=   435
 ExpMin= 4.38D-02 ExpMax= 1.06D+05 ExpMxC= 3.62D+03 IAcc=3 IRadAn=         5 AccDes= 0.00D+00
 Harris functional with IExCor= 1009 and IRadAn=       5 diagonalized for initial guess.
 HarFok:  IExCor= 1009 AccDes= 0.00D+00 IRadAn=         5 IDoV= 1 UseB2=F ITyADJ=14
 ICtDFT=  3500011 ScaDFX=  1.000000  1.000000  1.000000  1.000000
 FoFCou: FMM=F IPFlag=           0 FMFlag=      100000 FMFlg1=           0
         NFxFlg=           0 DoJE=T BraDBF=F KetDBF=T FulRan=T
         wScrn=  0.000000 ICntrl=     500 IOpCl=  0 I1Cent=   200000004 NGrid=           0
         NMat0=    1 NMatS0=      1 NMatT0=    0 NMatD0=    1 NMtDS0=    0 NMtDT0=    0
 Petite list used in FoFCou.
 Requested convergence on RMS density matrix=1.00D-08 within 128 cycles.
 Requested convergence on MAX density matrix=1.00D-06.
 Requested convergence on             energy=1.00D-06.
 No special actions if energy rises.
 SCF Done:  E(RM062X) =  -1390.67453961     A.U. after   16 cycles
            NFock= 16  Conv=0.15D-08     -V/T= 2.0028

 **********************************************************************

            Population analysis using the SCF density.

 **********************************************************************

 Orbital symmetries:
       Occupied  (A) (A) (A) (A) (A) (A) (A) (A) (A) (A) (A) (A)
                 (A) (A) (A) (A) (A) (A) (A) (A) (A) (A) (A) (A)
                 (A) (A) (A) (A) (A) (A) (A) (A) (A) (A) (A) (A)
                 (A) (A) (A) (A) (A) (A) (A) (A) (A) (A) (A) (A)
                 (A) (A) (A) (A) (A) (A) (A) (A) (A) (A) (A) (A)
                 (A) (A) (A) (A) (A) (A) (A) (A) (A) (A) (A) (A)
       Virtual   (A) (A) (A) (A) (A) (A) (A) (A) (A) (A) (A) (A)
                 (A) (A) (A) (A) (A) (A) (A) (A) (A) (A) (A) (A)
                 (A) (A) (A) (A) (A) (A) (A) (A) (A) (A) (A) (A)
                 (A) (A) (A) (A) (A) (A) (A) (A) (A) (A) (A) (A)
                 (A) (A) (A) (A) (A) (A) (A) (A) (A) (A) (A) (A)
                 (A) (A) (A) (A) (A) (A) (A) (A) (A) (A) (A) (A)
                 (A) (A) (A) (A) (A) (A) (A) (A) (A) (A) (A) (A)
                 (A) (A) (A) (A) (A) (A) (A) (A) (A) (A) (A) (A)
                 (A) (A) (A) (A) (A) (A) (A) (A) (A) (A) (A) (A)
                 (A) (A) (A) (A) (A) (A) (A) (A) (A) (A) (A) (A)
                 (A) (A) (A) (A) (A) (A) (A) (A) (A) (A) (A) (A)
                 (A) (A) (A) (A) (A) (A) (A) (A) (A) (A) (A) (A)
                 (A) (A) (A) (A) (A) (A) (A) (A) (A) (A) (A) (A)
                 (A) (A) (A) (A) (A) (A) (A) (A) (A) (A) (A) (A)
                 (A) (A) (A) (A) (A) (A) (A) (A) (A) (A) (A) (A)
                 (A) (A) (A) (A) (A) (A) (A) (A) (A) (A) (A) (A)
                 (A) (A) (A) (A) (A) (A) (A) (A) (A) (A) (A) (A)
                 (A) (A) (A) (A) (A) (A) (A) (A) (A) (A) (A) (A)
                 (A) (A) (A) (A) (A) (A) (A) (A) (A) (A) (A) (A)
                 (A) (A) (A) (A) (A) (A) (A) (A) (A) (A) (A) (A)
                 (A) (A) (A) (A) (A) (A) (A) (A) (A) (A) (A) (A)
                 (A) (A) (A) (A) (A) (A) (A) (A) (A) (A) (A) (A)
                 (A) (A) (A) (A) (A) (A) (A) (A) (A) (A) (A) (A)
                 (A) (A) (A) (A) (A) (A) (A) (A) (A) (A) (A) (A)
                 (A) (A) (A) (A) (A) (A) (A) (A) (A) (A) (A) (A)
                 (A) (A) (A) (A) (A) (A) (A) (A) (A) (A) (A) (A)
                 (A) (A) (A) (A) (A) (A) (A) (A) (A) (A) (A) (A)
                 (A) (A) (A) (A) (A) (A) (A) (A) (A) (A) (A) (A)
                 (A) (A) (A) (A) (A) (A) (A) (A) (A) (A) (A) (A)
                 (A) (A) (A) (A) (A) (A) (A) (A) (A) (A) (A) (A)
                 (A) (A) (A)
 The electronic state is 1-A.
 Alpha  occ. eigenvalues -- -102.69153 -25.28147 -25.27722 -25.27721 -19.68477
 Alpha  occ. eigenvalues --  -19.62420 -14.81426 -10.80648 -10.72041 -10.63219
 Alpha  occ. eigenvalues --  -10.63038 -10.60787 -10.59165 -10.58125 -10.57650
 Alpha  occ. eigenvalues --  -10.57143 -10.55176 -10.54124  -9.83421  -7.55937
 Alpha  occ. eigenvalues --   -7.55254  -7.55244  -1.47375  -1.38089  -1.37582
 Alpha  occ. eigenvalues --   -1.26565  -1.16651  -1.09024  -1.02105  -0.96659
 Alpha  occ. eigenvalues --   -0.91875  -0.89796  -0.85980  -0.82364  -0.81174
 Alpha  occ. eigenvalues --   -0.74963  -0.74754  -0.70430  -0.69634  -0.69428
 Alpha  occ. eigenvalues --   -0.68142  -0.67452  -0.64473  -0.60845  -0.60495
 Alpha  occ. eigenvalues --   -0.60142  -0.58175  -0.57738  -0.56684  -0.55469
 Alpha  occ. eigenvalues --   -0.55076  -0.53635  -0.53575  -0.52308  -0.51921
 Alpha  occ. eigenvalues --   -0.51484  -0.50576  -0.50094  -0.48236  -0.47349
 Alpha  occ. eigenvalues --   -0.46454  -0.44960  -0.44688  -0.43963  -0.42062
 Alpha  occ. eigenvalues --   -0.41832  -0.39776  -0.39568  -0.39229  -0.38158
 Alpha  occ. eigenvalues --   -0.33012  -0.30219
 Alpha virt. eigenvalues --   -0.02090  -0.00692  -0.00441   0.01207   0.01985
 Alpha virt. eigenvalues --    0.02618   0.02805   0.03298   0.03367   0.04546
 Alpha virt. eigenvalues --    0.04586   0.05152   0.05585   0.06406   0.06499
 Alpha virt. eigenvalues --    0.06720   0.07014   0.07314   0.07709   0.07950
 Alpha virt. eigenvalues --    0.08885   0.09151   0.09373   0.09815   0.11316
 Alpha virt. eigenvalues --    0.11832   0.11872   0.12141   0.12667   0.12867
 Alpha virt. eigenvalues --    0.13229   0.13683   0.14039   0.14523   0.15737
 Alpha virt. eigenvalues --    0.16160   0.16939   0.16957   0.17334   0.17806
 Alpha virt. eigenvalues --    0.18258   0.19084   0.19436   0.19598   0.19631
 Alpha virt. eigenvalues --    0.20032   0.20496   0.20976   0.21343   0.22030
 Alpha virt. eigenvalues --    0.22292   0.22629   0.23161   0.23183   0.23804
 Alpha virt. eigenvalues --    0.24357   0.24840   0.24964   0.25314   0.25511
 Alpha virt. eigenvalues --    0.26089   0.26348   0.26749   0.27383   0.27601
 Alpha virt. eigenvalues --    0.28260   0.28795   0.29080   0.29652   0.29931
 Alpha virt. eigenvalues --    0.30329   0.30524   0.31104   0.31358   0.32266
 Alpha virt. eigenvalues --    0.33020   0.33633   0.33847   0.34666   0.35163
 Alpha virt. eigenvalues --    0.36331   0.36428   0.36512   0.37969   0.38423
 Alpha virt. eigenvalues --    0.39098   0.39207   0.40441   0.40727   0.41446
 Alpha virt. eigenvalues --    0.42221   0.42517   0.42914   0.44393   0.44840
 Alpha virt. eigenvalues --    0.44898   0.46202   0.47575   0.47623   0.47836
 Alpha virt. eigenvalues --    0.48262   0.48980   0.50148   0.51035   0.51592
 Alpha virt. eigenvalues --    0.51887   0.54030   0.55450   0.55503   0.57396
 Alpha virt. eigenvalues --    0.57798   0.59351   0.59453   0.60848   0.61653
 Alpha virt. eigenvalues --    0.61973   0.62628   0.62892   0.64324   0.64495
 Alpha virt. eigenvalues --    0.65464   0.66735   0.67213   0.68856   0.69045
 Alpha virt. eigenvalues --    0.69114   0.69556   0.69812   0.71629   0.72011
 Alpha virt. eigenvalues --    0.72071   0.72374   0.73740   0.74527   0.74616
 Alpha virt. eigenvalues --    0.75890   0.76567   0.77215   0.77924   0.79592
 Alpha virt. eigenvalues --    0.80295   0.81130   0.83395   0.85225   0.87712
 Alpha virt. eigenvalues --    0.88992   0.89421   0.90509   0.91206   0.91481
 Alpha virt. eigenvalues --    0.92726   0.93024   0.93730   0.97466   0.98088
 Alpha virt. eigenvalues --    0.98489   0.99015   1.00375   1.02675   1.03216
 Alpha virt. eigenvalues --    1.03987   1.04214   1.05651   1.08508   1.10330
 Alpha virt. eigenvalues --    1.10494   1.11211   1.11221   1.14225   1.14644
 Alpha virt. eigenvalues --    1.19002   1.19201   1.20211   1.21222   1.22628
 Alpha virt. eigenvalues --    1.23086   1.24662   1.26820   1.29309   1.30226
 Alpha virt. eigenvalues --    1.30505   1.33332   1.35752   1.38196   1.38459
 Alpha virt. eigenvalues --    1.40199   1.43213   1.44038   1.46306   1.46605
 Alpha virt. eigenvalues --    1.47396   1.48879   1.50097   1.50709   1.51095
 Alpha virt. eigenvalues --    1.53203   1.53626   1.55820   1.57077   1.58290
 Alpha virt. eigenvalues --    1.58439   1.58813   1.60039   1.60107   1.61811
 Alpha virt. eigenvalues --    1.62816   1.63128   1.64424   1.67056   1.71130
 Alpha virt. eigenvalues --    1.72460   1.73554   1.76387   1.77475   1.78038
 Alpha virt. eigenvalues --    1.79600   1.79759   1.82255   1.83152   1.85654
 Alpha virt. eigenvalues --    1.85705   1.86227   1.88777   1.89118   1.89265
 Alpha virt. eigenvalues --    1.94099   1.95408   1.97601   1.97870   1.98543
 Alpha virt. eigenvalues --    2.03116   2.06176   2.06882   2.08015   2.09391
 Alpha virt. eigenvalues --    2.12104   2.16166   2.18092   2.18469   2.22067
 Alpha virt. eigenvalues --    2.24329   2.29814   2.31776   2.32794   2.35518
 Alpha virt. eigenvalues --    2.36210   2.42478   2.42592   2.46525   2.49632
 Alpha virt. eigenvalues --    2.50892   2.53769   2.54046   2.55314   2.58932
 Alpha virt. eigenvalues --    2.60128   2.60427   2.64294   2.65111   2.69129
 Alpha virt. eigenvalues --    2.69866   2.72908   2.74243   2.80199   2.81413
 Alpha virt. eigenvalues --    2.81967   2.84912   2.90574   2.92256   2.93720
 Alpha virt. eigenvalues --    2.95839   3.00683   3.01785   3.01873   3.03747
 Alpha virt. eigenvalues --    3.04759   3.05982   3.10396   3.10807   3.11411
 Alpha virt. eigenvalues --    3.17312   3.17881   3.20290   3.23480   3.25437
 Alpha virt. eigenvalues --    3.28254   3.28583   3.28969   3.33507   3.35944
 Alpha virt. eigenvalues --    3.38938   3.40785   3.44164   3.45751   3.51187
 Alpha virt. eigenvalues --    3.55361   3.66244   3.70882   3.72866   3.75959
 Alpha virt. eigenvalues --    3.80361   3.81580   3.84100   3.84413   3.86610
 Alpha virt. eigenvalues --    3.87039   3.88395   3.90313   3.96559   3.96586
 Alpha virt. eigenvalues --    4.00120   4.00877   4.02720   4.07775   4.09803
 Alpha virt. eigenvalues --    4.10770   4.18084   4.23153   4.28107   4.31893
 Alpha virt. eigenvalues --    4.55576   4.76459   4.79317   4.98063   5.02389
 Alpha virt. eigenvalues --    5.07885   5.09557   5.15583   5.37015   5.49801
 Alpha virt. eigenvalues --    5.79855   5.95771   6.45039   6.48566   6.49893
 Alpha virt. eigenvalues --    6.52865   6.53917   6.58127   6.63030   6.87155
 Alpha virt. eigenvalues --    6.92561   9.96670  23.44542  23.56291  23.65182
 Alpha virt. eigenvalues --   23.71143  23.80594  23.91521  23.92427  23.96041
 Alpha virt. eigenvalues --   24.08686  24.10682  24.19380  25.92852  26.22381
 Alpha virt. eigenvalues --   26.73931  35.64926  50.01250  50.13383  66.88306
 Alpha virt. eigenvalues --   66.91644  66.97177 216.06862
          Condensed to atoms (all electrons):
               1          2          3          4          5          6
     1  C   25.592110  -0.531723  -0.811039  -0.205807  -0.271366  -0.501450
     2  N   -0.531723   7.667914   0.183675  -0.002646  -0.232980  -0.264146
     3  C   -0.811039   0.183675   8.121372   0.477173   0.324410  -0.531609
     4  O   -0.205807  -0.002646   0.477173   8.045312  -0.194254  -0.173277
     5  O   -0.271366  -0.232980   0.324410  -0.194254   8.346632   0.309928
     6  C   -0.501450  -0.264146  -0.531609  -0.173277   0.309928   7.958660
     7  C   -0.043592   0.026490   0.073063   0.028270  -0.170697  -0.868262
     8  C   -0.009375  -0.003528  -0.214560   0.001836   0.030324   0.280625
     9  C   -1.989783   0.273523  -0.461749   0.349464  -0.047080  -0.251208
    10  C   -4.778844   0.218847  -0.230242   0.059212   0.018240  -0.027339
    11  C   -8.180512   0.081374  -0.098352  -0.039671  -0.007252  -0.008396
    12  C    2.095304  -0.020372  -0.880468   0.012879   0.007214  -0.096145
    13  C   -0.957604  -0.183117  -0.046092  -0.083933   0.006002  -0.047990
    14  H   -0.013939   0.260385   0.007566   0.000832   0.022176  -0.009127
    15  H    0.006272   0.005374   0.042492  -0.002584  -0.043970   0.352572
    16  H    0.006245   0.005385   0.042446  -0.002581  -0.043976   0.352604
    17  H   -0.000124  -0.000732   0.007586  -0.000327   0.000862  -0.064660
    18  H   -0.000136  -0.000730   0.007511  -0.000327   0.000864  -0.064621
    19  H   -0.000126  -0.000040  -0.000995  -0.000084  -0.000436  -0.048124
    20  H    0.000107   0.000037   0.007053   0.000033  -0.000667   0.090362
    21  H   -0.000125  -0.000040  -0.000961  -0.000084  -0.000437  -0.048106
    22  H    0.090058  -0.026784   0.074947   0.008266   0.002546   0.006635
    23  Cl   0.340045  -0.014516  -0.053065   0.000254  -0.000033  -0.002354
    24  H    0.034275  -0.019169  -0.011755   0.000210  -0.000897  -0.001289
    25  C   -2.693337   0.055246  -0.060593   0.008765   0.005284  -0.012936
    26  H    0.038765   0.000722   0.003109  -0.000003   0.000002   0.000035
    27  F    0.025015   0.000442  -0.000381   0.000030  -0.000001  -0.000020
    28  F    0.025045   0.000442  -0.000378   0.000030  -0.000001  -0.000020
    29  F    0.213085  -0.000869   0.010992   0.000080  -0.000010   0.000325
               7          8          9         10         11         12
     1  C   -0.043592  -0.009375  -1.989783  -4.778844  -8.180512   2.095304
     2  N    0.026490  -0.003528   0.273523   0.218847   0.081374  -0.020372
     3  C    0.073063  -0.214560  -0.461749  -0.230242  -0.098352  -0.880468
     4  O    0.028270   0.001836   0.349464   0.059212  -0.039671   0.012879
     5  O   -0.170697   0.030324  -0.047080   0.018240  -0.007252   0.007214
     6  C   -0.868262   0.280625  -0.251208  -0.027339  -0.008396  -0.096145
     7  C    6.488387  -0.121973  -0.004299  -0.006884   0.002515  -0.003324
     8  C   -0.121973   6.044982  -0.011743  -0.000781   0.000020  -0.000753
     9  C   -0.004299  -0.011743  14.693138   4.352989  -5.303677  -0.065809
    10  C   -0.006884  -0.000781   4.352989  22.717925 -11.243282   4.985746
    11  C    0.002515   0.000020  -5.303677 -11.243282  36.411880 -15.171849
    12  C   -0.003324  -0.000753  -0.065809   4.985746 -15.171849  23.659684
    13  C    0.015090  -0.000006  -4.340425  -4.399962   4.214579  -3.345685
    14  H   -0.001107  -0.000650   0.032064   0.021180  -0.024695   0.021869
    15  H   -0.024248  -0.014642  -0.000555   0.000028   0.000148   0.000004
    16  H   -0.024209  -0.014645  -0.000559   0.000029   0.000148   0.000003
    17  H    0.442266  -0.045219   0.000388   0.000018   0.000004   0.000001
    18  H    0.442289  -0.045196   0.000385   0.000017   0.000004   0.000001
    19  H    0.014175   0.379814   0.000023  -0.000001   0.000000  -0.000001
    20  H   -0.137445   0.393074   0.000036   0.000000  -0.000000   0.000000
    21  H    0.014160   0.379780   0.000023  -0.000001   0.000000  -0.000001
    22  H   -0.000489   0.000033   0.235837  -0.145206   0.025721  -0.025041
    23  Cl  -0.000056  -0.000005   0.194843   0.227046  -0.633635  -0.679350
    24  H    0.000061  -0.000002  -0.064528   0.036455  -0.035873   0.120010
    25  C   -0.000888  -0.000212  -1.684927  -5.285677   5.849252  -5.056809
    26  H   -0.000000   0.000000  -0.005431   0.069352   0.051161   0.142234
    27  F    0.000000  -0.000000   0.053971   0.229785  -0.341226   0.064996
    28  F    0.000000  -0.000000   0.053938   0.230003  -0.341209   0.064831
    29  F    0.000016   0.000000   0.028692  -0.240159   0.051374   0.052564
              13         14         15         16         17         18
     1  C   -0.957604  -0.013939   0.006272   0.006245  -0.000124  -0.000136
     2  N   -0.183117   0.260385   0.005374   0.005385  -0.000732  -0.000730
     3  C   -0.046092   0.007566   0.042492   0.042446   0.007586   0.007511
     4  O   -0.083933   0.000832  -0.002584  -0.002581  -0.000327  -0.000327
     5  O    0.006002   0.022176  -0.043970  -0.043976   0.000862   0.000864
     6  C   -0.047990  -0.009127   0.352572   0.352604  -0.064660  -0.064621
     7  C    0.015090  -0.001107  -0.024248  -0.024209   0.442266   0.442289
     8  C   -0.000006  -0.000650  -0.014642  -0.014645  -0.045219  -0.045196
     9  C   -4.340425   0.032064  -0.000555  -0.000559   0.000388   0.000385
    10  C   -4.399962   0.021180   0.000028   0.000029   0.000018   0.000017
    11  C    4.214579  -0.024695   0.000148   0.000148   0.000004   0.000004
    12  C   -3.345685   0.021869   0.000004   0.000003   0.000001   0.000001
    13  C   14.417807  -0.052268   0.000701   0.000704   0.000030   0.000033
    14  H   -0.052268   0.321406  -0.000002  -0.000002  -0.000004  -0.000004
    15  H    0.000701  -0.000002   0.448871  -0.040350   0.005462  -0.007855
    16  H    0.000704  -0.000002  -0.040350   0.448865  -0.007855   0.005461
    17  H    0.000030  -0.000004   0.005462  -0.007855   0.445688  -0.036996
    18  H    0.000033  -0.000004  -0.007855   0.005461  -0.036996   0.445687
    19  H    0.000004  -0.000000  -0.000536   0.003778  -0.008104   0.006153
    20  H   -0.000010  -0.000000  -0.000208  -0.000208  -0.003256  -0.003255
    21  H    0.000004  -0.000000   0.003777  -0.000535   0.006152  -0.008105
    22  H    0.037438  -0.000004  -0.000035  -0.000035  -0.000000  -0.000000
    23  Cl  -0.157321   0.000775   0.000000   0.000000   0.000000   0.000000
    24  H    0.266298   0.006260  -0.000000  -0.000000  -0.000000  -0.000000
    25  C    1.056831   0.001363  -0.000033  -0.000033   0.000000   0.000000
    26  H   -0.013035   0.000000  -0.000000  -0.000000   0.000000   0.000000
    27  F   -0.016660   0.000001  -0.000000   0.000000  -0.000000  -0.000000
    28  F   -0.016665   0.000001   0.000000  -0.000000  -0.000000  -0.000000
    29  F   -0.006353   0.000002   0.000000   0.000000   0.000000   0.000000
              19         20         21         22         23         24
     1  C   -0.000126   0.000107  -0.000125   0.090058   0.340045   0.034275
     2  N   -0.000040   0.000037  -0.000040  -0.026784  -0.014516  -0.019169
     3  C   -0.000995   0.007053  -0.000961   0.074947  -0.053065  -0.011755
     4  O   -0.000084   0.000033  -0.000084   0.008266   0.000254   0.000210
     5  O   -0.000436  -0.000667  -0.000437   0.002546  -0.000033  -0.000897
     6  C   -0.048124   0.090362  -0.048106   0.006635  -0.002354  -0.001289
     7  C    0.014175  -0.137445   0.014160  -0.000489  -0.000056   0.000061
     8  C    0.379814   0.393074   0.379780   0.000033  -0.000005  -0.000002
     9  C    0.000023   0.000036   0.000023   0.235837   0.194843  -0.064528
    10  C   -0.000001   0.000000  -0.000001  -0.145206   0.227046   0.036455
    11  C    0.000000  -0.000000   0.000000   0.025721  -0.633635  -0.035873
    12  C   -0.000001   0.000000  -0.000001  -0.025041  -0.679350   0.120010
    13  C    0.000004  -0.000010   0.000004   0.037438  -0.157321   0.266298
    14  H   -0.000000  -0.000000  -0.000000  -0.000004   0.000775   0.006260
    15  H   -0.000536  -0.000208   0.003777  -0.000035   0.000000  -0.000000
    16  H    0.003778  -0.000208  -0.000535  -0.000035   0.000000  -0.000000
    17  H   -0.008104  -0.003256   0.006152  -0.000000   0.000000  -0.000000
    18  H    0.006153  -0.003255  -0.008105  -0.000000   0.000000  -0.000000
    19  H    0.457083  -0.024925  -0.037661  -0.000000  -0.000000  -0.000000
    20  H   -0.024925   0.429882  -0.024924   0.000000   0.000000   0.000000
    21  H   -0.037661  -0.024924   0.457073  -0.000000  -0.000000  -0.000000
    22  H   -0.000000   0.000000  -0.000000   0.334488   0.000208  -0.000041
    23  Cl  -0.000000   0.000000  -0.000000   0.000208  17.541709  -0.009025
    24  H   -0.000000   0.000000  -0.000000  -0.000041  -0.009025   0.416429
    25  C   -0.000000   0.000000  -0.000000   0.035296  -0.165755   0.003835
    26  H    0.000000   0.000000   0.000000  -0.000171  -0.018630  -0.000225
    27  F   -0.000000   0.000000  -0.000000   0.000115  -0.000480  -0.000001
    28  F   -0.000000   0.000000  -0.000000   0.000115  -0.000480  -0.000001
    29  F    0.000000   0.000000   0.000000   0.011143  -0.000177   0.000001
              25         26         27         28         29
     1  C   -2.693337   0.038765   0.025015   0.025045   0.213085
     2  N    0.055246   0.000722   0.000442   0.000442  -0.000869
     3  C   -0.060593   0.003109  -0.000381  -0.000378   0.010992
     4  O    0.008765  -0.000003   0.000030   0.000030   0.000080
     5  O    0.005284   0.000002  -0.000001  -0.000001  -0.000010
     6  C   -0.012936   0.000035  -0.000020  -0.000020   0.000325
     7  C   -0.000888  -0.000000   0.000000   0.000000   0.000016
     8  C   -0.000212   0.000000  -0.000000  -0.000000   0.000000
     9  C   -1.684927  -0.005431   0.053971   0.053938   0.028692
    10  C   -5.285677   0.069352   0.229785   0.230003  -0.240159
    11  C    5.849252   0.051161  -0.341226  -0.341209   0.051374
    12  C   -5.056809   0.142234   0.064996   0.064831   0.052564
    13  C    1.056831  -0.013035  -0.016660  -0.016665  -0.006353
    14  H    0.001363   0.000000   0.000001   0.000001   0.000002
    15  H   -0.000033  -0.000000  -0.000000   0.000000   0.000000
    16  H   -0.000033  -0.000000   0.000000  -0.000000   0.000000
    17  H    0.000000   0.000000  -0.000000  -0.000000   0.000000
    18  H    0.000000   0.000000  -0.000000  -0.000000   0.000000
    19  H   -0.000000   0.000000  -0.000000  -0.000000   0.000000
    20  H    0.000000   0.000000   0.000000   0.000000   0.000000
    21  H   -0.000000   0.000000  -0.000000  -0.000000   0.000000
    22  H    0.035296  -0.000171   0.000115   0.000115   0.011143
    23  Cl  -0.165755  -0.018630  -0.000480  -0.000480  -0.000177
    24  H    0.003835  -0.000225  -0.000001  -0.000001   0.000001
    25  C   12.771548   0.044350   0.153699   0.153662   0.050382
    26  H    0.044350   0.389544  -0.000698  -0.000703   0.000432
    27  F    0.153699  -0.000698   8.972027  -0.055035  -0.031306
    28  F    0.153662  -0.000703  -0.055035   8.971993  -0.031330
    29  F    0.050382   0.000432  -0.031306  -0.031330   9.017484
 Mulliken charges:
               1
     1  C   -1.477445
     2  N   -0.478464
     3  C    0.018844
     4  O   -0.287069
     5  O   -0.060424
     6  C   -0.330667
     7  C   -0.139311
     8  C   -1.027199
     9  C   -0.037541
    10  C   -0.808494
    11  C    0.741449
    12  C    0.118263
    13  C   -0.348395
    14  H    0.405921
    15  H    0.269316
    16  H    0.269319
    17  H    0.258823
    18  H    0.258820
    19  H    0.260003
    20  H    0.274313
    21  H    0.260009
    22  H    0.334961
    23  Cl   0.430001
    24  H    0.258972
    25  C    0.771685
    26  H    0.299192
    27  F   -0.054273
    28  F   -0.054238
    29  F   -0.126370
 Sum of Mulliken charges =  -0.00000
 Mulliken charges with hydrogens summed into heavy atoms:
               1
     1  C   -1.477445
     2  N   -0.072543
     3  C    0.018844
     4  O   -0.287069
     5  O   -0.060424
     6  C    0.207968
     7  C    0.378332
     8  C   -0.232874
     9  C    0.297420
    10  C   -0.808494
    11  C    1.040641
    12  C    0.118263
    13  C   -0.089423
    23  Cl   0.430001
    25  C    0.771685
    27  F   -0.054273
    28  F   -0.054238
    29  F   -0.126370
 Electronic spatial extent (au):  <R**2>=           8012.7703
 Charge=             -0.0000 electrons
 Dipole moment (field-independent basis, Debye):
    X=             -4.3899    Y=              3.2115    Z=             -0.0001  Tot=              5.4392
 Quadrupole moment (field-independent basis, Debye-Ang):
   XX=            -99.6517   YY=           -116.0246   ZZ=           -113.3344
   XY=             -0.0523   XZ=             -0.0006   YZ=              0.0004
 Traceless Quadrupole moment (field-independent basis, Debye-Ang):
   XX=             10.0185   YY=             -6.3543   ZZ=             -3.6642
   XY=             -0.0523   XZ=             -0.0006   YZ=              0.0004
 Octapole moment (field-independent basis, Debye-Ang**2):
  XXX=            -79.9197  YYY=            -13.8304  ZZZ=              0.0014  XYY=             -6.7605
  XXY=             -2.3074  XXZ=              0.0051  XZZ=              0.4192  YZZ=            -14.4003
  YYZ=             -0.0019  XYZ=              0.0006
 Hexadecapole moment (field-independent basis, Debye-Ang**3):
 XXXX=          -7371.5879 YYYY=          -2005.8314 ZZZZ=           -203.1456 XXXY=            -47.7974
 XXXZ=              0.0209 YYYX=           -106.0189 YYYZ=             -0.0017 ZZZX=             -0.0034
 ZZZY=              0.0026 XXYY=          -1733.6872 XXZZ=          -1375.3707 YYZZ=           -377.5614
 XXYZ=              0.0062 YYXZ=              0.0054 ZZXY=            -25.0335
 N-N= 1.424711719769D+03 E-N=-6.127991987461D+03  KE= 1.386779155518D+03
 Calling FoFJK, ICntrl=      2127 FMM=F ISym2X=0 I1Cent= 0 IOpClX= 0 NMat=1 NMatS=1 NMatT=0.
 ***** Axes restored to original set *****
 -------------------------------------------------------------------
 Center     Atomic                   Forces (Hartrees/Bohr)
 Number     Number              X              Y              Z
 -------------------------------------------------------------------
      1        6           0.000000256    0.000000202   -0.000001982
      2        7           0.000001339    0.000002057    0.000004314
      3        6          -0.000000381   -0.000001139   -0.000000222
      4        8           0.000002619   -0.000000881   -0.000000131
      5        8          -0.000003981   -0.000004910   -0.000001089
      6        6           0.000000511    0.000001086   -0.000000412
      7        6          -0.000001382   -0.000001454    0.000000049
      8        6          -0.000001118   -0.000002852   -0.000000246
      9        6           0.000001571    0.000000622    0.000000079
     10        6           0.000000093    0.000003957    0.000001107
     11        6           0.000000932    0.000001875   -0.000000552
     12        6          -0.000001196    0.000001674    0.000000544
     13        6          -0.000000698    0.000001539    0.000000434
     14        1          -0.000000676   -0.000001214   -0.000001532
     15        1           0.000000390   -0.000000896    0.000001218
     16        1           0.000000070   -0.000000756   -0.000001023
     17        1          -0.000001106   -0.000002662   -0.000001100
     18        1          -0.000000907   -0.000002761    0.000000748
     19        1          -0.000000334   -0.000002768   -0.000001160
     20        1          -0.000000698   -0.000004456   -0.000000017
     21        1          -0.000000357   -0.000002608    0.000000648
     22        1           0.000000260    0.000000608    0.000000067
     23       17          -0.000001661    0.000002548   -0.000000000
     24        1          -0.000001258    0.000001539    0.000000054
     25        6          -0.000000300   -0.000000347    0.000001051
     26        1           0.000000500    0.000003033    0.000000339
     27        9           0.000002350    0.000003455   -0.000003026
     28        9          -0.000002450    0.000001172    0.000005243
     29        9           0.000007610    0.000004338   -0.000003401
 -------------------------------------------------------------------
 Cartesian Forces:  Max     0.000007610 RMS     0.000002046

 GradGradGradGradGradGradGradGradGradGradGradGradGradGradGradGradGradGrad
 Berny optimization.
 FormGI is forming the generalized inverse of G from B-inverse, IUseBI=4.
 GSVD:  received Info=                   1 from GESDD.
 Internal  Forces:  Max     0.000009107 RMS     0.000001413
 Search for a local minimum.
 Step number   1 out of a maximum of  149
 All quantities printed in internal units (Hartrees-Bohrs-Radians)
 Mixed Optimization -- En-DIIS/RFO-DIIS
 Second derivative matrix not updated -- first step.
 ITU=  0
     Eigenvalues ---    0.00418   0.00591   0.00697   0.01209   0.01647
     Eigenvalues ---    0.01705   0.01871   0.01994   0.02043   0.02132
     Eigenvalues ---    0.02173   0.02178   0.02202   0.02233   0.02255
     Eigenvalues ---    0.02261   0.02283   0.02446   0.03813   0.04968
     Eigenvalues ---    0.05388   0.05503   0.05537   0.05716   0.08120
     Eigenvalues ---    0.10594   0.10956   0.11294   0.12018   0.13618
     Eigenvalues ---    0.16000   0.16000   0.16000   0.16000   0.16000
     Eigenvalues ---    0.16000   0.16000   0.21882   0.21941   0.22000
     Eigenvalues ---    0.23485   0.23504   0.23508   0.25000   0.25000
     Eigenvalues ---    0.25000   0.25000   0.25000   0.25000   0.25000
     Eigenvalues ---    0.25000   0.25000   0.29767   0.31026   0.31538
     Eigenvalues ---    0.31837   0.34426   0.34426   0.34505   0.34505
     Eigenvalues ---    0.34505   0.34505   0.34741   0.35463   0.35644
     Eigenvalues ---    0.36119   0.40067   0.42566   0.43069   0.45785
     Eigenvalues ---    0.46098   0.46406   0.46861   0.47922   0.47996
     Eigenvalues ---    0.50317   0.56548   0.56586   0.56586   0.58368
     Eigenvalues ---    1.03396
 RFO step:  Lambda= 0.00000000D+00 EMin= 4.17953048D-03
 Linear search not attempted -- first point.
 Iteration  1 RMS(Cart)=  0.00008915 RMS(Int)=  0.00000000
 Iteration  2 RMS(Cart)=  0.00000001 RMS(Int)=  0.00000000
 Variable       Old X    -DE/DX   Delta X   Delta X   Delta X     New X
                                 (Linear)    (Quad)   (Total)
    R1        2.64374   0.00000   0.00000   0.00000   0.00000   2.64375
    R2        2.64488   0.00000   0.00000   0.00000   0.00000   2.64489
    R3        2.63967   0.00000   0.00000   0.00000   0.00000   2.63967
    R4        2.59547  -0.00000   0.00000  -0.00000  -0.00000   2.59547
    R5        1.90721   0.00000   0.00000   0.00000   0.00000   1.90721
    R6        2.27309  -0.00000   0.00000  -0.00000  -0.00000   2.27309
    R7        2.53781  -0.00000   0.00000  -0.00000  -0.00000   2.53781
    R8        2.71463   0.00000   0.00000   0.00001   0.00001   2.71464
    R9        2.85964   0.00000   0.00000   0.00000   0.00000   2.85964
   R10        2.06486   0.00000   0.00000   0.00000   0.00000   2.06486
   R11        2.06486   0.00000   0.00000   0.00000   0.00000   2.06486
   R12        2.88430  -0.00000   0.00000  -0.00000  -0.00000   2.88430
   R13        2.06618   0.00000   0.00000   0.00000   0.00000   2.06618
   R14        2.06618   0.00000   0.00000   0.00000   0.00000   2.06618
   R15        2.06486   0.00000   0.00000   0.00000   0.00000   2.06486
   R16        2.06098   0.00000   0.00000   0.00000   0.00000   2.06098
   R17        2.06486   0.00000   0.00000   0.00000   0.00000   2.06486
   R18        2.62014   0.00000   0.00000   0.00000   0.00000   2.62014
   R19        2.03895  -0.00000   0.00000  -0.00000  -0.00000   2.03895
   R20        2.62785   0.00000   0.00000   0.00000   0.00000   2.62785
   R21        2.84444   0.00000   0.00000   0.00000   0.00000   2.84444
   R22        2.61683   0.00000   0.00000   0.00000   0.00000   2.61683
   R23        2.04642   0.00000   0.00000   0.00000   0.00000   2.04642
   R24        2.61905   0.00000   0.00000   0.00000   0.00000   2.61905
   R25        3.28697   0.00000   0.00000   0.00000   0.00000   3.28698
   R26        2.04930  -0.00000   0.00000  -0.00000  -0.00000   2.04930
   R27        2.53749   0.00000   0.00000   0.00000   0.00000   2.53749
   R28        2.53749   0.00001   0.00000   0.00001   0.00001   2.53750
   R29        2.52256   0.00001   0.00000   0.00001   0.00001   2.52257
    A1        2.15101   0.00000   0.00000   0.00000   0.00000   2.15101
    A2        2.04313   0.00000   0.00000   0.00000   0.00000   2.04313
    A3        2.08905  -0.00000   0.00000  -0.00000  -0.00000   2.08904
    A4        2.22519   0.00000   0.00000   0.00000   0.00000   2.22519
    A5        2.04829   0.00000   0.00000   0.00000   0.00000   2.04829
    A6        2.00971  -0.00000   0.00000  -0.00000  -0.00000   2.00971
    A7        2.20724   0.00000   0.00000   0.00001   0.00001   2.20725
    A8        1.89906   0.00000   0.00000   0.00001   0.00001   1.89907
    A9        2.17688  -0.00000   0.00000  -0.00001  -0.00001   2.17687
   A10        2.01327  -0.00001   0.00000  -0.00004  -0.00004   2.01324
   A11        1.87953  -0.00000   0.00000  -0.00000  -0.00000   1.87953
   A12        1.89881   0.00000   0.00000   0.00000   0.00000   1.89881
   A13        1.89881  -0.00000   0.00000  -0.00000  -0.00000   1.89881
   A14        1.95146  -0.00000   0.00000  -0.00000  -0.00000   1.95146
   A15        1.95145   0.00000   0.00000   0.00000   0.00000   1.95146
   A16        1.88270  -0.00000   0.00000  -0.00000  -0.00000   1.88270
   A17        1.93553  -0.00000   0.00000  -0.00000  -0.00000   1.93553
   A18        1.90258   0.00000   0.00000   0.00000   0.00000   1.90259
   A19        1.90259   0.00000   0.00000   0.00000   0.00000   1.90259
   A20        1.92705  -0.00000   0.00000  -0.00000  -0.00000   1.92705
   A21        1.92705  -0.00000   0.00000  -0.00000  -0.00000   1.92705
   A22        1.86752   0.00000   0.00000   0.00000   0.00000   1.86752
   A23        1.94254  -0.00000   0.00000  -0.00000  -0.00000   1.94254
   A24        1.93773  -0.00000   0.00000  -0.00000  -0.00000   1.93773
   A25        1.94254  -0.00000   0.00000  -0.00000  -0.00000   1.94254
   A26        1.87908   0.00000   0.00000   0.00000   0.00000   1.87908
   A27        1.87997   0.00000   0.00000   0.00000   0.00000   1.87997
   A28        1.87908   0.00000   0.00000   0.00000   0.00000   1.87908
   A29        2.06966   0.00000   0.00000   0.00000   0.00000   2.06967
   A30        2.10400   0.00000   0.00000   0.00000   0.00000   2.10400
   A31        2.10952  -0.00000   0.00000  -0.00000  -0.00000   2.10952
   A32        2.14083  -0.00000   0.00000  -0.00000  -0.00000   2.14083
   A33        2.09443   0.00000   0.00000   0.00000   0.00000   2.09443
   A34        2.04792   0.00000   0.00000   0.00000   0.00000   2.04792
   A35        2.05256   0.00000   0.00000   0.00000   0.00000   2.05256
   A36        2.12004  -0.00000   0.00000  -0.00000  -0.00000   2.12004
   A37        2.11059  -0.00000   0.00000  -0.00000  -0.00000   2.11059
   A38        2.12159  -0.00000   0.00000  -0.00000  -0.00000   2.12159
   A39        2.08593  -0.00000   0.00000   0.00000   0.00000   2.08593
   A40        2.07566   0.00000   0.00000   0.00000   0.00000   2.07566
   A41        2.09268   0.00000   0.00000   0.00000   0.00000   2.09268
   A42        2.10477  -0.00000   0.00000  -0.00000  -0.00000   2.10477
   A43        2.08573  -0.00000   0.00000  -0.00000  -0.00000   2.08573
   A44        1.94238  -0.00000   0.00000  -0.00001  -0.00001   1.94237
   A45        1.94238  -0.00000   0.00000  -0.00001  -0.00001   1.94237
   A46        1.96728  -0.00000   0.00000  -0.00000  -0.00000   1.96728
   A47        1.85876   0.00000   0.00000   0.00001   0.00001   1.85877
   A48        1.87389  -0.00000   0.00000  -0.00002  -0.00002   1.87387
   A49        1.87386   0.00000   0.00000   0.00002   0.00002   1.87388
    D1        0.00037  -0.00000   0.00000  -0.00005  -0.00005   0.00032
    D2        3.14154   0.00000   0.00000   0.00005   0.00005   3.14159
    D3       -3.14126  -0.00000   0.00000  -0.00006  -0.00006  -3.14131
    D4       -0.00008   0.00000   0.00000   0.00004   0.00004  -0.00004
    D5        3.14157  -0.00000   0.00000  -0.00002  -0.00002   3.14155
    D6       -0.00002  -0.00000   0.00000  -0.00001  -0.00001  -0.00003
    D7        0.00001  -0.00000   0.00000  -0.00001  -0.00001   0.00000
    D8       -3.14158   0.00000   0.00000   0.00000   0.00000  -3.14158
    D9       -3.14157   0.00000   0.00000   0.00002   0.00002  -3.14155
   D10        0.00002   0.00000   0.00000   0.00001   0.00001   0.00003
   D11       -0.00001   0.00000   0.00000   0.00001   0.00001  -0.00000
   D12        3.14159  -0.00000   0.00000  -0.00000  -0.00000   3.14158
   D13       -0.00027   0.00000   0.00000   0.00005   0.00005  -0.00023
   D14        3.14133   0.00000   0.00000   0.00009   0.00009   3.14142
   D15       -3.14146  -0.00000   0.00000  -0.00005  -0.00005  -3.14150
   D16        0.00015   0.00000   0.00000  -0.00000  -0.00000   0.00015
   D17        3.14157  -0.00000   0.00000  -0.00004  -0.00004   3.14152
   D18       -0.00001  -0.00000   0.00000  -0.00000  -0.00000  -0.00001
   D19       -3.14147  -0.00000   0.00000  -0.00002  -0.00002  -3.14149
   D20        1.02352  -0.00000   0.00000  -0.00002  -0.00002   1.02349
   D21       -1.02327  -0.00000   0.00000  -0.00002  -0.00002  -1.02329
   D22       -3.14157  -0.00000   0.00000  -0.00001  -0.00001  -3.14158
   D23        1.01646   0.00000   0.00000  -0.00001  -0.00001   1.01645
   D24       -1.01640  -0.00000   0.00000  -0.00001  -0.00001  -1.01641
   D25       -1.05656  -0.00000   0.00000  -0.00001  -0.00001  -1.05657
   D26        3.10147   0.00000   0.00000  -0.00001  -0.00001   3.10146
   D27        1.06861  -0.00000   0.00000  -0.00002  -0.00002   1.06860
   D28        1.05661  -0.00000   0.00000  -0.00001  -0.00001   1.05659
   D29       -1.06856   0.00000   0.00000  -0.00001  -0.00001  -1.06857
   D30       -3.10141  -0.00000   0.00000  -0.00002  -0.00002  -3.10143
   D31       -1.04857  -0.00000   0.00000  -0.00003  -0.00003  -1.04861
   D32       -3.14151  -0.00000   0.00000  -0.00003  -0.00003  -3.14155
   D33        1.04873  -0.00000   0.00000  -0.00003  -0.00003   1.04870
   D34        1.06220  -0.00000   0.00000  -0.00003  -0.00003   1.06217
   D35       -1.03074  -0.00000   0.00000  -0.00003  -0.00003  -1.03077
   D36       -3.12368   0.00000   0.00000  -0.00003  -0.00003  -3.12371
   D37        3.12383  -0.00000   0.00000  -0.00003  -0.00003   3.12379
   D38        1.03089  -0.00000   0.00000  -0.00003  -0.00003   1.03086
   D39       -1.06205  -0.00000   0.00000  -0.00003  -0.00003  -1.06208
   D40       -0.00001   0.00000   0.00000   0.00000   0.00000  -0.00000
   D41        3.14153   0.00000   0.00000   0.00002   0.00002   3.14155
   D42        3.14159  -0.00000   0.00000  -0.00001  -0.00001   3.14158
   D43       -0.00006   0.00000   0.00000   0.00001   0.00001  -0.00005
   D44       -0.00000   0.00000   0.00000   0.00001   0.00001   0.00000
   D45       -3.14158   0.00000   0.00000   0.00000   0.00000  -3.14158
   D46       -3.14154  -0.00000   0.00000  -0.00001  -0.00001  -3.14155
   D47        0.00006  -0.00000   0.00000  -0.00001  -0.00001   0.00005
   D48        2.10680  -0.00000   0.00000  -0.00004  -0.00004   2.10677
   D49       -2.10609  -0.00000   0.00000  -0.00003  -0.00003  -2.10613
   D50        0.00034   0.00000   0.00000  -0.00001  -0.00001   0.00032
   D51       -1.03484  -0.00000   0.00000  -0.00002  -0.00002  -1.03486
   D52        1.03545  -0.00000   0.00000  -0.00002  -0.00002   1.03543
   D53       -3.14131   0.00000   0.00000   0.00001   0.00001  -3.14130
   D54        0.00001  -0.00000   0.00000  -0.00001  -0.00001  -0.00000
   D55        3.14159   0.00000   0.00000   0.00001   0.00001  -3.14159
   D56        3.14159  -0.00000   0.00000  -0.00001  -0.00001   3.14158
   D57       -0.00001   0.00000   0.00000   0.00001   0.00001  -0.00000
   D58        0.00000   0.00000   0.00000   0.00000   0.00000   0.00000
   D59        3.14159   0.00000   0.00000   0.00001   0.00001  -3.14158
   D60       -3.14159  -0.00000   0.00000  -0.00001  -0.00001   3.14159
   D61        0.00000  -0.00000   0.00000  -0.00000  -0.00000   0.00000
         Item               Value     Threshold  Converged?
 Maximum Force            0.000009     0.000450     YES
 RMS     Force            0.000001     0.000300     YES
 Maximum Displacement     0.000280     0.001800     YES
 RMS     Displacement     0.000089     0.001200     YES
 Predicted change in Energy=-7.727694D-10
 Optimization completed.
    -- Stationary point found.
                           ----------------------------
                           !   Optimized Parameters   !
                           ! (Angstroms and Degrees)  !
 --------------------------                            --------------------------
 ! Name  Definition              Value          Derivative Info.                !
 --------------------------------------------------------------------------------
 ! R1    R(1,2)                  1.399          -DE/DX =    0.0                 !
 ! R2    R(1,9)                  1.3996         -DE/DX =    0.0                 !
 ! R3    R(1,13)                 1.3969         -DE/DX =    0.0                 !
 ! R4    R(2,3)                  1.3735         -DE/DX =    0.0                 !
 ! R5    R(2,14)                 1.0093         -DE/DX =    0.0                 !
 ! R6    R(3,4)                  1.2029         -DE/DX =    0.0                 !
 ! R7    R(3,5)                  1.343          -DE/DX =    0.0                 !
 ! R8    R(5,6)                  1.4365         -DE/DX =    0.0                 !
 ! R9    R(6,7)                  1.5133         -DE/DX =    0.0                 !
 ! R10   R(6,15)                 1.0927         -DE/DX =    0.0                 !
 ! R11   R(6,16)                 1.0927         -DE/DX =    0.0                 !
 ! R12   R(7,8)                  1.5263         -DE/DX =    0.0                 !
 ! R13   R(7,17)                 1.0934         -DE/DX =    0.0                 !
 ! R14   R(7,18)                 1.0934         -DE/DX =    0.0                 !
 ! R15   R(8,19)                 1.0927         -DE/DX =    0.0                 !
 ! R16   R(8,20)                 1.0906         -DE/DX =    0.0                 !
 ! R17   R(8,21)                 1.0927         -DE/DX =    0.0                 !
 ! R18   R(9,10)                 1.3865         -DE/DX =    0.0                 !
 ! R19   R(9,22)                 1.079          -DE/DX =    0.0                 !
 ! R20   R(10,11)                1.3906         -DE/DX =    0.0                 !
 ! R21   R(10,25)                1.5052         -DE/DX =    0.0                 !
 ! R22   R(11,12)                1.3848         -DE/DX =    0.0                 !
 ! R23   R(11,26)                1.0829         -DE/DX =    0.0                 !
 ! R24   R(12,13)                1.3859         -DE/DX =    0.0                 !
 ! R25   R(12,23)                1.7394         -DE/DX =    0.0                 !
 ! R26   R(13,24)                1.0844         -DE/DX =    0.0                 !
 ! R27   R(25,27)                1.3428         -DE/DX =    0.0                 !
 ! R28   R(25,28)                1.3428         -DE/DX =    0.0                 !
 ! R29   R(25,29)                1.3349         -DE/DX =    0.0                 !
 ! A1    A(2,1,9)              123.2437         -DE/DX =    0.0                 !
 ! A2    A(2,1,13)             117.0628         -DE/DX =    0.0                 !
 ! A3    A(9,1,13)             119.6935         -DE/DX =    0.0                 !
 ! A4    A(1,2,3)              127.4939         -DE/DX =    0.0                 !
 ! A5    A(1,2,14)             117.3582         -DE/DX =    0.0                 !
 ! A6    A(3,2,14)             115.1479         -DE/DX =    0.0                 !
 ! A7    A(2,3,4)              126.4657         -DE/DX =    0.0                 !
 ! A8    A(2,3,5)              108.8081         -DE/DX =    0.0                 !
 ! A9    A(4,3,5)              124.7262         -DE/DX =    0.0                 !
 ! A10   A(3,5,6)              115.3522         -DE/DX =    0.0                 !
 ! A11   A(5,6,7)              107.6893         -DE/DX =    0.0                 !
 ! A12   A(5,6,15)             108.7936         -DE/DX =    0.0                 !
 ! A13   A(5,6,16)             108.7938         -DE/DX =    0.0                 !
 ! A14   A(7,6,15)             111.8105         -DE/DX =    0.0                 !
 ! A15   A(7,6,16)             111.81           -DE/DX =    0.0                 !
 ! A16   A(15,6,16)            107.871          -DE/DX =    0.0                 !
 ! A17   A(6,7,8)              110.8977         -DE/DX =    0.0                 !
 ! A18   A(6,7,17)             109.01           -DE/DX =    0.0                 !
 ! A19   A(6,7,18)             109.0104         -DE/DX =    0.0                 !
 ! A20   A(8,7,17)             110.4119         -DE/DX =    0.0                 !
 ! A21   A(8,7,18)             110.4119         -DE/DX =    0.0                 !
 ! A22   A(17,7,18)            107.001          -DE/DX =    0.0                 !
 ! A23   A(7,8,19)             111.2993         -DE/DX =    0.0                 !
 ! A24   A(7,8,20)             111.0239         -DE/DX =    0.0                 !
 ! A25   A(7,8,21)             111.2994         -DE/DX =    0.0                 !
 ! A26   A(19,8,20)            107.6634         -DE/DX =    0.0                 !
 ! A27   A(19,8,21)            107.7142         -DE/DX =    0.0                 !
 ! A28   A(20,8,21)            107.6636         -DE/DX =    0.0                 !
 ! A29   A(1,9,10)             118.583          -DE/DX =    0.0                 !
 ! A30   A(1,9,22)             120.5503         -DE/DX =    0.0                 !
 ! A31   A(10,9,22)            120.8667         -DE/DX =    0.0                 !
 ! A32   A(9,10,11)            122.6607         -DE/DX =    0.0                 !
 ! A33   A(9,10,25)            120.002          -DE/DX =    0.0                 !
 ! A34   A(11,10,25)           117.3374         -DE/DX =    0.0                 !
 ! A35   A(10,11,12)           117.6029         -DE/DX =    0.0                 !
 ! A36   A(10,11,26)           121.4694         -DE/DX =    0.0                 !
 ! A37   A(12,11,26)           120.9278         -DE/DX =    0.0                 !
 ! A38   A(11,12,13)           121.5582         -DE/DX =    0.0                 !
 ! A39   A(11,12,23)           119.5151         -DE/DX =    0.0                 !
 ! A40   A(13,12,23)           118.9267         -DE/DX =    0.0                 !
 ! A41   A(1,13,12)            119.9017         -DE/DX =    0.0                 !
 ! A42   A(1,13,24)            120.5947         -DE/DX =    0.0                 !
 ! A43   A(12,13,24)           119.5036         -DE/DX =    0.0                 !
 ! A44   A(10,25,27)           111.29           -DE/DX =    0.0                 !
 ! A45   A(10,25,28)           111.2901         -DE/DX =    0.0                 !
 ! A46   A(10,25,29)           112.7168         -DE/DX =    0.0                 !
 ! A47   A(27,25,28)           106.4991         -DE/DX =    0.0                 !
 ! A48   A(27,25,29)           107.366          -DE/DX =    0.0                 !
 ! A49   A(28,25,29)           107.3642         -DE/DX =    0.0                 !
 ! D1    D(9,1,2,3)              0.021          -DE/DX =    0.0                 !
 ! D2    D(9,1,2,14)           179.997          -DE/DX =    0.0                 !
 ! D3    D(13,1,2,3)          -179.9808         -DE/DX =    0.0                 !
 ! D4    D(13,1,2,14)           -0.0048         -DE/DX =    0.0                 !
 ! D5    D(2,1,9,10)           179.9989         -DE/DX =    0.0                 !
 ! D6    D(2,1,9,22)            -0.0013         -DE/DX =    0.0                 !
 ! D7    D(13,1,9,10)            0.0007         -DE/DX =    0.0                 !
 ! D8    D(13,1,9,22)         -179.9995         -DE/DX =    0.0                 !
 ! D9    D(2,1,13,12)         -179.9989         -DE/DX =    0.0                 !
 ! D10   D(2,1,13,24)            0.0014         -DE/DX =    0.0                 !
 ! D11   D(9,1,13,12)           -0.0006         -DE/DX =    0.0                 !
 ! D12   D(9,1,13,24)          179.9997         -DE/DX =    0.0                 !
 ! D13   D(1,2,3,4)             -0.0157         -DE/DX =    0.0                 !
 ! D14   D(1,2,3,5)            179.9849         -DE/DX =    0.0                 !
 ! D15   D(14,2,3,4)          -179.9922         -DE/DX =    0.0                 !
 ! D16   D(14,2,3,5)             0.0084         -DE/DX =    0.0                 !
 ! D17   D(2,3,5,6)            179.9987         -DE/DX =    0.0                 !
 ! D18   D(4,3,5,6)             -0.0007         -DE/DX =    0.0                 !
 ! D19   D(3,5,6,7)           -179.9928         -DE/DX =    0.0                 !
 ! D20   D(3,5,6,15)            58.6432         -DE/DX =    0.0                 !
 ! D21   D(3,5,6,16)           -58.6293         -DE/DX =    0.0                 !
 ! D22   D(5,6,7,8)           -179.9986         -DE/DX =    0.0                 !
 ! D23   D(5,6,7,17)            58.2386         -DE/DX =    0.0                 !
 ! D24   D(5,6,7,18)           -58.2354         -DE/DX =    0.0                 !
 ! D25   D(15,6,7,8)           -60.5362         -DE/DX =    0.0                 !
 ! D26   D(15,6,7,17)          177.701          -DE/DX =    0.0                 !
 ! D27   D(15,6,7,18)           61.227          -DE/DX =    0.0                 !
 ! D28   D(16,6,7,8)            60.539          -DE/DX =    0.0                 !
 ! D29   D(16,6,7,17)          -61.2238         -DE/DX =    0.0                 !
 ! D30   D(16,6,7,18)         -177.6978         -DE/DX =    0.0                 !
 ! D31   D(6,7,8,19)           -60.0789         -DE/DX =    0.0                 !
 ! D32   D(6,7,8,20)          -179.9954         -DE/DX =    0.0                 !
 ! D33   D(6,7,8,21)            60.0877         -DE/DX =    0.0                 !
 ! D34   D(17,7,8,19)           60.8594         -DE/DX =    0.0                 !
[...]
 ,0.00000893,0.00000593,0.00000549,0.00000967,-0.00000498,0.00000789,-0
 .00001536,-0.00000028,-0.00005023,0.00001213,0.00000301,0.00000781,-0.
 00001516,-0.00000257,0.00032909,-0.00003249,-0.00004089,0.16368736,0.0
 0163933,-0.00018429,-0.00044730,-0.00103872,-0.00011943,0.00003117,0.0
 0157106,-0.00029010,-0.00007793,-0.00061629,0.00014355,0.00003222,-0.0
 0107603,0.00045049,0.00007955,0.00041988,0.00011128,-0.00000975,-0.000
 02307,-0.00006520,-0.00000380,-0.00000558,0.00005309,0.00000407,-0.002
 24971,0.00015814,0.00017573,0.00620450,-0.00348907,-0.00088490,-0.0363
 1182,-0.02738367,-0.00072662,-0.06865045,-0.09855898,-0.00250030,-0.00
 424654,0.00006356,-0.00010859,-0.00001384,-0.00014118,-0.00001088,-0.0
 0003166,-0.00002440,0.00000617,-0.00003181,-0.00002358,-0.00000696,0.0
 0000193,0.00000733,0.00000832,0.00000120,0.00000859,-0.00000746,0.0000
 0688,-0.00001037,-0.00000238,-0.00003523,0.00000962,0.00000225,0.00000
 696,-0.00001063,0.00000019,0.00014580,0.00018359,0.00004801,0.10593124
 ,0.12754484,0.00033708,-0.00065770,0.00496825,0.00003786,0.00007307,0.
 00006980,0.00001055,-0.00003559,-0.00014411,-0.00000681,0.00001703,0.0
 0006420,-0.00000732,0.00001651,-0.00001147,0.00000427,-0.00000068,-0.0
 0000265,0.00000032,-0.00000046,0.00000084,-0.00000011,0.00000038,0.000
 00030,-0.00018112,0.00018802,-0.00091350,0.00060855,-0.00059426,0.0049
 9063,-0.00216071,-0.00191062,0.00422576,-0.00071690,-0.00250845,-0.023
 30507,0.00137042,0.00103749,0.00411235,-0.00000737,-0.00000303,0.00001
 672,0.00000277,-0.00000121,0.00000028,-0.00000272,0.00000069,0.0000001
 0,-0.00000041,0.00000078,0.00000149,0.00000024,-0.00000059,0.00000069,
 -0.00000004,-0.00000062,0.00000029,-0.00000041,0.00000021,-0.00000051,
 0.00000041,0.00000035,0.00000063,-0.00002798,0.00005566,-0.00056183,0.
 00111899,0.00382358,0.01187907,0.00743818,-0.02255967,-0.00174555,0.00
 199401,-0.00128664,-0.00034027,-0.00053401,-0.00060437,-0.00006203,0.0
 0007761,0.00055137,0.00004589,0.00023590,0.00009619,-0.00000063,-0.000
 12391,-0.00004387,0.00000660,0.00001302,0.00001263,0.00000127,-0.00000
 186,-0.00001094,-0.00000096,-0.00362134,-0.00298243,0.00018155,-0.0014
 0201,-0.00040939,0.00000046,-0.00546431,0.00124257,0.00056598,-0.00052
 040,0.02972937,0.00227021,-0.06480051,0.04135420,0.00430133,-0.0012395
 4,0.00014039,0.00010549,0.00001903,0.00000751,0.00000489,0.00001756,0.
 00000898,-0.00000604,-0.00000522,-0.00000006,0.00000539,-0.00000605,0.
 00000121,-0.00000538,0.00000105,0.00000397,-0.00000198,0.00000816,-0.0
 0000188,-0.00000042,0.00000096,0.00000335,0.00000226,0.00048628,-0.001
 02796,-0.00010041,0.00039850,0.00058817,-0.00008954,0.06688904,0.00646
 425,-0.01442115,-0.00166495,0.00192578,0.00146215,0.00029493,-0.000815
 66,-0.00035866,0.00007790,0.00019754,0.00066713,0.00002424,0.00008279,
 0.00004125,-0.00000477,-0.00008740,-0.00001425,-0.00000482,0.00000328,
 0.00000449,-0.00000133,-0.00000212,-0.00000604,0.00000007,-0.00348698,
 -0.00070170,-0.00030656,-0.00060816,0.00071607,0.00012866,0.00183253,0
 .00150688,-0.00037537,-0.00099535,-0.00804704,-0.00070507,0.04341390,-
 0.33630914,-0.02369823,-0.00159564,0.00013330,0.00000729,0.00001264,0.
 00000347,0.00000361,0.00001405,0.00000282,-0.00000298,-0.00000404,0.00
 000234,0.00000272,-0.00000359,0.00000180,-0.00000117,0.00000018,0.0000
 0188,-0.00000141,0.00000551,-0.00000147,-0.00000045,0.00000078,0.00000
 217,0.00000196,0.00058116,-0.00063158,-0.00006189,-0.00064162,0.001173
 12,0.00030551,-0.04624893,0.35515008,0.00035285,-0.00041696,0.00472183
 ,-0.00010806,0.00043293,-0.00372548,-0.00007728,0.00006900,-0.00094700
 ,0.00002015,0.00000897,0.00021583,-0.00000168,-0.00000543,0.00005790,0
 .00000342,-0.00000666,0.00010341,0.00000057,-0.00000175,0.00002088,-0.
 00000032,0.00000045,-0.00000569,0.00014516,-0.00032839,0.00558387,-0.0
 0001399,0.00012022,-0.00069343,0.00060862,-0.00035004,0.00555796,0.000
 04921,-0.00202605,0.00215004,0.00445005,-0.02360961,-0.03618062,-0.000
 01988,-0.00006715,0.00097712,0.00001141,-0.00000726,-0.00001014,-0.000
 01182,0.00000833,-0.00000801,0.00000394,-0.00000508,-0.00000707,-0.000
 00456,0.00000627,-0.00000569,0.00000307,0.00000383,-0.00000188,0.00000
 011,-0.00000013,0.00000141,-0.00000326,-0.00000357,-0.00000209,0.00001
 591,0.00000730,-0.00012114,-0.00017844,0.00025256,-0.00264529,-0.00523
 042,0.02599817,0.02509644,-0.00583790,0.00405103,0.00085057,-0.0010021
 2,0.00047055,0.00007142,0.00019749,0.00438996,0.00032673,0.00070263,-0
 .00292329,-0.00025982,0.00109921,-0.00128468,-0.00014470,-0.00053531,-
 0.00001382,0.00002818,-0.00001915,0.00006377,0.00000593,0.00001001,-0.
 00006953,-0.00000471,0.00225500,0.02700972,0.00193608,-0.09647927,0.02
 172943,0.00280407,0.01324862,-0.02264560,-0.00228047,-0.00104641,-0.00
 644544,-0.00015793,-0.00463156,-0.00134018,0.00006622,-0.00032830,0.00
 013072,0.00002342,-0.00001178,0.00005674,-0.00004499,-0.00000571,0.000
 05042,0.00005137,0.00000546,-0.00002595,-0.00002015,0.00000659,-0.0000
 2639,0.00001478,-0.00001903,0.00002497,0.00001510,0.00005736,-0.000033
 92,-0.00000475,-0.00002091,0.00002586,-0.00001074,-0.00300535,0.001929
 26,0.00013434,-0.00171077,-0.00232810,-0.00008951,-0.00035775,-0.00010
 577,-0.00000581,0.56455479,0.00413259,-0.00121193,-0.00077982,-0.00730
 078,0.00014846,0.00033219,0.00858153,0.00396038,-0.00011009,-0.0028552
 4,-0.00299849,-0.00006371,-0.00429307,0.00068667,0.00024135,0.00178479
 ,0.00063775,-0.00004084,-0.00012958,-0.00020784,-0.00001034,0.00001531
 ,0.00019119,0.00001191,0.01175561,-0.00602295,-0.00107229,0.02442749,-
 0.21433587,-0.01164850,-0.00433237,-0.02128393,-0.00123412,-0.00581321
 ,-0.00172328,-0.00031645,-0.00061305,0.00347845,0.00033846,0.00007190,
 -0.00018967,-0.00001662,-0.00019001,-0.00006731,-0.00004399,-0.0001891
 6,-0.00007548,0.00005349,0.00003146,0.00000661,-0.00003322,0.00003489,
 -0.00000172,0.00003253,-0.00000021,-0.00004045,0.00003742,-0.00011197,
 0.00001343,0.00000549,-0.00000226,-0.00003310,-0.00004088,-0.00162677,
 0.00129118,0.00038846,0.00222660,0.00219069,0.00005405,-0.00016560,-0.
 00000834,0.00002920,0.00071743,0.62922050,0.00085647,-0.00077626,0.007
 03144,-0.00049014,-0.00000093,-0.00009675,0.00062997,0.00006821,0.0003
 8518,-0.00025530,-0.00006018,-0.00042127,-0.00036274,0.00011302,-0.000
 08688,0.00015852,0.00003609,0.00014344,-0.00000809,-0.00001859,0.00001
 010,0.00000145,0.00001552,0.00001907,0.00082972,-0.00172766,0.00165871
 ,0.00299893,-0.01152912,-0.06879990,-0.00095328,-0.00044495,-0.0016396
 3,-0.00011281,-0.00028876,0.00610106,0.00011875,0.00037014,-0.00081897
 ,0.00001910,-0.00001902,-0.00000631,-0.00003750,-0.00001333,-0.0000259
 0,0.00000866,0.00000201,-0.00002383,0.00000576,-0.00002216,-0.00001588
 ,-0.00000253,0.00002656,-0.00000868,0.00000944,0.00000847,-0.00000970,
 -0.00001040,0.00000215,0.00000441,-0.00000896,-0.00001420,-0.00001516,
 -0.00012166,0.00023529,-0.00309349,0.00023971,0.00025020,0.00012486,-0
 .00001015,0.00002676,-0.00031238,-0.00227907,0.00854784,0.51127040,0.0
 0007196,-0.00027788,-0.00005554,0.00048637,0.00003949,-0.00004513,-0.0
 0017460,-0.00042522,-0.00002832,-0.00017584,0.00026104,0.00002365,-0.0
 0000423,0.00005396,0.00000773,0.00001022,0.00000548,0.00000134,0.00000
 069,0.00000001,0.00000004,0.00000041,0.00000082,0.00000003,-0.00103205
 ,-0.00392616,0.00002530,-0.01622172,0.00907371,0.00146507,-0.31578073,
 0.09441266,0.01895509,-0.00108379,-0.00107218,0.00006725,0.00136767,0.
 00013988,0.00019350,-0.00000998,0.00001656,0.00000246,0.00000300,-0.00
 000193,0.00000082,0.00000252,-0.00000126,-0.00000174,-0.00000060,0.000
 00069,-0.00000012,-0.00000062,0.00000084,0.00000019,0.00000016,-0.0000
 0027,0.00000004,-0.00000064,0.00000008,0.00000005,0.00000007,-0.000000
 33,-0.00000016,-0.00049971,0.00061195,0.00009172,0.00089394,-0.0004582
 5,-0.00019057,0.00009964,-0.00004807,0.00000813,-0.00252896,0.00097497
 ,0.00012783,0.33230503,-0.00049331,-0.00122724,-0.00001302,0.00007324,
 0.00032361,0.00006581,0.00001840,-0.00029543,-0.00001373,-0.00016114,0
 .00020621,0.00002644,-0.00005587,0.00008920,0.00000272,0.00002702,0.00
 000529,-0.00000308,0.00000060,-0.00000209,-0.00000030,-0.00000013,0.00
 000273,0.00000022,-0.00328862,-0.00284616,-0.00050936,-0.01856155,0.01
 206687,0.00148293,0.09231491,-0.09216822,-0.00819880,0.02924008,-0.006
 23105,-0.00187273,-0.00032640,-0.00540345,-0.00078375,-0.00013980,-0.0
 0001859,0.00000326,-0.00000057,-0.00000080,0.00000121,-0.00000002,-0.0
 0000149,-0.00000058,-0.00000063,0.00000075,0.00000045,-0.00000059,0.00
 000050,-0.00000015,0.00000031,-0.00000054,0.00000035,-0.00000151,0.000
 00026,0.00000005,0.00000042,-0.00000036,-0.00000032,-0.00077512,0.0006
 1340,0.00003408,0.00062838,0.00088095,0.00023675,0.00145881,-0.0002577
 3,-0.00010805,-0.00257525,0.00072656,0.00024875,-0.09928847,0.09420667
 ,-0.00007110,-0.00002240,-0.00075228,-0.00004280,0.00006733,-0.0006229
 7,0.00000391,0.00000552,-0.00011705,-0.00000680,0.00000824,-0.00006323
 ,-0.00000027,-0.00000202,0.00008465,0.00000289,-0.00000217,0.00003178,
 0.00000008,-0.00000028,0.00000167,-0.00000004,0.00000018,-0.00000024,0
 .00007155,-0.00048196,0.00611941,-0.00053244,0.00029460,0.00264044,0.0
 1880246,-0.00828849,-0.03507366,0.00225870,-0.00056954,0.00214446,0.00
 015962,-0.00080386,0.00556812,-0.00000884,-0.00000342,0.00001943,0.000
 00393,-0.00000526,-0.00000588,-0.00000467,0.00000600,-0.00000471,0.000
 00037,-0.00000197,-0.00000122,-0.00000050,0.00000215,-0.00000093,0.000
 00095,0.00000093,-0.00000079,-0.00000006,-0.00000001,0.00000041,-0.000
 00098,-0.00000085,-0.00000088,-0.00000860,-0.00002562,0.00060227,-0.00
 011208,0.00028352,-0.00274323,0.00011708,-0.00004327,0.00036153,-0.000
 12823,0.00009663,-0.00117729,-0.02044548,0.00936488,0.02527109,0.00034
 778,-0.00043340,0.00100169,-0.00016184,0.00028912,0.00011076,0.0008182
 7,-0.00074030,-0.00012433,-0.00043482,0.00044359,0.00012913,-0.0007355
 3,0.00038582,0.00007427,0.00032509,0.00006805,-0.00003371,-0.00000826,
 -0.00003898,-0.00000532,-0.00000135,0.00003839,0.00000075,0.00110122,0
 .00147071,-0.00010159,-0.00643956,0.01264952,-0.01877766,-0.00203036,-
 0.00042923,0.00073270,-0.00061368,0.00054513,0.00139100,0.00054052,0.0
 0066785,-0.00020932,-0.00001556,-0.00002153,-0.00005691,-0.00001391,-0
 .00002217,0.00001128,-0.00002087,-0.00002338,-0.00000583,0.00000138,0.
 00001040,0.00000451,0.00000240,0.00000356,0.00000043,0.00000434,-0.000
 01254,0.00000068,-0.00002715,0.00001098,0.00000129,0.00000694,-0.00000
 897,0.00000081,0.00051049,-0.00047388,-0.00078722,0.00054658,0.0004791
 1,0.00000080,0.00008506,0.00002636,-0.00011996,-0.13780454,0.05003124,
 -0.08113112,0.00085481,0.00073546,-0.00119646,0.18613539,-0.00066970,-
 0.00044296,-0.00170535,0.00186400,-0.00028559,-0.00032614,-0.00246261,
 -0.00078510,0.00010789,0.00084024,0.00062612,-0.00006547,0.00134833,-0
 .00030466,-0.00009244,-0.00056286,-0.00018364,0.00003356,0.00003614,0.
 00006653,0.00000458,-0.00000274,-0.00006183,-0.00000179,-0.00314179,-0
 .00397525,0.00137059,0.03043908,-0.01596420,0.03144648,0.00126886,-0.0
 0085942,-0.00016534,0.00092450,0.00196899,-0.00049690,0.00110262,-0.00
 091207,0.00007849,0.00003912,0.00005599,0.00002065,0.00005218,0.000025
 09,0.00000525,0.00005606,0.00002845,-0.00001232,-0.00000838,-0.0000068
 1,0.00000587,-0.00000974,0.00000038,-0.00000879,-0.00000127,0.00001550
 ,-0.00001005,0.00003792,-0.00000749,-0.00000175,-0.00000267,0.00001113
 ,0.00000893,-0.00005918,-0.00009343,0.00090020,-0.00063707,-0.00061613
 ,0.00002618,0.00003378,-0.00001948,0.00000863,0.04748667,-0.11832079,0
 .05985071,-0.00005107,-0.00057621,0.00050428,-0.05637350,0.10730627,-0
 .00037050,-0.00019019,0.00022825,-0.00040644,0.00039454,0.00022812,0.0
 0080600,-0.00024680,-0.00019721,-0.00035844,0.00013344,0.00020239,-0.0
 0059571,0.00025185,0.00008221,0.00024812,0.00006809,-0.00006261,-0.000
 01091,-0.00003091,-0.00000608,-0.00000103,0.00002978,-0.00000466,0.000
 96055,0.00301261,-0.00028005,-0.01341679,0.00781956,-0.00474270,-0.000
 84510,-0.00080471,0.00154386,-0.00044042,0.00002243,0.00032419,0.00016
 356,0.00030705,-0.00008659,-0.00007512,-0.00001612,-0.00004488,-0.0000
 1042,-0.00001440,0.00001264,-0.00002565,-0.00002083,0.00000460,0.00000
 064,0.00001363,0.00000556,0.00000343,-0.00000446,0.00000434,-0.0000001
 7,-0.00001213,0.00000450,-0.00001939,0.00000641,-0.00000005,0.00000639
 ,-0.00000330,0.00000313,0.00034924,-0.00022986,-0.00044165,0.00039374,
 0.00039794,0.00001409,0.00004023,0.00004066,-0.00005299,-0.07980627,0.
 06197029,-0.17282938,0.00035377,0.00023653,-0.00098355,0.14249959,-0.0
 7815995,0.27201468,0.00028804,-0.00027374,-0.00104619,-0.00012052,0.00
 026152,-0.00004140,0.00073269,-0.00072419,-0.00006082,-0.00040246,0.00
 044312,-0.00001319,-0.00067415,0.00036243,0.00004358,0.00030071,0.0000
 5799,0.00001097,-0.00000686,-0.00003611,0.00000012,-0.00000115,0.00003
 509,0.00000409,0.00100324,0.00116389,0.00015113,-0.00341793,0.00907953
 ,0.01998005,-0.00198796,-0.00028585,-0.00047228,-0.00067910,0.00074014
 ,-0.00120836,0.00055138,0.00060147,0.00024343,-0.00000434,-0.00002712,
 0.00004991,-0.00001779,-0.00002212,0.00000467,-0.00001358,-0.00001908,
 -0.00001195,0.00000205,0.00000389,0.00000039,0.00000097,0.00000965,-0.
 00000278,0.00000623,-0.00000837,-0.00000237,-0.00002509,0.00001026,0.0
 0000236,0.00000422,-0.00001117,-0.00000223,0.00053663,-0.00055138,0.00
 062476,0.00050754,0.00043784,0.00001995,0.00009107,0.00000643,0.000109
 63,-0.12373036,0.03310195,0.08214320,0.00091593,0.00054811,0.00112090,
 0.01910469,-0.00397598,-0.01270730,0.16172739,-0.00057478,-0.00070486,
 0.00161968,0.00180217,-0.00025185,0.00010109,-0.00231959,-0.00081173,0
 .00000281,0.00078151,0.00063476,0.00006055,0.00124487,-0.00026392,-0.0
 0006538,-0.00052060,-0.00016951,-0.00000424,0.00003410,0.00006125,0.00
 000234,-0.00000300,-0.00005645,-0.00000552,-0.00308762,-0.00328172,-0.
 00154446,0.02535122,-0.00992229,-0.03441177,0.00110772,-0.00094161,-0.
 00029582,0.00089402,0.00187681,0.00063982,0.00110311,-0.00082971,-0.00
 028129,0.00002676,0.00005453,-0.00000824,0.00005263,0.00002341,0.00001
 062,0.00004941,0.00002371,-0.00000797,-0.00000842,-0.00000145,0.000008
 71,-0.00000875,-0.00000376,-0.00000653,-0.00000240,0.00001170,-0.00000
 751,0.00003455,-0.00000640,-0.00000215,-0.00000037,0.00001203,0.000011
 22,-0.00007613,-0.00000923,-0.00082950,-0.00057423,-0.00054348,-0.0000
 5767,0.00003947,-0.00001281,-0.00000557,0.03097030,-0.10168263,-0.0519
 1598,-0.00002849,-0.00047468,-0.00042252,-0.00466141,0.01593982,0.0127
 2421,-0.03024500,0.08805512,0.00028552,0.00007967,0.00055129,0.0007018
 8,-0.00048580,0.00015402,-0.00123234,0.00021530,-0.00008619,0.00052789
 ,-0.00010670,0.00016225,0.00084774,-0.00033095,-0.00001914,-0.00035864
 ,-0.00009057,-0.00005279,0.00001628,0.00004405,-0.00000217,0.00000011,
 -0.00004049,-0.00001027,-0.00155125,-0.00356676,-0.00087377,0.01708320
 ,-0.00931395,-0.01380426,0.00132677,0.00047444,0.00158600,0.00066219,0
 .00014239,0.00048130,-0.00006095,-0.00046980,-0.00017934,0.00007636,0.
 00003348,-0.00005458,0.00003570,0.00002573,0.00000660,0.00002010,0.000
 01779,0.00001372,-0.00000447,0.00000328,0.00000654,-0.00000162,-0.0000
 1589,0.00000291,-0.00000706,0.00000524,0.00000327,0.00002676,-0.000008
 12,-0.00000317,0.00000023,0.00001424,0.00000810,-0.00044746,0.00033945
 ,-0.00055387,-0.00052696,-0.00052130,-0.00001990,-0.00004760,-0.000035
 78,-0.00006583,0.08048132,-0.05423161,-0.20354332,-0.00052782,-0.00021
 238,-0.00114642,0.00269843,0.00284538,-0.08841536,-0.13829047,0.053419
 67,0.31567860,0.00062105,0.00015485,-0.00000606,0.00170300,0.00027707,
 -0.00005078,-0.00131924,-0.00258800,-0.00013390,0.00011946,0.00173823,
 0.00012669,0.00011541,0.00047476,0.00003001,-0.00001884,-0.00009518,-0
 .00000731,0.00002788,-0.00000032,-0.00000127,-0.00000715,0.00000349,0.
 00000033,-0.00399543,0.00285517,0.00038571,-0.00875424,-0.00916414,0.0
 0008829,0.00212667,-0.00230912,-0.00018808,-0.00056505,0.00070809,0.00
 006011,0.00065223,0.00010111,-0.00002607,-0.00002302,0.00000230,0.0000
 0067,0.00003294,-0.00001710,0.00002914,0.00002979,-0.00001265,-0.00003
 344,-0.00000714,0.00001119,0.00001471,-0.00000820,0.00001266,-0.000012
 09,0.00000911,-0.00000539,-0.00001292,-0.00001008,0.00001343,0.0000013
 9,0.00001033,-0.00000698,0.00001141,0.00207954,0.00103967,-0.00003562,
 0.00006101,-0.00031682,-0.00003069,0.00022181,0.00007611,-0.00000674,-
 0.20306197,-0.11026448,-0.00236378,0.00050107,0.00062319,0.00001690,-0
 .06207755,-0.01757093,-0.03673560,-0.05469151,-0.02138104,0.03826615,0
 .32622811,-0.00254664,0.00140714,0.00019414,0.00284774,0.00022320,-0.0
 0010956,-0.00298049,-0.00195433,-0.00000853,0.00098511,0.00146122,0.00
 005311,0.00130655,-0.00006661,-0.00006176,-0.00053313,-0.00022119,0.00
 000893,0.00004876,0.00006143,0.00000246,-0.00000750,-0.00005418,-0.000
 00320,-0.00087569,-0.00198732,-0.00011983,-0.04387132,-0.02756689,-0.0
 0071355,0.00611600,-0.00759378,-0.00092828,-0.00125058,0.00017801,0.00
 009123,0.00021682,-0.00071639,-0.00005178,-0.00003776,0.00007480,0.000
 00793,0.00006681,0.00001196,0.00002342,0.00006544,0.00001583,-0.000028
 01,-0.00001153,0.00000226,0.00001526,-0.00001294,0.00000524,-0.0000140
 7,0.00000340,0.00000947,-0.00001646,0.00002880,0.00000194,-0.00000107,
 0.00000450,0.00000673,0.00001690,0.00015951,-0.00378440,-0.00024347,-0
 .00083180,-0.00151832,-0.00006540,0.00006978,-0.00007955,-0.00000416,-
 0.09928892,-0.17434811,-0.00297058,-0.00001256,0.00038104,0.00003938,-
 0.00461600,0.01737080,-0.00769540,-0.01068319,0.01327493,0.01176998,0.
 15564083,0.18540509,-0.00020070,0.00007878,0.00024331,0.00013432,0.000
 00067,0.00004280,-0.00016153,-0.00002441,-0.00006738,0.00007214,0.0000
 2027,0.00014161,0.00009001,-0.00002629,0.00000844,-0.00003896,-0.00000
 975,-0.00002842,0.00000227,0.00000454,-0.00000101,-0.00000047,-0.00000
 366,-0.00000578,0.00011798,-0.00028130,0.00017316,-0.00242081,-0.00221
 624,0.00852447,0.00041981,-0.00056551,0.00156619,-0.00008055,0.0000073
 9,-0.00034915,-0.00001832,-0.00004712,-0.00012807,-0.00000222,0.000006
 13,-0.00001088,0.00000938,0.00000218,0.00000674,-0.00000198,0.00000017
 ,0.00000605,-0.00000152,0.00000529,0.00000365,0.00000064,-0.00000617,0
 .00000175,-0.00000228,-0.00000147,0.00000198,0.00000250,-0.00000042,-0
 .00000045,0.00000224,0.00000278,0.00000347,-0.00009976,-0.00028151,-0.
 00052030,-0.00006785,-0.00008731,-0.00012280,-0.00000725,-0.00000443,-
 0.00006346,-0.00157238,-0.00249684,-0.07382396,-0.00002909,0.00001182,
 -0.00015095,-0.04610868,-0.01617139,-0.00652482,0.04935020,0.02127142,
 -0.00982422,0.00061285,0.00081238,0.08089804\\-0.00000026,-0.00000021,
 0.00000198,-0.00000134,-0.00000206,-0.00000431,0.00000039,0.00000113,0
 .00000022,-0.00000262,0.00000088,0.00000013,0.00000398,0.00000491,0.00
 000109,-0.00000051,-0.00000109,0.00000041,0.00000138,0.00000145,-0.000
 00005,0.00000112,0.00000285,0.00000025,-0.00000157,-0.00000062,-0.0000
 0008,-0.00000010,-0.00000396,-0.00000111,-0.00000093,-0.00000188,0.000
 00055,0.00000121,-0.00000166,-0.00000054,0.00000069,-0.00000154,-0.000
 00043,0.00000068,0.00000121,0.00000153,-0.00000039,0.00000090,-0.00000
 122,-0.00000007,0.00000076,0.00000102,0.00000111,0.00000266,0.00000110
 ,0.00000091,0.00000276,-0.00000075,0.00000033,0.00000277,0.00000116,0.
 00000070,0.00000446,0.00000002,0.00000036,0.00000261,-0.00000065,-0.00
 000026,-0.00000061,-0.00000007,0.00000166,-0.00000254,0.,0.00000126,-0
 .00000154,-0.00000005,0.00000030,0.00000035,-0.00000105,-0.00000050,-0
 .00000303,-0.00000034,-0.00000235,-0.00000346,0.00000303,0.00000245,-0
 .00000117,-0.00000524,-0.00000761,-0.00000434,0.00000340\\\@


 IF GOD HAD MEANT MAN TO SEE THE SUN RISE, HE
 WOULD HAVE SCHEDULED IT FOR A LATER HOUR.
 Job cpu time:       0 days  4 hours  7 minutes 44.4 seconds.
 File lengths (MBytes):  RWF=    557 Int=      0 D2E=      0 Chk=     14 Scr=      1
 Normal termination of Gaussian 09 at Thu Nov 14 16:59:34 2019.
pbs_rusage has been removed.
Please contact help@nci.org.au if you require this functionality.
