 Entering Gaussian System, Link 0=/apps/gaussian/g09e01/g09/g09
 AtFile(1): /home/507/hio507/Basis/6-31pGd.gbs
 Initial command:
 /apps/gaussian/g09e01/g09/l1.exe "/jobfs/local/4047187.r-man2/Gau-25987.inp" -scrdir="/jobfs/local/4047187.r-man2/"
 Entering Link 1 = /apps/gaussian/g09e01/g09/l1.exe PID=     25988.
  
 Copyright (c) 1988,1990,1992,1993,1995,1998,2003,2009,2015,
            Gaussian, Inc.  All Rights Reserved.
  
 This is part of the Gaussian(R) 09 program.  It is based on
 the Gaussian(R) 03 system (copyright 2003, Gaussian, Inc.),
 the Gaussian(R) 98 system (copyright 1998, Gaussian, Inc.),
 the Gaussian(R) 94 system (copyright 1995, Gaussian, Inc.),
 the Gaussian 92(TM) system (copyright 1992, Gaussian, Inc.),
 the Gaussian 90(TM) system (copyright 1990, Gaussian, Inc.),
 the Gaussian 88(TM) system (copyright 1988, Gaussian, Inc.),
 the Gaussian 86(TM) system (copyright 1986, Carnegie Mellon
 University), and the Gaussian 82(TM) system (copyright 1983,
 Carnegie Mellon University). Gaussian is a federally registered
 trademark of Gaussian, Inc.
  
 This software contains proprietary and confidential information,
 including trade secrets, belonging to Gaussian, Inc.
  
 This software is provided under written license and may be
 used, copied, transmitted, or stored only in accord with that
 written license.
  
 The following legend is applicable only to US Government
 contracts under FAR:
  
                    RESTRICTED RIGHTS LEGEND
  
 Use, reproduction and disclosure by the US Government is
 subject to restrictions as set forth in subparagraphs (a)
 and (c) of the Commercial Computer Software - Restricted
 Rights clause in FAR 52.227-19.
  
 Gaussian, Inc.
 340 Quinnipiac St., Bldg. 40, Wallingford CT 06492
  
  
 ---------------------------------------------------------------
 Warning -- This program may not be used in any manner that
 competes with the business of Gaussian, Inc. or will provide
 assistance to any competitor of Gaussian, Inc.  The licensee
 of this program is prohibited from giving any competitor of
 Gaussian, Inc. access to this program.  By using this program,
 the user acknowledges that Gaussian, Inc. is engaged in the
 business of creating and licensing software in the field of
 computational chemistry and represents and warrants to the
 licensee that it is not a competitor of Gaussian, Inc. and that
 it will not use this program in any manner prohibited above.
 ---------------------------------------------------------------
  

 Cite this work as:
 Gaussian 09, Revision E.01,
 M. J. Frisch, G. W. Trucks, H. B. Schlegel, G. E. Scuseria, 
 M. A. Robb, J. R. Cheeseman, G. Scalmani, V. Barone, B. Mennucci, 
 G. A. Petersson, H. Nakatsuji, M. Caricato, X. Li, H. P. Hratchian, 
 A. F. Izmaylov, J. Bloino, G. Zheng, J. L. Sonnenberg, M. Hada, 
 M. Ehara, K. Toyota, R. Fukuda, J. Hasegawa, M. Ishida, T. Nakajima, 
 Y. Honda, O. Kitao, H. Nakai, T. Vreven, J. A. Montgomery, Jr., 
 J. E. Peralta, F. Ogliaro, M. Bearpark, J. J. Heyd, E. Brothers, 
 K. N. Kudin, V. N. Staroverov, T. Keith, R. Kobayashi, J. Normand, 
 K. Raghavachari, A. Rendell, J. C. Burant, S. S. Iyengar, J. Tomasi, 
 M. Cossi, N. Rega, J. M. Millam, M. Klene, J. E. Knox, J. B. Cross, 
 V. Bakken, C. Adamo, J. Jaramillo, R. Gomperts, R. E. Stratmann, 
 O. Yazyev, A. J. Austin, R. Cammi, C. Pomelli, J. W. Ochterski, 
 R. L. Martin, K. Morokuma, V. G. Zakrzewski, G. A. Voth, 
 P. Salvador, J. J. Dannenberg, S. Dapprich, A. D. Daniels, 
 O. Farkas, J. B. Foresman, J. V. Ortiz, J. Cioslowski, 
 and D. J. Fox, Gaussian, Inc., Wallingford CT, 2013.
 
 ******************************************
 Gaussian 09:  ES64L-G09RevE.01 30-Nov-2015
                 9-Dec-2019 
 ******************************************
 %chk=NM3CA_c2.MP2_6-31pGd.chk
 %mem=1114112000
 %nproc=4
 Will use up to    4 processors via shared memory.
 -------------------------------------------------------------
 # MP2/Gen 6D SCF=Tight INT(grid=ultrafine) maxdisk=3489660928
 -------------------------------------------------------------
 1/38=1/1;
 2/12=2,17=6,18=5,40=1/2;
 3/5=7,8=2,11=9,16=1,25=1,30=1,75=-5/1,2,3;
 4//1;
 5/5=2,32=2,38=5/2;
 8/10=1/1;
 9/16=-3/6;
 6/7=2,8=2,9=2,10=2/1;
 99/5=1,9=1/99;
 --------------------
 NM3CA_c2.MP2_6-31pGd
 --------------------
 Symbolic Z-matrix:
 Charge =  0 Multiplicity = 1
 C                    -5.93636   1.48717   0.21397 
 N                    -4.68534   0.87579   0.07956 
 C                    -3.45117   1.47562   0.12622 
 O                    -3.23173   2.64702   0.29163 
 O                    -2.50667   0.53667  -0.0444 
 C                    -1.15177   1.01288  -0.01973 
 C                    -0.24274  -0.17902  -0.22768 
 C                     1.22346   0.24471  -0.21463 
 C                    -7.06158   0.66021   0.14195 
 C                    -8.32712   1.20612   0.27273 
 C                    -8.51499   2.56822   0.47337 
 C                    -7.38488   3.36824   0.54102 
 C                    -6.09857   2.86031   0.41586 
 H                    -4.67235  -0.12279  -0.06653 
 H                    -0.96761   1.50138   0.94019 
 H                    -1.02698   1.76082  -0.80648 
 H                    -0.49336  -0.65604  -1.17904 
 H                    -0.4342   -0.91419   0.55865 
 H                     1.43514   0.96653  -1.00716 
 H                     1.8799   -0.61325  -0.36452 
 H                     1.49458   0.7072    0.7375 
 H                    -6.94618  -0.40767  -0.00769 
 Cl                   -7.58079   5.07755   0.79766 
 H                    -5.24277   3.51529   0.47711 
 C                    -9.52915   0.31447   0.13216 
 H                    -9.50471   2.99219   0.58121 
 F                    -10.56104   0.74587   0.86706 
 F                    -9.95346   0.25926  -1.14082 
 F                    -9.2664   -0.94546   0.50717 
 
                          Input orientation:                          
 ---------------------------------------------------------------------
 Center     Atomic      Atomic             Coordinates (Angstroms)
 Number     Number       Type             X           Y           Z
 ---------------------------------------------------------------------
      1          6           0       -5.936357    1.487169    0.213966
      2          7           0       -4.685339    0.875789    0.079561
      3          6           0       -3.451168    1.475619    0.126223
      4          8           0       -3.231730    2.647023    0.291628
      5          8           0       -2.506670    0.536669   -0.044402
      6          6           0       -1.151770    1.012876   -0.019727
      7          6           0       -0.242737   -0.179022   -0.227680
      8          6           0        1.223461    0.244706   -0.214628
      9          6           0       -7.061580    0.660212    0.141950
     10          6           0       -8.327120    1.206116    0.272727
     11          6           0       -8.514994    2.568217    0.473369
     12          6           0       -7.384883    3.368239    0.541017
     13          6           0       -6.098570    2.860314    0.415861
     14          1           0       -4.672345   -0.122794   -0.066533
     15          1           0       -0.967610    1.501377    0.940191
     16          1           0       -1.026983    1.760819   -0.806481
     17          1           0       -0.493361   -0.656036   -1.179040
     18          1           0       -0.434203   -0.914188    0.558646
     19          1           0        1.435138    0.966531   -1.007161
     20          1           0        1.879899   -0.613246   -0.364515
     21          1           0        1.494575    0.707201    0.737501
     22          1           0       -6.946179   -0.407665   -0.007688
     23         17           0       -7.580787    5.077555    0.797664
     24          1           0       -5.242769    3.515289    0.477109
     25          6           0       -9.529150    0.314467    0.132159
     26          1           0       -9.504715    2.992187    0.581215
     27          9           0      -10.561035    0.745873    0.867060
     28          9           0       -9.953457    0.259262   -1.140820
     29          9           0       -9.266401   -0.945462    0.507169
 ---------------------------------------------------------------------
                    Distance matrix (angstroms):
                    1          2          3          4          5
     1  C    0.000000
     2  N    1.398891   0.000000
     3  C    2.486764   1.373008   0.000000
     4  O    2.943858   2.301135   1.203204   0.000000
     5  O    3.568327   2.208386   1.342690   2.256596   0.000000
     6  C    4.813714   3.537621   2.350035   2.663384   1.436362
     7  C    5.948827   4.576432   3.627273   4.146117   2.381427
     8  C    7.279450   5.949683   4.845976   5.086860   3.745410
     9  C    1.398275   2.386816   3.701380   4.317126   4.560395
    10  C    2.407943   3.661829   4.885591   5.295240   5.867398
    11  C    2.808082   4.205432   5.191976   5.286977   6.363587
    12  C    2.396584   3.703078   4.384995   4.222680   5.670755
    13  C    1.397356   2.459402   3.001668   2.877446   4.302664
    14  H    2.066006   1.009297   2.020731   3.142537   2.263963
    15  H    5.021558   3.866982   2.613669   2.619041   2.066105
    16  H    5.021767   3.866771   2.613034   2.617654   2.066103
    17  H    6.013318   4.637159   3.872504   4.535607   2.600647
    18  H    6.013236   4.637423   3.873014   4.536483   2.600725
    19  H    7.490070   6.216867   5.041797   5.127433   4.080384
    20  H    8.114199   6.746612   5.746690   6.098248   4.546071
    21  H    7.490073   6.217125   5.042272   5.128321   4.080492
    22  H    2.158533   2.601205   3.972379   4.818490   4.538982
    23  Cl   3.991958   5.153070   5.520736   5.007780   6.861151
    24  H    2.159533   2.726854   2.737372   2.198310   4.078037
    25  C    3.780222   4.876510   6.187905   6.717421   7.028212
    26  H    3.890133   5.287455   6.257190   6.289145   7.442688
    27  F    4.729028   5.929658   7.185512   7.593695   8.108473
    28  F    4.413649   5.442656   6.735331   7.275639   7.532179
    29  F    4.134351   4.948327   6.310602   7.026355   6.942255
                    6          7          8          9         10
     6  C    0.000000
     7  C    1.513343   0.000000
     8  C    2.503955   1.526254   0.000000
     9  C    5.922531   6.880230   8.303114   0.000000
    10  C    7.183907   8.217436   9.611213   1.384450   0.000000
    11  C    7.541837   8.744657  10.035415   2.421308   1.389559
    12  C    6.686843   8.011504   9.188636   2.756300   2.373724
    13  C    5.298452   6.628913   7.800709   2.417202   2.779082
    14  H    3.699512   4.432895   5.909105   2.522897   3.903649
    15  H    1.092699   2.170968   2.777341   6.203323   7.395611
    16  H    1.092690   2.170952   2.777298   6.207030   7.400296
    17  H    2.136066   1.093362   2.165388   6.827813   8.181871
    18  H    2.136116   1.093361   2.165373   6.824551   8.177748
    19  H    2.769344   2.176039   1.092679   8.579540   9.848715
    20  H    3.457480   2.170912   1.090623   9.045897  10.387462
    21  H    2.769472   2.176056   1.092682   8.576986   9.845335
    22  H    5.966009   6.710947   8.198258   1.084468   2.142409
    23  Cl   7.649968   9.084597  10.094352   4.495826   3.977513
    24  H    4.821326   6.256595   7.279240   3.401745   3.858403
    25  C    8.407814   9.306475  10.758427   2.491693   1.503221
    26  H    8.605260   9.823192  11.102962   3.405872   2.161469
    27  F    9.454732  10.417349  11.844643   3.574816   2.356997
    28  F    8.904745   9.763401  11.215237   3.188920   2.353640
    29  F    8.364207   9.085920  10.581810   2.751874   2.359343
                   11         12         13         14         15
    11  C    0.000000
    12  C    1.386277   0.000000
    13  C    2.434694   1.388615   0.000000
    14  H    4.722180   4.462543   3.341520   0.000000
    15  H    7.636692   6.695215   5.333702   4.168511   0.000000
    16  H    7.639386   6.694956   5.331416   4.169434   1.766833
    17  H    8.801867   8.163728   6.806379   4.357285   3.061125
    18  H    8.799636   8.164033   6.808252   4.356489   2.503009
    19  H   10.186388   9.271344   7.897352   6.274772   3.138701
    20  H   10.903098  10.124643   8.736737   6.577327   3.779179
    21  H   10.184529   9.271705   7.899064   6.274255   2.595026
    22  H    3.398304   3.840702   3.402576   2.292365   6.347141
    23  Cl   2.697162   1.739542   2.694234   6.020755   7.519539
    24  H    3.406526   2.148106   1.079416   3.722442   4.748396
    25  C    2.494860   3.753741   4.281437   4.880494   8.681107
    26  H    1.082094   2.153304   3.412705   5.785713   8.673726
    27  F    2.768070   4.131713   4.958633   6.025185   9.623406
    28  F    3.163235   4.369426   4.903966   5.402796   9.306927
    29  F    3.593285   4.706301   4.952517   4.702262   8.662820
                   16         17         18         19         20
    16  H    0.000000
    17  H    2.502947   0.000000
    18  H    3.061147   1.757753   0.000000
    19  H    2.594842   2.526139   3.079496   0.000000
    20  H    3.779084   2.509511   2.509554   1.762527   0.000000
    21  H    3.138829   3.079519   2.526079   1.764832   1.762525
    22  H    6.354312   6.562973   6.556152   8.551833   8.835680
    23  Cl   7.518402   9.328078   9.329082  10.071982  11.101372
    24  H    4.743271   6.534498   6.538288   7.300251   8.275598
    25  C    8.675241   9.181862   9.187466  11.042592  11.457474
    26  H    8.678358   9.879905   9.875953  11.238621  11.979273
    27  F    9.732883  10.368700  10.266628  12.143705  12.575405
    28  F    9.058057   9.504349   9.740706  11.411318  11.890846
    29  F    8.771410   8.938306   8.832403  10.975967  11.185267
                   21         22         23         24         25
    21  H    0.000000
    22  H    8.546612   0.000000
    23  Cl  10.073025   5.580229   0.000000
    24  H    7.303764   4.304208   2.830152   0.000000
    25  C   11.047316   2.685659   5.189029   5.360719   0.000000
    26  H   11.235211   4.295568   2.845541   4.295190   2.715223
    27  F   12.056369   3.893972   5.258342   6.008800   1.338275
    28  F   11.609745   3.282148   5.709924   5.950629   1.342966
    29  F   10.889581   2.436746   6.261183   6.007397   1.340556
                   26         27         28         29
    26  H    0.000000
    27  F    2.498689   0.000000
    28  F    3.261235   2.153491   0.000000
    29  F    3.945549   2.160142   2.153897   0.000000
 Stoichiometry    C11H11ClF3NO2
 Framework group  C1[X(C11H11ClF3NO2)]
 Deg. of freedom    81
 Full point group                 C1      NOp   1
 Largest Abelian subgroup         C1      NOp   1
 Largest concise Abelian subgroup C1      NOp   1
                         Standard orientation:                         
 ---------------------------------------------------------------------
 Center     Atomic      Atomic             Coordinates (Angstroms)
 Number     Number       Type             X           Y           Z
 ---------------------------------------------------------------------
      1          6           0        0.108098   -0.031467   -0.011090
      2          7           0       -1.202464   -0.520666   -0.008753
      3          6           0       -2.367263    0.206203   -0.001318
      4          8           0       -2.461043    1.405724    0.006077
      5          8           0       -3.407464   -0.642793   -0.003547
      6          6           0       -4.705593   -0.028014    0.003232
      7          6           0       -5.737464   -1.135010    0.000638
      8          6           0       -7.151982   -0.561823    0.007584
      9          6           0        1.140807   -0.973953   -0.031177
     10          6           0        2.459110   -0.551210   -0.039409
     11          6           0        2.790806    0.798109   -0.025620
     12          6           0        1.750354    1.713979   -0.005445
     13          6           0        0.415446    1.331604    0.002358
     14          1           0       -1.321603   -1.522880   -0.016078
     15          1           0       -4.796063    0.613444   -0.876732
     16          1           0       -4.791033    0.604591    0.890071
     17          1           0       -5.579394   -1.770915    0.875897
     18          1           0       -5.584492   -1.762141   -0.881827
     19          1           0       -7.326656    0.053404    0.893549
     20          1           0       -7.896838   -1.358469    0.005849
     21          1           0       -7.331832    0.062077   -0.871255
     22          1           0        0.912809   -2.034040   -0.048594
     23         17           0        2.127205    3.412173    0.005853
     24          1           0       -0.367102    2.074970    0.015180
     25          6           0        3.558579   -1.575528    0.000756
     26          1           0        3.821751    1.126633   -0.038010
     27          9           0        4.660841   -1.151610   -0.628760
     28          9           0        3.916631   -1.862384    1.262925
     29          9           0        3.188961   -2.731534   -0.568562
 ---------------------------------------------------------------------
 Rotational constants (GHZ):      0.5744266      0.1482224      0.1205582
 General basis read from cards:  (6D, 7F)
 There are   368 symmetry adapted cartesian basis functions of A   symmetry.
 There are   368 symmetry adapted basis functions of A   symmetry.
   368 basis functions,   644 primitive gaussians,   368 cartesian basis functions
    72 alpha electrons       72 beta electrons
       nuclear repulsion energy      1417.9679324085 Hartrees.
 NAtoms=   29 NActive=   29 NUniq=   29 SFac= 1.00D+00 NAtFMM=   60 NAOKFM=F Big=F
 Integral buffers will be    131072 words long.
 Raffenetti 1 integral format.
 Two-electron integral symmetry is turned on.
 One-electron integrals computed using PRISM.
 NBasis=   368 RedAO= T EigKep=  1.11D-06  NBF=   368
 NBsUse=   367 1.00D-06 EigRej=  6.93D-07 NBFU=   367
 ExpMin= 4.38D-02 ExpMax= 2.52D+04 ExpMxC= 3.78D+03 IAcc=3 IRadAn=         5 AccDes= 0.00D+00
 Harris functional with IExCor=  205 and IRadAn=       5 diagonalized for initial guess.
 HarFok:  IExCor=  205 AccDes= 0.00D+00 IRadAn=         5 IDoV= 1 UseB2=F ITyADJ=14
 ICtDFT=  3500011 ScaDFX=  1.000000  1.000000  1.000000  1.000000
 FoFCou: FMM=F IPFlag=           0 FMFlag=      100000 FMFlg1=           0
         NFxFlg=           0 DoJE=T BraDBF=F KetDBF=T FulRan=T
         wScrn=  0.000000 ICntrl=     500 IOpCl=  0 I1Cent=   200000004 NGrid=           0
         NMat0=    1 NMatS0=      1 NMatT0=    0 NMatD0=    1 NMtDS0=    0 NMtDT0=    0
 Petite list used in FoFCou.
 Requested convergence on RMS density matrix=1.00D-08 within 128 cycles.
 Requested convergence on MAX density matrix=1.00D-06.
 Requested convergence on             energy=1.00D-06.
 No special actions if energy rises.
 Initial convergence to 1.0D-05 achieved.  Increase integral accuracy.
 SCF Done:  E(RHF) =  -1385.00491446     A.U. after   18 cycles
            NFock= 18  Conv=0.46D-08     -V/T= 2.0017
 ExpMin= 4.38D-02 ExpMax= 2.52D+04 ExpMxC= 3.78D+03 IAcc=3 IRadAn=         5 AccDes= 0.00D+00
 HarFok:  IExCor=  205 AccDes= 0.00D+00 IRadAn=         5 IDoV=-2 UseB2=F ITyADJ=14
 ICtDFT= 12500011 ScaDFX=  1.000000  1.000000  1.000000  1.000000
 Range of M.O.s used for correlation:    23   367
 NBasis=   368 NAE=    72 NBE=    72 NFC=    22 NFV=     0
 NROrb=    345 NOA=    50 NOB=    50 NVA=   295 NVB=   295

 **** Warning!!: The largest alpha MO coefficient is  0.20878637D+03

 Fully direct method using O(OVN) memory.
 JobTyp=1 Pass  1:  I=   1 to  50 NPSUse=  4 ParTrn=T ParDer=T DoDerP=F.
 Spin components of T(2) and E(2):
     alpha-alpha T2 =       0.1137072768D+00 E2=     -0.3547937216D+00
     alpha-beta  T2 =       0.5826314718D+00 E2=     -0.1880104127D+01
     beta-beta   T2 =       0.1137072768D+00 E2=     -0.3547937216D+00
 ANorm=    0.1345379510D+01
 E2 =    -0.2589691570D+01 EUMP2 =    -0.13875946060326D+04

 **********************************************************************

            Population analysis using the SCF density.

 **********************************************************************

 Orbital symmetries:
       Occupied  (A) (A) (A) (A) (A) (A) (A) (A) (A) (A) (A) (A)
                 (A) (A) (A) (A) (A) (A) (A) (A) (A) (A) (A) (A)
                 (A) (A) (A) (A) (A) (A) (A) (A) (A) (A) (A) (A)
                 (A) (A) (A) (A) (A) (A) (A) (A) (A) (A) (A) (A)
                 (A) (A) (A) (A) (A) (A) (A) (A) (A) (A) (A) (A)
                 (A) (A) (A) (A) (A) (A) (A) (A) (A) (A) (A) (A)
       Virtual   (A) (A) (A) (A) (A) (A) (A) (A) (A) (A) (A) (A)
                 (A) (A) (A) (A) (A) (A) (A) (A) (A) (A) (A) (A)
                 (A) (A) (A) (A) (A) (A) (A) (A) (A) (A) (A) (A)
                 (A) (A) (A) (A) (A) (A) (A) (A) (A) (A) (A) (A)
                 (A) (A) (A) (A) (A) (A) (A) (A) (A) (A) (A) (A)
                 (A) (A) (A) (A) (A) (A) (A) (A) (A) (A) (A) (A)
                 (A) (A) (A) (A) (A) (A) (A) (A) (A) (A) (A) (A)
                 (A) (A) (A) (A) (A) (A) (A) (A) (A) (A) (A) (A)
                 (A) (A) (A) (A) (A) (A) (A) (A) (A) (A) (A) (A)
                 (A) (A) (A) (A) (A) (A) (A) (A) (A) (A) (A) (A)
                 (A) (A) (A) (A) (A) (A) (A) (A) (A) (A) (A) (A)
                 (A) (A) (A) (A) (A) (A) (A) (A) (A) (A) (A) (A)
                 (A) (A) (A) (A) (A) (A) (A) (A) (A) (A) (A) (A)
                 (A) (A) (A) (A) (A) (A) (A) (A) (A) (A) (A) (A)
                 (A) (A) (A) (A) (A) (A) (A) (A) (A) (A) (A) (A)
                 (A) (A) (A) (A) (A) (A) (A) (A) (A) (A) (A) (A)
                 (A) (A) (A) (A) (A) (A) (A) (A) (A) (A) (A) (A)
                 (A) (A) (A) (A) (A) (A) (A) (A) (A) (A) (A) (A)
                 (A) (A) (A) (A) (A) (A) (A) (A) (A) (A) (A) (A)
                 (A) (A) (A) (A) (A) (A) (A) (A) (A) (A) (A) (A)
                 (A) (A) (A) (A) (A) (A) (A) (A) (A) (A) (A) (A)
                 (A) (A) (A) (A) (A) (A) (A) (A) (A) (A) (A) (A)
                 (A) (A) (A) (A) (A) (A) (A) (A) (A) (A) (A) (A)
                 (A) (A) (A) (A) (A) (A) (A) (A) (A) (A) (A) (A)
                 (A) (A) (A) (A) (A) (A) (A)
 The electronic state is 1-A.
 Alpha  occ. eigenvalues -- -104.84018 -26.36187 -26.36072 -26.35624 -20.63213
 Alpha  occ. eigenvalues --  -20.56829 -15.63667 -11.52767 -11.43646 -11.32851
 Alpha  occ. eigenvalues --  -11.32786 -11.30310 -11.29130 -11.27585 -11.27186
 Alpha  occ. eigenvalues --  -11.26580 -11.24270 -11.23379 -10.57262  -8.04204
 Alpha  occ. eigenvalues --   -8.03861  -8.03861  -1.74316  -1.64742  -1.64210
 Alpha  occ. eigenvalues --   -1.49549  -1.38766  -1.29273  -1.21110  -1.14688
 Alpha  occ. eigenvalues --   -1.09217  -1.07034  -1.02810  -0.98135  -0.96433
 Alpha  occ. eigenvalues --   -0.89733  -0.87454  -0.84110  -0.83081  -0.82648
 Alpha  occ. eigenvalues --   -0.82491  -0.78493  -0.76857  -0.72429  -0.72031
 Alpha  occ. eigenvalues --   -0.71601  -0.71155  -0.70919  -0.68243  -0.66898
 Alpha  occ. eigenvalues --   -0.66802  -0.65547  -0.65404  -0.64431  -0.62318
 Alpha  occ. eigenvalues --   -0.61580  -0.60339  -0.59099  -0.56975  -0.56069
 Alpha  occ. eigenvalues --   -0.55917  -0.53908  -0.53059  -0.51490  -0.50385
 Alpha  occ. eigenvalues --   -0.49911  -0.47914  -0.47611  -0.46527  -0.46199
 Alpha  occ. eigenvalues --   -0.36577  -0.33679
 Alpha virt. eigenvalues --    0.05534   0.07407   0.07675   0.08021   0.08739
 Alpha virt. eigenvalues --    0.08938   0.08990   0.09401   0.10045   0.10704
 Alpha virt. eigenvalues --    0.10790   0.11224   0.12168   0.12337   0.12856
 Alpha virt. eigenvalues --    0.13036   0.14002   0.14471   0.14659   0.15297
 Alpha virt. eigenvalues --    0.15841   0.15863   0.16368   0.17842   0.18083
 Alpha virt. eigenvalues --    0.18644   0.19024   0.19971   0.20277   0.20634
 Alpha virt. eigenvalues --    0.20892   0.21299   0.22769   0.23382   0.24077
 Alpha virt. eigenvalues --    0.24539   0.25148   0.25329   0.25854   0.26740
 Alpha virt. eigenvalues --    0.26920   0.28321   0.28847   0.29226   0.29374
 Alpha virt. eigenvalues --    0.30377   0.30731   0.31477   0.32034   0.32948
 Alpha virt. eigenvalues --    0.33015   0.33515   0.33620   0.33880   0.34563
 Alpha virt. eigenvalues --    0.35925   0.36401   0.37068   0.37480   0.37851
 Alpha virt. eigenvalues --    0.38329   0.38653   0.39817   0.40279   0.40757
 Alpha virt. eigenvalues --    0.41089   0.41452   0.41810   0.41860   0.42254
 Alpha virt. eigenvalues --    0.42441   0.42923   0.43605   0.44657   0.45286
 Alpha virt. eigenvalues --    0.45339   0.45827   0.46533   0.47655   0.47835
 Alpha virt. eigenvalues --    0.48593   0.48892   0.49400   0.49839   0.50718
 Alpha virt. eigenvalues --    0.51768   0.52514   0.53616   0.54402   0.55326
 Alpha virt. eigenvalues --    0.56269   0.56688   0.57719   0.58215   0.59507
 Alpha virt. eigenvalues --    0.60908   0.61708   0.62505   0.65256   0.66426
 Alpha virt. eigenvalues --    0.68365   0.71478   0.76653   0.77835   0.81181
 Alpha virt. eigenvalues --    0.82228   0.84165   0.84555   0.86034   0.88270
 Alpha virt. eigenvalues --    0.89477   0.91191   0.91889   0.92249   0.92832
 Alpha virt. eigenvalues --    0.93430   0.94308   0.94630   0.95859   0.97121
 Alpha virt. eigenvalues --    0.97895   0.98865   0.99561   1.01086   1.01714
 Alpha virt. eigenvalues --    1.02213   1.05044   1.05613   1.08299   1.08949
 Alpha virt. eigenvalues --    1.09222   1.10119   1.11538   1.14636   1.15044
 Alpha virt. eigenvalues --    1.16157   1.17118   1.17461   1.18944   1.19812
 Alpha virt. eigenvalues --    1.20213   1.21595   1.22535   1.23429   1.25286
 Alpha virt. eigenvalues --    1.27217   1.28330   1.30007   1.30520   1.33453
 Alpha virt. eigenvalues --    1.34462   1.35640   1.36857   1.38504   1.39302
 Alpha virt. eigenvalues --    1.39943   1.41746   1.43002   1.44800   1.45672
 Alpha virt. eigenvalues --    1.46893   1.46989   1.47095   1.50033   1.51225
 Alpha virt. eigenvalues --    1.53334   1.55064   1.56525   1.59237   1.60020
 Alpha virt. eigenvalues --    1.60636   1.61919   1.64550   1.66829   1.67395
 Alpha virt. eigenvalues --    1.69578   1.69987   1.71680   1.72628   1.75473
 Alpha virt. eigenvalues --    1.77956   1.78626   1.79944   1.82189   1.83363
 Alpha virt. eigenvalues --    1.84926   1.88249   1.89330   1.91883   1.93779
 Alpha virt. eigenvalues --    1.95238   1.95769   1.96091   1.96528   1.98537
 Alpha virt. eigenvalues --    1.99357   2.01071   2.01265   2.03610   2.06510
 Alpha virt. eigenvalues --    2.07956   2.08159   2.08355   2.10806   2.11981
 Alpha virt. eigenvalues --    2.12806   2.13833   2.14896   2.15428   2.17067
 Alpha virt. eigenvalues --    2.18150   2.19023   2.19917   2.22527   2.25910
 Alpha virt. eigenvalues --    2.26606   2.27539   2.29053   2.30133   2.30998
 Alpha virt. eigenvalues --    2.31726   2.33126   2.35506   2.35912   2.36534
 Alpha virt. eigenvalues --    2.37867   2.38487   2.39280   2.40131   2.42633
 Alpha virt. eigenvalues --    2.44316   2.46680   2.48927   2.49213   2.51224
 Alpha virt. eigenvalues --    2.52088   2.54577   2.56224   2.56810   2.58744
 Alpha virt. eigenvalues --    2.59219   2.60331   2.67071   2.67578   2.70642
 Alpha virt. eigenvalues --    2.70980   2.73581   2.73763   2.74923   2.82998
 Alpha virt. eigenvalues --    2.84092   2.86205   2.93823   2.94833   2.96253
 Alpha virt. eigenvalues --    2.96689   3.02277   3.04802   3.07269   3.08670
 Alpha virt. eigenvalues --    3.09038   3.11911   3.14299   3.14975   3.18939
 Alpha virt. eigenvalues --    3.25517   3.29214   3.32522   3.38519   3.45943
 Alpha virt. eigenvalues --    3.51100   3.55824   3.57132   3.60953   3.63831
 Alpha virt. eigenvalues --    3.72294   3.80658   4.60479   4.66073   4.68493
 Alpha virt. eigenvalues --    4.70885   4.75286   4.77612   4.79667   4.83426
 Alpha virt. eigenvalues --    4.85704   4.88952   4.96955   4.98050   5.03388
 Alpha virt. eigenvalues --    5.10988   5.20582   6.13130   6.33562   6.98815
          Condensed to atoms (all electrons):
               1          2          3          4          5          6
     1  C   22.115627  -0.313343  -0.557882  -0.446291  -0.140703  -0.378869
     2  N   -0.313343   7.606173   0.360768  -0.014169  -0.080827  -0.100617
     3  C   -0.557882   0.360768   6.002194   0.597649   0.306139  -0.456647
     4  O   -0.446291  -0.014169   0.597649   8.250166  -0.150914  -0.119906
     5  O   -0.140703  -0.080827   0.306139  -0.150914   8.534788   0.173844
     6  C   -0.378869  -0.100617  -0.456647  -0.119906   0.173844   6.526263
     7  C   -0.002461   0.015014  -0.001020   0.020564  -0.128426  -0.139711
     8  C   -0.008694   0.002888  -0.070456   0.001297   0.022048  -0.037472
     9  C   -5.521083   0.240764  -0.693528  -0.135013  -0.021235  -0.106807
    10  C    0.032654   0.167572  -0.641876   0.008498   0.011074  -0.067665
    11  C   -1.352916  -0.010746  -0.207457  -0.000706  -0.008370  -0.021685
    12  C   -0.756666   0.006819   0.501620   0.205861   0.007356   0.041284
    13  C   -3.773999  -0.226143   0.170146   0.380201   0.035960   0.013997
    14  H   -0.032950   0.272039  -0.027059   0.003804   0.003708  -0.012310
    15  H    0.008339   0.004169   0.048639  -0.005144  -0.036522   0.361461
    16  H    0.004998   0.004030   0.039698  -0.004830  -0.036541   0.372903
    17  H    0.000209  -0.000445   0.002696  -0.000308  -0.001473  -0.050481
    18  H   -0.000045  -0.000468   0.000967  -0.000299  -0.001479  -0.049041
    19  H   -0.000025  -0.000051  -0.002204  -0.000064  -0.000799  -0.024808
    20  H    0.000065   0.000025   0.004269   0.000015  -0.000143   0.066839
    21  H   -0.000022  -0.000050  -0.002210  -0.000065  -0.000801  -0.024768
    22  H    0.168847  -0.009710  -0.013601   0.000092  -0.000410  -0.001087
    23  Cl   0.108747   0.000593   0.024066   0.000663   0.000292   0.002545
    24  H    0.017063  -0.008338   0.094263  -0.006496   0.000437   0.011118
    25  C   -3.294366   0.007638  -0.206203  -0.000808   0.000744  -0.009522
    26  H   -0.004817   0.000209   0.001859  -0.000000   0.000000   0.000013
    27  F    0.059941   0.000206  -0.000055   0.000001   0.000001  -0.000003
    28  F   -0.004698   0.000411  -0.001718   0.000001   0.000000  -0.000023
    29  F    0.211359  -0.000345   0.001566   0.000002   0.000001   0.000026
               7          8          9         10         11         12
     1  C   -0.002461  -0.008694  -5.521083   0.032654  -1.352916  -0.756666
     2  N    0.015014   0.002888   0.240764   0.167572  -0.010746   0.006819
     3  C   -0.001020  -0.070456  -0.693528  -0.641876  -0.207457   0.501620
     4  O    0.020564   0.001297  -0.135013   0.008498  -0.000706   0.205861
     5  O   -0.128426   0.022048  -0.021235   0.011074  -0.008370   0.007356
     6  C   -0.139711  -0.037472  -0.106807  -0.067665  -0.021685   0.041284
     7  C    5.737169   0.196488   0.017418  -0.002214   0.002540  -0.005371
     8  C    0.196488   5.454824  -0.002370  -0.001225  -0.000032   0.000330
     9  C    0.017418  -0.002370  23.501382  -4.236518  -5.923226  -5.904374
    10  C   -0.002214  -0.001225  -4.236518  19.110456  -2.534355   0.770496
    11  C    0.002540  -0.000032  -5.923226  -2.534355  25.961360  -1.707907
    12  C   -0.005371   0.000330  -5.904374   0.770496  -1.707907  15.297204
    13  C   -0.032093   0.001294   3.029125  -2.074842  -9.087551  -1.146688
    14  H   -0.000492  -0.000258  -0.006971   0.049883   0.004607   0.006511
    15  H   -0.039273  -0.007561   0.001508   0.000017   0.000108  -0.000382
    16  H   -0.039226  -0.006400   0.000817  -0.000111   0.000051  -0.000368
    17  H    0.414277  -0.032466   0.000390   0.000010   0.000008  -0.000014
    18  H    0.414369  -0.031945   0.000304  -0.000003   0.000005  -0.000013
    19  H   -0.025505   0.407323   0.000014  -0.000000   0.000000  -0.000001
    20  H   -0.104888   0.396530  -0.000010   0.000000  -0.000000   0.000000
    21  H   -0.025600   0.407391   0.000016  -0.000000   0.000000  -0.000002
    22  H    0.000001  -0.000005   0.039603   0.119769  -0.002591   0.021619
    23  Cl  -0.000083   0.000010  -0.069979   0.006268   0.079338  -0.326758
    24  H   -0.000029   0.000031  -0.031302  -0.028367   0.102776   0.043633
    25  C   -0.000229  -0.000053   2.130046  -3.837271   1.361679  -1.564026
    26  H    0.000000   0.000000   0.046999   0.098761   0.011372   0.084574
    27  F   -0.000000  -0.000000  -0.084071   0.118169  -0.144442   0.163224
    28  F    0.000000  -0.000000  -0.097835   0.319215  -0.168599   0.025677
    29  F   -0.000001   0.000000  -0.087345   0.028836  -0.089165   0.041672
              13         14         15         16         17         18
     1  C   -3.773999  -0.032950   0.008339   0.004998   0.000209  -0.000045
     2  N   -0.226143   0.272039   0.004169   0.004030  -0.000445  -0.000468
     3  C    0.170146  -0.027059   0.048639   0.039698   0.002696   0.000967
     4  O    0.380201   0.003804  -0.005144  -0.004830  -0.000308  -0.000299
     5  O    0.035960   0.003708  -0.036522  -0.036541  -0.001473  -0.001479
     6  C    0.013997  -0.012310   0.361461   0.372903  -0.050481  -0.049041
     7  C   -0.032093  -0.000492  -0.039273  -0.039226   0.414277   0.414369
     8  C    0.001294  -0.000258  -0.007561  -0.006400  -0.032466  -0.031945
     9  C    3.029125  -0.006971   0.001508   0.000817   0.000390   0.000304
    10  C   -2.074842   0.049883   0.000017  -0.000111   0.000010  -0.000003
    11  C   -9.087551   0.004607   0.000108   0.000051   0.000008   0.000005
    12  C   -1.146688   0.006511  -0.000382  -0.000368  -0.000014  -0.000013
    13  C   17.718358  -0.005645  -0.002484  -0.002103  -0.000302  -0.000266
    14  H   -0.005645   0.239232  -0.000001  -0.000001  -0.000005  -0.000004
    15  H   -0.002484  -0.000001   0.489875  -0.035434   0.003154  -0.003628
    16  H   -0.002103  -0.000001  -0.035434   0.489522  -0.003623   0.003152
    17  H   -0.000302  -0.000005   0.003154  -0.003623   0.495523  -0.029159
    18  H   -0.000266  -0.000004  -0.003628   0.003152  -0.029159   0.495585
    19  H   -0.000045  -0.000000   0.000160   0.001389  -0.003213   0.003314
    20  H    0.000026  -0.000000  -0.000116  -0.000116  -0.002589  -0.002586
    21  H   -0.000052  -0.000000   0.001384   0.000163   0.003312  -0.003212
    22  H   -0.020645   0.003812  -0.000000  -0.000000  -0.000000  -0.000000
    23  Cl   0.025005   0.000011  -0.000003   0.000000  -0.000000   0.000000
    24  H    0.130879  -0.000090  -0.000003  -0.000003  -0.000000  -0.000000
    25  C    0.626528   0.002000   0.000005  -0.000002   0.000000  -0.000000
    26  H    0.091117  -0.000000  -0.000000  -0.000000  -0.000000  -0.000000
    27  F    0.005240   0.000000   0.000000  -0.000000   0.000000  -0.000000
    28  F    0.005631  -0.000001   0.000000  -0.000000   0.000000  -0.000000
    29  F   -0.000911  -0.000003  -0.000000   0.000000  -0.000000   0.000000
              19         20         21         22         23         24
     1  C   -0.000025   0.000065  -0.000022   0.168847   0.108747   0.017063
     2  N   -0.000051   0.000025  -0.000050  -0.009710   0.000593  -0.008338
     3  C   -0.002204   0.004269  -0.002210  -0.013601   0.024066   0.094263
     4  O   -0.000064   0.000015  -0.000065   0.000092   0.000663  -0.006496
     5  O   -0.000799  -0.000143  -0.000801  -0.000410   0.000292   0.000437
     6  C   -0.024808   0.066839  -0.024768  -0.001087   0.002545   0.011118
     7  C   -0.025505  -0.104888  -0.025600   0.000001  -0.000083  -0.000029
     8  C    0.407323   0.396530   0.407391  -0.000005   0.000010   0.000031
     9  C    0.000014  -0.000010   0.000016   0.039603  -0.069979  -0.031302
    10  C   -0.000000   0.000000  -0.000000   0.119769   0.006268  -0.028367
    11  C    0.000000  -0.000000   0.000000  -0.002591   0.079338   0.102776
    12  C   -0.000001   0.000000  -0.000002   0.021619  -0.326758   0.043633
    13  C   -0.000045   0.000026  -0.000052  -0.020645   0.025005   0.130879
    14  H   -0.000000  -0.000000  -0.000000   0.003812   0.000011  -0.000090
    15  H    0.000160  -0.000116   0.001384  -0.000000  -0.000003  -0.000003
    16  H    0.001389  -0.000116   0.000163  -0.000000   0.000000  -0.000003
    17  H   -0.003213  -0.002589   0.003312  -0.000000  -0.000000  -0.000000
    18  H    0.003314  -0.002586  -0.003212  -0.000000   0.000000  -0.000000
    19  H    0.504138  -0.024731  -0.031408  -0.000000  -0.000000  -0.000000
    20  H   -0.024731   0.487714  -0.024732   0.000000   0.000000   0.000000
    21  H   -0.031408  -0.024732   0.504156  -0.000000  -0.000000  -0.000000
    22  H   -0.000000   0.000000  -0.000000   0.411260   0.000248  -0.000068
    23  Cl  -0.000000   0.000000  -0.000000   0.000248  16.935973  -0.003236
    24  H   -0.000000   0.000000  -0.000000  -0.000068  -0.003236   0.346285
    25  C   -0.000000   0.000000  -0.000000   0.019859  -0.036665  -0.000185
    26  H   -0.000000   0.000000  -0.000000  -0.000084  -0.009158  -0.000066
    27  F   -0.000000   0.000000  -0.000000   0.000012  -0.000733  -0.000000
    28  F   -0.000000  -0.000000   0.000000   0.000014  -0.000335   0.000000
    29  F   -0.000000  -0.000000   0.000000   0.001106  -0.000231   0.000000
              25         26         27         28         29
     1  C   -3.294366  -0.004817   0.059941  -0.004698   0.211359
     2  N    0.007638   0.000209   0.000206   0.000411  -0.000345
     3  C   -0.206203   0.001859  -0.000055  -0.001718   0.001566
     4  O   -0.000808  -0.000000   0.000001   0.000001   0.000002
     5  O    0.000744   0.000000   0.000001   0.000000   0.000001
     6  C   -0.009522   0.000013  -0.000003  -0.000023   0.000026
     7  C   -0.000229   0.000000  -0.000000   0.000000  -0.000001
     8  C   -0.000053   0.000000  -0.000000  -0.000000   0.000000
     9  C    2.130046   0.046999  -0.084071  -0.097835  -0.087345
    10  C   -3.837271   0.098761   0.118169   0.319215   0.028836
    11  C    1.361679   0.011372  -0.144442  -0.168599  -0.089165
    12  C   -1.564026   0.084574   0.163224   0.025677   0.041672
    13  C    0.626528   0.091117   0.005240   0.005631  -0.000911
    14  H    0.002000  -0.000000   0.000000  -0.000001  -0.000003
    15  H    0.000005  -0.000000   0.000000   0.000000  -0.000000
    16  H   -0.000002  -0.000000  -0.000000  -0.000000   0.000000
    17  H    0.000000  -0.000000   0.000000   0.000000  -0.000000
    18  H   -0.000000  -0.000000  -0.000000  -0.000000   0.000000
    19  H   -0.000000  -0.000000  -0.000000  -0.000000  -0.000000
    20  H    0.000000   0.000000   0.000000  -0.000000  -0.000000
    21  H   -0.000000  -0.000000  -0.000000   0.000000   0.000000
    22  H    0.019859  -0.000084   0.000012   0.000014   0.001106
    23  Cl  -0.036665  -0.009158  -0.000733  -0.000335  -0.000231
    24  H   -0.000185  -0.000066  -0.000000   0.000000   0.000000
    25  C    8.867047   0.005258   0.003570   0.050601   0.013148
    26  H    0.005258   0.382653   0.000660  -0.000169   0.000147
    27  F    0.003570   0.000660   9.316006  -0.027501  -0.015000
    28  F    0.050601  -0.000169  -0.027501   9.287690  -0.025720
    29  F    0.013148   0.000147  -0.015000  -0.025720   9.329340
 Mulliken charges:
               1
     1  C   -0.138018
     2  N   -0.924066
     3  C    0.725379
     4  O   -0.583799
     5  O   -0.487747
     6  C    0.031131
     7  C   -0.271219
     8  C   -0.691517
     9  C   -0.086718
    10  C   -1.417231
    11  C   -0.264098
    12  C    0.194688
    13  C    0.140260
    14  H    0.500185
    15  H    0.211731
    16  H    0.212033
    17  H    0.204500
    18  H    0.204452
    19  H    0.196516
    20  H    0.204429
    21  H    0.196501
    22  H    0.261960
    23  Cl   0.263423
    24  H    0.331698
    25  C    1.861204
    26  H    0.290671
    27  F   -0.395224
    28  F   -0.362642
    29  F   -0.408482
 Sum of Mulliken charges =  -0.00000
 Mulliken charges with hydrogens summed into heavy atoms:
               1
     1  C   -0.138018
     2  N   -0.423880
     3  C    0.725379
     4  O   -0.583799
     5  O   -0.487747
     6  C    0.454894
     7  C    0.137733
     8  C   -0.094071
     9  C    0.175242
    10  C   -1.417231
    11  C    0.026573
    12  C    0.194688
    13  C    0.471958
    23  Cl   0.263423
    25  C    1.861204
    27  F   -0.395224
    28  F   -0.362642
    29  F   -0.408482
 Electronic spatial extent (au):  <R**2>=           8270.7412
 Charge=             -0.0000 electrons
 Dipole moment (field-independent basis, Debye):
    X=             -4.1224    Y=             -2.2524    Z=             -0.1013  Tot=              4.6987
 Quadrupole moment (field-independent basis, Debye-Ang):
   XX=           -104.1258   YY=           -118.2264   ZZ=           -113.7582
   XY=              9.3309   XZ=             -0.3137   YZ=              0.1440
 Traceless Quadrupole moment (field-independent basis, Debye-Ang):
   XX=              7.9110   YY=             -6.1896   ZZ=             -1.7214
   XY=              9.3309   XZ=             -0.3137   YZ=              0.1440
 Octapole moment (field-independent basis, Debye-Ang**2):
  XXX=            -85.3095  YYY=            -41.0886  ZZZ=             -0.8811  XYY=              5.8910
  XXY=             -0.2285  XXZ=             -0.2590  XZZ=              4.9579  YZZ=             -7.8544
  YYZ=              0.7226  XYZ=              1.0167
 Hexadecapole moment (field-independent basis, Debye-Ang**3):
 XXXX=          -7854.5790 YYYY=          -1911.1285 ZZZZ=           -201.5891 XXXY=             59.5680
 XXXZ=              4.6666 YYYX=            -81.7947 YYYZ=             -3.6405 ZZZX=             -4.2414
 ZZZY=              2.3614 XXYY=          -1773.4716 XXZZ=          -1426.4858 YYZZ=           -360.9447
 XXYZ=              4.2776 YYXZ=              0.7554 ZZXY=            -38.2536
 N-N= 1.417967932408D+03 E-N=-6.108247800292D+03  KE= 1.382611269161D+03
 1\1\GINC-R3716\SP\RMP2-FC\Gen\C11H11Cl1F3N1O2\ROOT\09-Dec-2019\0\\# MP
 2/Gen 6D SCF=Tight INT(grid=ultrafine) maxdisk=3489660928\\NM3CA_c2.MP
 2_6-31pGd\\0,1\C,0,-5.9363567378,1.4871685131,0.2139658711\N,0,-4.6853
 388909,0.8757892616,0.0795614564\C,0,-3.4511677975,1.475619194,0.12622
 32574\O,0,-3.2317298801,2.6470234401,0.2916282537\O,0,-2.5066698127,0.
 5366687427,-0.0444015202\C,0,-1.1517696602,1.0128764794,-0.0197271348\
 C,0,-0.2427370649,-0.1790216373,-0.2276800899\C,0,1.2234609946,0.24470
 63279,-0.2146277537\C,0,-7.0615804509,0.660212118,0.1419496509\C,0,-8.
 3271195545,1.206115539,0.2727268139\C,0,-8.5149941624,2.5682171936,0.4
 733689354\C,0,-7.3848828587,3.3682391418,0.5410166345\C,0,-6.098569776
 3,2.8603143526,0.4158612955\H,0,-4.6723450703,-0.1227935437,-0.0665327
 15\H,0,-0.9676104547,1.5013770129,0.94019098\H,0,-1.0269831357,1.76081
 88425,-0.8064807907\H,0,-0.4933609552,-0.6560361718,-1.1790401409\H,0,
 -0.4342034094,-0.9141876367,0.5586463706\H,0,1.4351380334,0.9665312717
 ,-1.0071614225\H,0,1.879898769,-0.6132456076,-0.3645154449\H,0,1.49457
 54304,0.7072008053,0.7375011861\H,0,-6.9461794053,-0.4076650211,-0.007
 6883987\Cl,0,-7.5807874619,5.0775547305,0.7976637603\H,0,-5.2427687981
 ,3.5152890208,0.4771091532\C,0,-9.5291495216,0.3144669474,0.1321585646
 \H,0,-9.5047148548,2.9921872255,0.581214573\F,0,-10.5610352639,0.74587
 33944,0.8670596835\F,0,-9.9534568902,0.2592616547,-1.140819919\F,0,-9.
 2664013594,-0.9454615912,0.5071688903\\Version=ES64L-G09RevE.01\State=
 1-A\HF=-1385.0049145\MP2=-1387.594606\RMSD=4.553e-09\PG=C01 [X(C11H11C
 l1F3N1O2)]\\@


 I WANT TO KNOW HOW GOD CREATED THE WORLD.  I AM NOT INTERESTED IN
 THIS OR THAT PHENOMENON, IN THE SPECTRUM OF THIS OR THAT ELEMENT.
 I WANT TO KNOW HIS THOUGHTS, THE REST ARE DETAILS.
     -- ALBERT EINSTEIN
 Job cpu time:       0 days  0 hours 12 minutes 51.9 seconds.
 File lengths (MBytes):  RWF=     74 Int=      0 D2E=      0 Chk=      9 Scr=      1
 Normal termination of Gaussian 09 at Mon Dec  9 11:37:26 2019.
pbs_rusage has been removed.
Please contact help@nci.org.au if you require this functionality.
