 Entering Gaussian System, Link 0=/apps/gaussian/g16c01/g16/g16
 Initial command:
 /apps/gaussian/g16c01/g16/l1.exe "/jobfs/11574663.gadi-pbs/Gau-573044.inp" -scrdir="/jobfs/11574663.gadi-pbs/"
 Entering Link 1 = /apps/gaussian/g16c01/g16/l1.exe PID=    573045.
  
 Copyright (c) 1988-2019, Gaussian, Inc.  All Rights Reserved.
  
 This is part of the Gaussian(R) 16 program.  It is based on
 the Gaussian(R) 09 system (copyright 2009, Gaussian, Inc.),
 the Gaussian(R) 03 system (copyright 2003, Gaussian, Inc.),
 the Gaussian(R) 98 system (copyright 1998, Gaussian, Inc.),
 the Gaussian(R) 94 system (copyright 1995, Gaussian, Inc.),
 the Gaussian 92(TM) system (copyright 1992, Gaussian, Inc.),
 the Gaussian 90(TM) system (copyright 1990, Gaussian, Inc.),
 the Gaussian 88(TM) system (copyright 1988, Gaussian, Inc.),
 the Gaussian 86(TM) system (copyright 1986, Carnegie Mellon
 University), and the Gaussian 82(TM) system (copyright 1983,
 Carnegie Mellon University). Gaussian is a federally registered
 trademark of Gaussian, Inc.
  
 This software contains proprietary and confidential information,
 including trade secrets, belonging to Gaussian, Inc.
  
 This software is provided under written license and may be
 used, copied, transmitted, or stored only in accord with that
 written license.
  
 The following legend is applicable only to US Government
 contracts under FAR:
  
                    RESTRICTED RIGHTS LEGEND
  
 Use, reproduction and disclosure by the US Government is
 subject to restrictions as set forth in subparagraphs (a)
 and (c) of the Commercial Computer Software - Restricted
 Rights clause in FAR 52.227-19.
  
 Gaussian, Inc.
 340 Quinnipiac St., Bldg. 40, Wallingford CT 06492
  
  
 ---------------------------------------------------------------
 Warning -- This program may not be used in any manner that
 competes with the business of Gaussian, Inc. or will provide
 assistance to any competitor of Gaussian, Inc.  The licensee
 of this program is prohibited from giving any competitor of
 Gaussian, Inc. access to this program.  By using this program,
 the user acknowledges that Gaussian, Inc. is engaged in the
 business of creating and licensing software in the field of
 computational chemistry and represents and warrants to the
 licensee that it is not a competitor of Gaussian, Inc. and that
 it will not use this program in any manner prohibited above.
 ---------------------------------------------------------------
  

 Cite this work as:
 Gaussian 16, Revision C.01,
 M. J. Frisch, G. W. Trucks, H. B. Schlegel, G. E. Scuseria, 
 M. A. Robb, J. R. Cheeseman, G. Scalmani, V. Barone, 
 G. A. Petersson, H. Nakatsuji, X. Li, M. Caricato, A. V. Marenich, 
 J. Bloino, B. G. Janesko, R. Gomperts, B. Mennucci, H. P. Hratchian, 
 J. V. Ortiz, A. F. Izmaylov, J. L. Sonnenberg, D. Williams-Young, 
 F. Ding, F. Lipparini, F. Egidi, J. Goings, B. Peng, A. Petrone, 
 T. Henderson, D. Ranasinghe, V. G. Zakrzewski, J. Gao, N. Rega, 
 G. Zheng, W. Liang, M. Hada, M. Ehara, K. Toyota, R. Fukuda, 
 J. Hasegawa, M. Ishida, T. Nakajima, Y. Honda, O. Kitao, H. Nakai, 
 T. Vreven, K. Throssell, J. A. Montgomery, Jr., J. E. Peralta, 
 F. Ogliaro, M. J. Bearpark, J. J. Heyd, E. N. Brothers, K. N. Kudin, 
 V. N. Staroverov, T. A. Keith, R. Kobayashi, J. Normand, 
 K. Raghavachari, A. P. Rendell, J. C. Burant, S. S. Iyengar, 
 J. Tomasi, M. Cossi, J. M. Millam, M. Klene, C. Adamo, R. Cammi, 
 J. W. Ochterski, R. L. Martin, K. Morokuma, O. Farkas, 
 J. B. Foresman, and D. J. Fox, Gaussian, Inc., Wallingford CT, 2019.
 
 ******************************************
 Gaussian 16:  ES64L-G16RevC.01  3-Jul-2019
                22-Sep-2020 
 ******************************************
 %NprocShared=6
 Will use up to    6 processors via shared memory.
 %Mem=1194000MB
 %chk=NM3CA.DSDPBEP86_AUG-cc-PVTZ.chk
 ----------------------------------------------------------------------
 # DSDPBEP86/AUG-cc-PVTZ SCF=Tight INT(grid=ultrafine) MaxDisk=1400000M
 B
 ----------------------------------------------------------------------
 1/38=1,172=1/1;
 2/12=2,17=6,18=5,40=1/2;
 3/5=16,6=1,7=10,11=9,25=1,30=1,74=-77,75=-5/1,2,3;
 4//1;
 5/5=2,32=2,38=5/2;
 8/10=1/1;
 9/16=-3/6;
 6/7=2,8=2,9=2,10=2/1;
 99/5=1,9=1/99;
 ---------------------------
 NM3CA.DSDPBEP86_AUG-cc-PVTZ
 ---------------------------
 Symbolic Z-matrix:
 Charge =  0 Multiplicity = 1
 C                    -5.95698   1.28084   0.19372 
 N                    -4.67619   0.72609   0.09852 
 C                    -3.47489   1.39187   0.09536 
 O                    -3.3167    2.58164   0.1747 
 O                    -2.48234   0.49363  -0.01209 
 C                    -1.15502   1.04274  -0.02912 
 C                    -0.18225  -0.10965  -0.15429 
 C                     1.25829   0.39416  -0.17941 
 C                    -6.19114   2.65638   0.30321 
 C                    -7.50136   3.10126   0.39172 
 C                    -8.59022   2.23644   0.37603 
 C                    -8.33113   0.88052   0.26687 
 C                    -7.03641   0.39444   0.17606 
 H                    -4.61017  -0.27818   0.02315 
 H                    -0.99669   1.60948   0.89157 
 H                    -1.07205   1.73706  -0.86874 
 H                    -0.40698  -0.66787  -1.06717 
 H                    -0.33201  -0.79486   0.68447 
 H                     1.42884   1.06685  -1.02342 
 H                     1.96121  -0.43482  -0.26967 
 H                     1.50414   0.93924   0.73513 
 H                    -5.36766   3.3534    0.31818 
 Cl                   -9.65633  -0.24587   0.24244 
 H                    -6.8718   -0.67412   0.09175 
 C                    -7.78981   4.57378   0.51063 
 H                    -9.60602   2.6051    0.44635 
 F                    -8.55585   5.00409  -0.50479 
 F                    -8.46293   4.84914   1.63942 
 F                    -6.68127   5.31742   0.51636 
 
                          Input orientation:                          
 ---------------------------------------------------------------------
 Center     Atomic      Atomic             Coordinates (Angstroms)
 Number     Number       Type             X           Y           Z
 ---------------------------------------------------------------------
      1          6           0       -5.956977    1.280842    0.193724
      2          7           0       -4.676193    0.726085    0.098524
      3          6           0       -3.474890    1.391866    0.095356
      4          8           0       -3.316705    2.581644    0.174699
      5          8           0       -2.482341    0.493632   -0.012089
      6          6           0       -1.155019    1.042736   -0.029119
      7          6           0       -0.182250   -0.109651   -0.154291
      8          6           0        1.258290    0.394161   -0.179415
      9          6           0       -6.191136    2.656376    0.303215
     10          6           0       -7.501357    3.101257    0.391717
     11          6           0       -8.590215    2.236442    0.376031
     12          6           0       -8.331132    0.880516    0.266875
     13          6           0       -7.036409    0.394438    0.176064
     14          1           0       -4.610165   -0.278178    0.023147
     15          1           0       -0.996689    1.609482    0.891571
     16          1           0       -1.072048    1.737061   -0.868742
     17          1           0       -0.406977   -0.667869   -1.067175
     18          1           0       -0.332013   -0.794863    0.684472
     19          1           0        1.428838    1.066852   -1.023418
     20          1           0        1.961208   -0.434824   -0.269674
     21          1           0        1.504142    0.939238    0.735128
     22          1           0       -5.367662    3.353399    0.318183
     23         17           0       -9.656326   -0.245871    0.242445
     24          1           0       -6.871800   -0.674118    0.091747
     25          6           0       -7.789815    4.573777    0.510633
     26          1           0       -9.606019    2.605096    0.446354
     27          9           0       -8.555853    5.004090   -0.504788
     28          9           0       -8.462929    4.849136    1.639418
     29          9           0       -6.681270    5.317417    0.516358
 ---------------------------------------------------------------------
                    Distance matrix (angstroms):
                    1          2          3          4          5
     1  C    0.000000
     2  N    1.399009   0.000000
     3  C    2.486516   1.373464   0.000000
     4  O    2.943380   2.301545   1.202867   0.000000
     5  O    3.568635   2.208904   1.342953   2.256291   0.000000
     6  C    4.813020   3.537687   2.349295   2.661328   1.436520
     7  C    5.949963   4.577979   3.627445   4.144407   2.382140
     8  C    7.279116   5.950253   4.844988   5.083410   3.745693
     9  C    1.399612   2.462311   3.003362   2.878273   4.304886
    10  C    2.395458   3.702560   4.384323   4.222370   5.670387
    11  C    2.807196   4.204493   5.192171   5.288631   6.363502
    12  C    2.408780   3.662072   4.886102   5.295924   5.868208
    13  C    1.396852   2.384664   3.699432   4.315098   4.559032
    14  H    2.067255   1.009250   2.020671   3.142386   2.263751
    15  H    5.019906   3.866272   2.612047   2.615622   2.066128
    16  H    5.019911   3.866204   2.611952   2.615449   2.066131
    17  H    6.015800   4.639845   3.873767   4.535207   2.601812
    18  H    6.015780   4.639884   3.873825   4.535312   2.601793
    19  H    7.488491   6.216613   5.040222   5.123500   4.080281
    20  H    8.115166   6.748213   5.746408   6.095319   4.546813
    21  H    7.488532   6.216690   5.040331   5.123684   4.080312
    22  H    2.158304   2.725648   2.734931   2.196046   4.075834
    23  Cl   4.002300   5.076134   6.396403   6.941918   7.216489
    24  H    2.160826   2.604094   3.975840   4.821366   4.543322
    25  C    3.781950   4.966810   5.377322   4.908173   6.714916
    26  H    3.890113   5.287235   6.259862   6.295222   7.444142
    27  F    4.593980   5.806640   6.262948   5.811938   7.581196
    28  F    4.593751   5.806313   6.262378   5.811243   7.580589
    29  F    4.113713   5.027449   5.086066   4.349883   6.417100
                    6          7          8          9         10
     6  C    0.000000
     7  C    1.513256   0.000000
     8  C    2.503457   1.526307   0.000000
     9  C    5.298750   6.630756   7.800288   0.000000
    10  C    6.685104   8.011079   9.186184   1.386517   0.000000
    11  C    7.541301   8.745243  10.034719   2.436643   1.390599
    12  C    7.184047   8.219617   9.612114   2.781112   2.373985
    13  C    5.920569   6.880605   8.302313   2.418061   2.754915
    14  H    3.699403   4.434673   5.910317   3.345073   4.462669
    15  H    1.092675   2.170842   2.776499   5.331456   6.692230
    16  H    1.092675   2.170836   2.776514   5.331386   6.692219
    17  H    2.136187   1.093374   2.165443   6.810658   8.164857
    18  H    2.136194   1.093374   2.165443   6.810707   8.164861
    19  H    2.768669   2.176040   1.092677   7.896236   9.267674
    20  H    3.457155   2.171051   1.090622   8.737530  10.123312
    21  H    2.768740   2.176040   1.092676   7.896354   9.267754
    22  H    4.817275   6.253355   7.273784   1.078968   2.149799
    23  Cl   8.602702   9.483358  10.941501   4.520429   3.983647
    24  H    5.970242   6.717830   8.204457   3.405909   3.839242
    25  C    7.535257   8.958329   9.990673   2.505039   1.505212
    26  H    8.607349   9.825378  11.104640   3.418267   2.163045
    27  F    8.407790   9.817863  10.847798   3.428778   2.352968
    28  F    8.407036   9.817159  10.846984   3.428510   2.352968
    29  F    7.007845   8.493533   9.367986   2.714185   2.366314
                   11         12         13         14         15
    11  C    0.000000
    12  C    1.384765   0.000000
    13  C    2.418115   1.385940   0.000000
    14  H    4.721084   3.904814   2.522390   0.000000
    15  H    7.636786   7.397006   6.202136   4.168288   0.000000
    16  H    7.636863   7.397134   6.202246   4.168324   1.766539
    17  H    8.802457   8.183485   6.828140   4.359754   3.061172
    18  H    8.802378   8.183349   6.828019   4.359691   2.503110
    19  H   10.183704   9.846654   8.576206   6.274868   3.137644
    20  H   10.903446  10.389913   9.046738   6.579760   3.778470
    21  H   10.183700   9.846590   8.576151   6.274852   2.593811
    22  H    3.411127   3.860044   3.400054   3.721451   4.740825
    23  Cl   2.704869   1.739391   2.697845   5.051027   8.879922
    24  H    3.391921   2.139441   1.084443   2.297056   6.353855
    25  C    2.474246   3.740671   4.259863   5.821450   7.421504
    26  H    1.082917   2.152145   3.400436   5.783678   8.678135
    27  F    2.904634   4.201170   4.901140   6.614342   8.403222
    28  F    2.904913   4.201332   4.901092   6.614036   8.173088
    29  F    3.627144   4.740293   4.947489   5.986937   6.797355
                   16         17         18         19         20
    16  H    0.000000
    17  H    2.503074   0.000000
    18  H    3.061171   1.757844   0.000000
    19  H    2.593750   2.526141   3.079524   0.000000
    20  H    3.778440   2.509705   2.509758   1.762549   0.000000
    21  H    3.137782   3.079524   2.526091   1.764778   1.762550
    22  H    4.740637   6.534386   6.534524   7.295245   8.270946
    23  Cl   8.880123   9.351130   9.350914  11.234167  11.630351
    24  H    6.354010   6.567882   6.567703   8.554248   8.843638
    25  C    7.421457   9.190790   9.190828   9.981753  10.989878
    26  H    8.678227   9.880559   9.880467  11.238083  11.981426
    27  F    8.173939   9.944424  10.132806  10.745458  11.842535
    28  F    8.402440  10.132194   9.943764  10.919864  11.841769
    29  F    6.797119   8.814646   8.814834   9.285045  10.411463
                   21         22         23         24         25
    21  H    0.000000
    22  H    7.295458   0.000000
    23  Cl  11.234023   5.599385   0.000000
    24  H    8.554137   4.305183   2.821292   0.000000
    25  C    9.981879   2.719041   5.175403   5.344026   0.000000
    26  H   11.238067   4.305817   2.858693   4.284268   2.679260
    27  F   10.920802   3.683290   5.415856   5.952641   1.342782
    28  F   10.744652   3.682875   5.416164   5.952589   1.342781
    29  F    9.285326   2.371120   6.314757   6.009583   1.334880
                   26         27         28         29
    26  H    0.000000
    27  F    2.786161   0.000000
    28  F    2.786714   2.151805   0.000000
    29  F    3.989454   2.157539   2.157512   0.000000
 Stoichiometry    C11H11ClF3NO2
 Framework group  C1[X(C11H11ClF3NO2)]
 Deg. of freedom    81
 Full point group                 C1      NOp   1
 Largest Abelian subgroup         C1      NOp   1
 Largest concise Abelian subgroup C1      NOp   1
                         Standard orientation:                         
 ---------------------------------------------------------------------
 Center     Atomic      Atomic             Coordinates (Angstroms)
 Number     Number       Type             X           Y           Z
 ---------------------------------------------------------------------
      1          6           0        0.141669    0.711592   -0.000223
      2          7           0       -1.243678    0.906635   -0.000379
      3          6           0       -2.223435   -0.055904   -0.000142
      4          8           0       -2.055479   -1.246987   -0.000020
      5          8           0       -3.423192    0.547507   -0.000079
      6          6           0       -4.555987   -0.335876    0.000136
      7          6           0       -5.805153    0.518249   -0.000002
      8          6           0       -7.059396   -0.351514    0.000249
      9          6           0        0.738251   -0.554506   -0.000211
     10          6           0        2.122394   -0.635608   -0.000074
     11          6           0        2.940042    0.489210    0.000045
     12          6           0        2.324693    1.729742    0.000019
     13          6           0        0.944402    1.854752   -0.000113
     14          1           0       -1.577984    1.858908   -0.000328
     15          1           0       -4.502470   -0.976722    0.883534
     16          1           0       -4.502531   -0.977081   -0.883004
     17          1           0       -5.792041    1.168270   -0.879075
     18          1           0       -5.791970    1.168675    0.878769
     19          1           0       -7.096217   -0.995179   -0.881954
     20          1           0       -7.961038    0.262080    0.000069
     21          1           0       -7.096219   -0.994668    0.882824
     22          1           0        0.131468   -1.446688   -0.000304
     23         17           0        3.299907    3.170033    0.000165
     24          1           0        0.497646    2.842894   -0.000126
     25          6           0        2.797509   -1.980927    0.000022
     26          1           0        4.019554    0.403405    0.000143
     27          9           0        3.587382   -2.130122   -1.075573
     28          9           0        3.586487   -2.130418    1.076233
     29          9           0        1.928193   -2.993940   -0.000452
 ---------------------------------------------------------------------
 Rotational constants (GHZ):           0.5307402           0.1582254           0.1248190
 Standard basis: Aug-CC-pVTZ (5D, 7F)
 There are  1269 symmetry adapted cartesian basis functions of A   symmetry.
 There are  1085 symmetry adapted basis functions of A   symmetry.
  1085 basis functions,  1635 primitive gaussians,  1269 cartesian basis functions
    72 alpha electrons       72 beta electrons
       nuclear repulsion energy      1424.7130338663 Hartrees.
 NAtoms=   29 NActive=   29 NUniq=   29 SFac= 1.00D+00 NAtFMM=   60 NAOKFM=F Big=F
 Integral buffers will be    131072 words long.
 Regular integral format.
 Two-electron integral symmetry is turned on.
 Nuclear repulsion after empirical dispersion term =     1424.6914189694 Hartrees.
 One-electron integrals computed using PRISM.
 NBasis=  1085 RedAO= T EigKep=  1.37D-06  NBF=  1085
 NBsUse=  1082 1.00D-06 EigRej=  9.21D-07 NBFU=  1082
 ExpMin= 2.53D-02 ExpMax= 4.56D+05 ExpMxC= 1.44D+03 IAcc=3 IRadAn=         5 AccDes= 0.00D+00
 Harris functional with IExCor= 1004 and IRadAn=       5 diagonalized for initial guess.
 HarFok:  IExCor= 1004 AccDes= 0.00D+00 IRadAn=         5 IDoV= 1 UseB2=F ITyADJ=14
 ICtDFT=  3500011 ScaDFX=  1.000000  1.000000  1.000000  1.000000
 FoFCou: FMM=F IPFlag=           0 FMFlag=      100000 FMFlg1=           0
         NFxFlg=           0 DoJE=T BraDBF=F KetDBF=T FulRan=T
         wScrn=  0.000000 ICntrl=       500 IOpCl=  0 I1Cent=   200000004 NGrid=           0
         NMat0=    1 NMatS0=      1 NMatT0=    0 NMatD0=    1 NMtDS0=    0 NMtDT0=    0
 Petite list used in FoFCou.
 Requested convergence on RMS density matrix=1.00D-08 within 128 cycles.
 Requested convergence on MAX density matrix=1.00D-06.
 Requested convergence on             energy=1.00D-06.
 No special actions if energy rises.
 SCF Done:  E(RDSDPBEP86) =  -1387.62299899     A.U. after   13 cycles
            NFock= 13  Conv=0.62D-08     -V/T= 2.0025
 DoSCS=T DFT=T ScalE2(SS,OS)=  0.220000  0.520000
 ExpMin= 2.53D-02 ExpMax= 4.56D+05 ExpMxC= 1.44D+03 IAcc=3 IRadAn=         5 AccDes= 0.00D+00
 HarFok:  IExCor=  205 AccDes= 0.00D+00 IRadAn=         5 IDoV=-2 UseB2=F ITyADJ=14
 ICtDFT= 12500011 ScaDFX=  1.000000  1.000000  1.000000  1.000000
 GSVD:  LWork=        -660 too small for GESVD, short by        2750 words or        2750 for optimal perf.
 Range of M.O.s used for correlation:    23  1082
 NBasis=  1085 NAE=    72 NBE=    72 NFC=    22 NFV=     0
 NROrb=   1060 NOA=    50 NOB=    50 NVA=  1010 NVB=  1010

 **** Warning!!: The largest alpha MO coefficient is  0.11498859D+03

 DoSCS=T DFT=T ScalE2(SS,OS)=  0.220000  0.520000
 Fully direct method using O(OVN) memory.
 JobTyp=1 Pass  1:  I=   1 to  50 NPSUse=  6 ParTrn=T ParDer=T DoDerP=F.
 Spin components of T(2) and E(2):
     alpha-alpha T2 =       0.1739646913D+00 E2=     -0.1106361135D+00
     alpha-beta  T2 =       0.9006386258D+00 E2=     -0.1483257035D+01
     beta-beta   T2 =       0.1739646913D+00 E2=     -0.1106361135D+00
 E2(DSDPBEP86) =    -0.1704529262D+01 E(DSDPBEP86) =    -0.13893275282565D+04

 **********************************************************************

            Population analysis using the SCF Density.

 **********************************************************************

 Orbital symmetries:
       Occupied  (A) (A) (A) (A) (A) (A) (A) (A) (A) (A) (A) (A)
                 (A) (A) (A) (A) (A) (A) (A) (A) (A) (A) (A) (A)
                 (A) (A) (A) (A) (A) (A) (A) (A) (A) (A) (A) (A)
                 (A) (A) (A) (A) (A) (A) (A) (A) (A) (A) (A) (A)
                 (A) (A) (A) (A) (A) (A) (A) (A) (A) (A) (A) (A)
                 (A) (A) (A) (A) (A) (A) (A) (A) (A) (A) (A) (A)
       Virtual   (A) (A) (A) (A) (A) (A) (A) (A) (A) (A) (A) (A)
                 (A) (A) (A) (A) (A) (A) (A) (A) (A) (A) (A) (A)
                 (A) (A) (A) (A) (A) (A) (A) (A) (A) (A) (A) (A)
                 (A) (A) (A) (A) (A) (A) (A) (A) (A) (A) (A) (A)
                 (A) (A) (A) (A) (A) (A) (A) (A) (A) (A) (A) (A)
                 (A) (A) (A) (A) (A) (A) (A) (A) (A) (A) (A) (A)
                 (A) (A) (A) (A) (A) (A) (A) (A) (A) (A) (A) (A)
                 (A) (A) (A) (A) (A) (A) (A) (A) (A) (A) (A) (A)
                 (A) (A) (A) (A) (A) (A) (A) (A) (A) (A) (A) (A)
                 (A) (A) (A) (A) (A) (A) (A) (A) (A) (A) (A) (A)
                 (A) (A) (A) (A) (A) (A) (A) (A) (A) (A) (A) (A)
                 (A) (A) (A) (A) (A) (A) (A) (A) (A) (A) (A) (A)
                 (A) (A) (A) (A) (A) (A) (A) (A) (A) (A) (A) (A)
                 (A) (A) (A) (A) (A) (A) (A) (A) (A) (A) (A) (A)
                 (A) (A) (A) (A) (A) (A) (A) (A) (A) (A) (A) (A)
                 (A) (A) (A) (A) (A) (A) (A) (A) (A) (A) (A) (A)
                 (A) (A) (A) (A) (A) (A) (A) (A) (A) (A) (A) (A)
                 (A) (A) (A) (A) (A) (A) (A) (A) (A) (A) (A) (A)
                 (A) (A) (A) (A) (A) (A) (A) (A) (A) (A) (A) (A)
                 (A) (A) (A) (A) (A) (A) (A) (A) (A) (A) (A) (A)
                 (A) (A) (A) (A) (A) (A) (A) (A) (A) (A) (A) (A)
                 (A) (A) (A) (A) (A) (A) (A) (A) (A) (A) (A) (A)
                 (A) (A) (A) (A) (A) (A) (A) (A) (A) (A) (A) (A)
                 (A) (A) (A) (A) (A) (A) (A) (A) (A) (A) (A) (A)
                 (A) (A) (A) (A) (A) (A) (A) (A) (A) (A) (A) (A)
                 (A) (A) (A) (A) (A) (A) (A) (A) (A) (A) (A) (A)
                 (A) (A) (A) (A) (A) (A) (A) (A) (A) (A) (A) (A)
                 (A) (A) (A) (A) (A) (A) (A) (A) (A) (A) (A) (A)
                 (A) (A) (A) (A) (A) (A) (A) (A) (A) (A) (A) (A)
                 (A) (A) (A) (A) (A) (A) (A) (A) (A) (A) (A) (A)
                 (A) (A) (A) (A) (A) (A) (A) (A) (A) (A) (A) (A)
                 (A) (A) (A) (A) (A) (A) (A) (A) (A) (A) (A) (A)
                 (A) (A) (A) (A) (A) (A) (A) (A) (A) (A) (A) (A)
                 (A) (A) (A) (A) (A) (A) (A) (A) (A) (A) (A) (A)
                 (A) (A) (A) (A) (A) (A) (A) (A) (A) (A) (A) (A)
                 (A) (A) (A) (A) (A) (A) (A) (A) (A) (A) (A) (A)
                 (A) (A) (A) (A) (A) (A) (A) (A) (A) (A) (A) (A)
                 (A) (A) (A) (A) (A) (A) (A) (A) (A) (A) (A) (A)
                 (A) (A) (A) (A) (A) (A) (A) (A) (A) (A) (A) (A)
                 (A) (A) (A) (A) (A) (A) (A) (A) (A) (A) (A) (A)
                 (A) (A) (A) (A) (A) (A) (A) (A) (A) (A) (A) (A)
                 (A) (A) (A) (A) (A) (A) (A) (A) (A) (A) (A) (A)
                 (A) (A) (A) (A) (A) (A) (A) (A) (A) (A) (A) (A)
                 (A) (A) (A) (A) (A) (A) (A) (A) (A) (A) (A) (A)
                 (A) (A) (A) (A) (A) (A) (A) (A) (A) (A) (A) (A)
                 (A) (A) (A) (A) (A) (A) (A) (A) (A) (A) (A) (A)
                 (A) (A) (A) (A) (A) (A) (A) (A) (A) (A) (A) (A)
                 (A) (A) (A) (A) (A) (A) (A) (A) (A) (A) (A) (A)
                 (A) (A) (A) (A) (A) (A) (A) (A) (A) (A) (A) (A)
                 (A) (A) (A) (A) (A) (A) (A) (A) (A) (A) (A) (A)
                 (A) (A) (A) (A) (A) (A) (A) (A) (A) (A) (A) (A)
                 (A) (A) (A) (A) (A) (A) (A) (A) (A) (A) (A) (A)
                 (A) (A) (A) (A) (A) (A) (A) (A) (A) (A) (A) (A)
                 (A) (A) (A) (A) (A) (A) (A) (A) (A) (A) (A) (A)
                 (A) (A) (A) (A) (A) (A) (A) (A) (A) (A) (A) (A)
                 (A) (A) (A) (A) (A) (A) (A) (A) (A) (A) (A) (A)
                 (A) (A) (A) (A) (A) (A) (A) (A) (A) (A) (A) (A)
                 (A) (A) (A) (A) (A) (A) (A) (A) (A) (A) (A) (A)
                 (A) (A) (A) (A) (A) (A) (A) (A) (A) (A) (A) (A)
                 (A) (A) (A) (A) (A) (A) (A) (A) (A) (A) (A) (A)
                 (A) (A) (A) (A) (A) (A) (A) (A) (A) (A) (A) (A)
                 (A) (A) (A) (A) (A) (A) (A) (A) (A) (A) (A) (A)
                 (A) (A) (A) (A) (A) (A) (A) (A) (A) (A) (A) (A)
                 (A) (A) (A) (A) (A) (A) (A) (A) (A) (A) (A) (A)
                 (A) (A) (A) (A) (A) (A) (A) (A) (A) (A) (A) (A)
                 (A) (A) (A) (A) (A) (A) (A) (A) (A) (A) (A) (A)
                 (A) (A) (A) (A) (A) (A) (A) (A) (A) (A) (A) (A)
                 (A) (A) (A) (A) (A) (A) (A) (A) (A) (A) (A) (A)
                 (A) (A) (A) (A) (A) (A) (A) (A) (A) (A) (A) (A)
                 (A) (A) (A) (A) (A) (A) (A) (A) (A) (A) (A) (A)
                 (A) (A) (A) (A) (A) (A) (A) (A) (A) (A) (A) (A)
                 (A) (A) (A) (A) (A) (A) (A) (A) (A) (A) (A) (A)
                 (A) (A) (A) (A) (A) (A) (A) (A) (A) (A) (A) (A)
                 (A) (A) (A) (A) (A) (A) (A) (A) (A) (A) (A) (A)
                 (A) (A) (A) (A) (A) (A) (A) (A) (A) (A) (A) (A)
                 (A) (A) (A) (A) (A) (A) (A) (A) (A) (A) (A) (A)
                 (A) (A) (A) (A) (A) (A) (A) (A) (A) (A) (A) (A)
                 (A) (A) (A) (A) (A) (A) (A) (A) (A) (A) (A) (A)
                 (A) (A) (A) (A) (A) (A) (A) (A) (A) (A) (A) (A)
                 (A) (A) (A) (A) (A) (A) (A) (A) (A) (A) (A) (A)
                 (A) (A) (A) (A) (A) (A) (A) (A) (A) (A) (A) (A)
                 (A) (A) (A) (A) (A) (A) (A) (A) (A) (A) (A) (A)
                 (A) (A) (A) (A) (A) (A) (A) (A) (A) (A) (A) (A)
                 (A) (A) (A) (A) (A) (A) (A) (A) (A) (A) (A) (A)
                 (A) (A)
 The electronic state is 1-A.
 Alpha  occ. eigenvalues -- -103.58453 -25.71256 -25.70871 -25.70870 -20.06549
 Alpha  occ. eigenvalues --  -19.99885 -15.14401 -11.08746 -11.00199 -10.91075
 Alpha  occ. eigenvalues --  -10.90748 -10.88485 -10.86762 -10.85574 -10.85123
 Alpha  occ. eigenvalues --  -10.84584 -10.82849 -10.81865 -10.15951  -7.73630
 Alpha  occ. eigenvalues --   -7.73156  -7.73143  -1.57682  -1.48398  -1.47924
 Alpha  occ. eigenvalues --   -1.35734  -1.25465  -1.17256  -1.09894  -1.03947
 Alpha  occ. eigenvalues --   -0.98784  -0.96702  -0.92591  -0.88109  -0.87020
 Alpha  occ. eigenvalues --   -0.80273  -0.79670  -0.75092  -0.74143  -0.73764
 Alpha  occ. eigenvalues --   -0.72253  -0.71944  -0.68584  -0.64585  -0.64139
 Alpha  occ. eigenvalues --   -0.63983  -0.62401  -0.62068  -0.60627  -0.59119
 Alpha  occ. eigenvalues --   -0.58107  -0.57669  -0.57444  -0.55822  -0.55767
 Alpha  occ. eigenvalues --   -0.55177  -0.53397  -0.53225  -0.50700  -0.50504
 Alpha  occ. eigenvalues --   -0.49608  -0.47985  -0.47553  -0.46229  -0.44792
 Alpha  occ. eigenvalues --   -0.44431  -0.41996  -0.41946  -0.41525  -0.40982
 Alpha  occ. eigenvalues --   -0.33554  -0.30663
 Alpha virt. eigenvalues --    0.00942   0.01678   0.02361   0.02668   0.02774
 Alpha virt. eigenvalues --    0.03155   0.03581   0.03963   0.04719   0.05075
 Alpha virt. eigenvalues --    0.05130   0.05271   0.05869   0.06725   0.07095
 Alpha virt. eigenvalues --    0.07118   0.07378   0.08231   0.08622   0.08967
 Alpha virt. eigenvalues --    0.09616   0.09907   0.10018   0.10236   0.10733
 Alpha virt. eigenvalues --    0.10848   0.11189   0.11302   0.11653   0.11786
 Alpha virt. eigenvalues --    0.12052   0.12145   0.12751   0.13446   0.13613
 Alpha virt. eigenvalues --    0.13748   0.13918   0.14166   0.14531   0.14823
 Alpha virt. eigenvalues --    0.15353   0.15462   0.15532   0.16142   0.16394
 Alpha virt. eigenvalues --    0.16688   0.17668   0.17759   0.18043   0.18517
 Alpha virt. eigenvalues --    0.18854   0.19381   0.19429   0.19824   0.19970
 Alpha virt. eigenvalues --    0.19975   0.20218   0.20646   0.21824   0.22271
 Alpha virt. eigenvalues --    0.22454   0.22878   0.23173   0.23302   0.23434
 Alpha virt. eigenvalues --    0.23676   0.24220   0.24787   0.25137   0.25271
 Alpha virt. eigenvalues --    0.25586   0.25697   0.25931   0.26185   0.26718
 Alpha virt. eigenvalues --    0.26926   0.27434   0.27784   0.28126   0.28437
 Alpha virt. eigenvalues --    0.28843   0.29096   0.29384   0.29607   0.29703
 Alpha virt. eigenvalues --    0.29856   0.30195   0.30411   0.31190   0.31462
 Alpha virt. eigenvalues --    0.31607   0.31613   0.32047   0.32156   0.32370
 Alpha virt. eigenvalues --    0.32490   0.33150   0.33361   0.33622   0.33917
 Alpha virt. eigenvalues --    0.34200   0.34532   0.34855   0.34965   0.35321
 Alpha virt. eigenvalues --    0.35953   0.36253   0.36680   0.36735   0.36897
 Alpha virt. eigenvalues --    0.37311   0.37757   0.38212   0.38387   0.38584
 Alpha virt. eigenvalues --    0.38767   0.38946   0.39668   0.39791   0.39925
 Alpha virt. eigenvalues --    0.40485   0.40637   0.40835   0.40877   0.41375
 Alpha virt. eigenvalues --    0.42080   0.42096   0.42336   0.42493   0.42669
 Alpha virt. eigenvalues --    0.43388   0.43636   0.43881   0.44182   0.44641
 Alpha virt. eigenvalues --    0.45082   0.45095   0.45479   0.45844   0.45942
 Alpha virt. eigenvalues --    0.46125   0.46424   0.46982   0.47247   0.47478
 Alpha virt. eigenvalues --    0.47751   0.48222   0.48295   0.48966   0.49309
 Alpha virt. eigenvalues --    0.49486   0.49735   0.49988   0.50032   0.50522
 Alpha virt. eigenvalues --    0.51012   0.51422   0.51755   0.51934   0.52189
 Alpha virt. eigenvalues --    0.52301   0.53188   0.53255   0.53422   0.53931
 Alpha virt. eigenvalues --    0.54556   0.54901   0.55130   0.56009   0.56359
 Alpha virt. eigenvalues --    0.56697   0.57178   0.57567   0.57854   0.58088
 Alpha virt. eigenvalues --    0.58792   0.59706   0.60112   0.60474   0.60894
 Alpha virt. eigenvalues --    0.61446   0.61675   0.61799   0.62489   0.63032
 Alpha virt. eigenvalues --    0.63346   0.63892   0.64848   0.65144   0.65811
 Alpha virt. eigenvalues --    0.66004   0.66123   0.66773   0.66960   0.67782
 Alpha virt. eigenvalues --    0.68155   0.68461   0.68530   0.69182   0.69310
 Alpha virt. eigenvalues --    0.69985   0.70733   0.70774   0.71069   0.72468
 Alpha virt. eigenvalues --    0.72503   0.72616   0.73133   0.73745   0.74517
 Alpha virt. eigenvalues --    0.75337   0.76114   0.76256   0.76785   0.76865
 Alpha virt. eigenvalues --    0.77047   0.78081   0.78339   0.78550   0.79126
 Alpha virt. eigenvalues --    0.79580   0.79695   0.80050   0.80130   0.80955
 Alpha virt. eigenvalues --    0.81118   0.81500   0.82441   0.82717   0.82982
 Alpha virt. eigenvalues --    0.83416   0.83785   0.83802   0.84406   0.84830
 Alpha virt. eigenvalues --    0.85849   0.85981   0.86116   0.86134   0.86365
 Alpha virt. eigenvalues --    0.86624   0.86806   0.86862   0.87256   0.87962
 Alpha virt. eigenvalues --    0.88300   0.88325   0.88858   0.89423   0.89649
 Alpha virt. eigenvalues --    0.90376   0.90567   0.90604   0.91357   0.91464
 Alpha virt. eigenvalues --    0.91903   0.92653   0.93153   0.93163   0.93876
 Alpha virt. eigenvalues --    0.93981   0.94493   0.95173   0.95449   0.95991
 Alpha virt. eigenvalues --    0.96934   0.96963   0.97486   0.97815   0.97993
 Alpha virt. eigenvalues --    0.98713   0.99208   0.99391   0.99504   1.00335
 Alpha virt. eigenvalues --    1.00616   1.00857   1.01750   1.02655   1.03072
 Alpha virt. eigenvalues --    1.03351   1.03434   1.03727   1.04495   1.04637
 Alpha virt. eigenvalues --    1.05153   1.05390   1.05946   1.06179   1.06201
 Alpha virt. eigenvalues --    1.06872   1.07030   1.07416   1.07583   1.08414
 Alpha virt. eigenvalues --    1.08591   1.08684   1.08788   1.09386   1.09427
 Alpha virt. eigenvalues --    1.09927   1.10602   1.10910   1.11519   1.11831
 Alpha virt. eigenvalues --    1.11985   1.12511   1.13005   1.13148   1.13631
 Alpha virt. eigenvalues --    1.14427   1.14470   1.14811   1.15220   1.15618
 Alpha virt. eigenvalues --    1.16207   1.16895   1.17021   1.17500   1.18021
 Alpha virt. eigenvalues --    1.18150   1.18342   1.18354   1.18559   1.19232
 Alpha virt. eigenvalues --    1.20037   1.20531   1.20662   1.21880   1.22038
 Alpha virt. eigenvalues --    1.22231   1.22695   1.23047   1.23307   1.24515
 Alpha virt. eigenvalues --    1.24932   1.25345   1.25874   1.26112   1.27476
 Alpha virt. eigenvalues --    1.27669   1.28211   1.29019   1.29542   1.29665
 Alpha virt. eigenvalues --    1.29823   1.30616   1.30710   1.31225   1.31955
 Alpha virt. eigenvalues --    1.32519   1.32711   1.33338   1.33721   1.34289
 Alpha virt. eigenvalues --    1.34751   1.35434   1.35548   1.36174   1.36215
 Alpha virt. eigenvalues --    1.36433   1.37853   1.38579   1.39429   1.40036
 Alpha virt. eigenvalues --    1.40169   1.40928   1.41746   1.41903   1.42347
 Alpha virt. eigenvalues --    1.42379   1.43101   1.43395   1.44474   1.45025
 Alpha virt. eigenvalues --    1.45936   1.46108   1.46263   1.47839   1.48107
 Alpha virt. eigenvalues --    1.48873   1.49377   1.50283   1.51479   1.51624
 Alpha virt. eigenvalues --    1.51731   1.52308   1.52471   1.53070   1.53273
 Alpha virt. eigenvalues --    1.53369   1.55475   1.55773   1.56056   1.56545
 Alpha virt. eigenvalues --    1.57577   1.57640   1.58071   1.58415   1.58930
 Alpha virt. eigenvalues --    1.59451   1.60207   1.60320   1.60928   1.61170
 Alpha virt. eigenvalues --    1.61394   1.62050   1.62346   1.62922   1.63235
 Alpha virt. eigenvalues --    1.63331   1.64844   1.64853   1.65341   1.66179
 Alpha virt. eigenvalues --    1.66292   1.66993   1.67025   1.67666   1.68581
 Alpha virt. eigenvalues --    1.68849   1.69010   1.69194   1.69406   1.70078
 Alpha virt. eigenvalues --    1.70200   1.71044   1.71918   1.73045   1.73086
 Alpha virt. eigenvalues --    1.74191   1.74333   1.75405   1.75745   1.76228
 Alpha virt. eigenvalues --    1.76260   1.77094   1.77437   1.78450   1.78641
 Alpha virt. eigenvalues --    1.79319   1.79825   1.80380   1.81251   1.81360
 Alpha virt. eigenvalues --    1.81942   1.82380   1.83818   1.84137   1.84635
 Alpha virt. eigenvalues --    1.85500   1.85925   1.86273   1.86438   1.86890
 Alpha virt. eigenvalues --    1.87628   1.89180   1.90152   1.90590   1.90696
 Alpha virt. eigenvalues --    1.91615   1.91992   1.92419   1.92659   1.92823
 Alpha virt. eigenvalues --    1.93883   1.94672   1.94950   1.95173   1.96149
 Alpha virt. eigenvalues --    1.97265   1.98693   1.99028   1.99158   1.99486
 Alpha virt. eigenvalues --    1.99898   2.01484   2.01589   2.02278   2.02568
 Alpha virt. eigenvalues --    2.03441   2.04114   2.05672   2.05936   2.07202
 Alpha virt. eigenvalues --    2.07578   2.08975   2.09717   2.09732   2.11257
 Alpha virt. eigenvalues --    2.12349   2.12932   2.13388   2.13900   2.14791
 Alpha virt. eigenvalues --    2.15314   2.15739   2.17030   2.17636   2.18005
 Alpha virt. eigenvalues --    2.18787   2.19026   2.19858   2.20801   2.22368
 Alpha virt. eigenvalues --    2.22720   2.22828   2.24393   2.24620   2.26847
 Alpha virt. eigenvalues --    2.27290   2.28220   2.28928   2.29926   2.30326
 Alpha virt. eigenvalues --    2.31335   2.31912   2.33241   2.34109   2.34607
 Alpha virt. eigenvalues --    2.35607   2.35829   2.37473   2.37663   2.38127
 Alpha virt. eigenvalues --    2.38811   2.40909   2.41525   2.41874   2.42822
 Alpha virt. eigenvalues --    2.45068   2.46721   2.46888   2.47059   2.47884
 Alpha virt. eigenvalues --    2.48855   2.49766   2.51299   2.51333   2.52239
 Alpha virt. eigenvalues --    2.53237   2.54709   2.56337   2.56687   2.56923
 Alpha virt. eigenvalues --    2.57751   2.57911   2.59075   2.60699   2.60851
 Alpha virt. eigenvalues --    2.62156   2.62441   2.62843   2.64358   2.67276
 Alpha virt. eigenvalues --    2.68956   2.69564   2.70410   2.70611   2.71988
 Alpha virt. eigenvalues --    2.73322   2.74063   2.74739   2.74934   2.76169
 Alpha virt. eigenvalues --    2.77625   2.77739   2.78152   2.80216   2.80788
 Alpha virt. eigenvalues --    2.82545   2.83811   2.85434   2.86088   2.86737
 Alpha virt. eigenvalues --    2.88974   2.89305   2.89832   2.91113   2.91859
 Alpha virt. eigenvalues --    2.92423   2.93176   2.94891   2.95485   2.96191
 Alpha virt. eigenvalues --    2.96942   2.97125   2.97459   2.98260   2.99824
 Alpha virt. eigenvalues --    2.99855   3.00440   3.01550   3.02146   3.04250
 Alpha virt. eigenvalues --    3.05481   3.07057   3.07852   3.08691   3.08867
 Alpha virt. eigenvalues --    3.09796   3.11493   3.12048   3.12467   3.13016
 Alpha virt. eigenvalues --    3.13485   3.13619   3.15118   3.15648   3.16699
 Alpha virt. eigenvalues --    3.17333   3.18332   3.19926   3.20329   3.20941
 Alpha virt. eigenvalues --    3.22009   3.22158   3.23563   3.24271   3.24855
 Alpha virt. eigenvalues --    3.25280   3.26223   3.27020   3.28745   3.29453
 Alpha virt. eigenvalues --    3.30176   3.31494   3.31534   3.31907   3.33475
 Alpha virt. eigenvalues --    3.34037   3.34652   3.34669   3.36199   3.36607
 Alpha virt. eigenvalues --    3.37780   3.38041   3.38545   3.39481   3.39766
 Alpha virt. eigenvalues --    3.40079   3.41076   3.42256   3.42914   3.44078
 Alpha virt. eigenvalues --    3.44621   3.45722   3.46120   3.47128   3.47529
 Alpha virt. eigenvalues --    3.47998   3.49034   3.49532   3.50784   3.51691
 Alpha virt. eigenvalues --    3.51958   3.53622   3.54420   3.55191   3.56557
 Alpha virt. eigenvalues --    3.56944   3.57308   3.57316   3.59792   3.59912
 Alpha virt. eigenvalues --    3.60113   3.60185   3.61913   3.62085   3.62739
 Alpha virt. eigenvalues --    3.63250   3.64054   3.64232   3.65199   3.65508
 Alpha virt. eigenvalues --    3.66241   3.67594   3.67646   3.68768   3.69390
 Alpha virt. eigenvalues --    3.70297   3.70869   3.71940   3.71980   3.73161
 Alpha virt. eigenvalues --    3.73194   3.74165   3.74461   3.75575   3.76184
 Alpha virt. eigenvalues --    3.77368   3.77936   3.78557   3.79031   3.79458
 Alpha virt. eigenvalues --    3.79855   3.80554   3.81200   3.81656   3.82413
 Alpha virt. eigenvalues --    3.82749   3.83040   3.84380   3.85143   3.85396
 Alpha virt. eigenvalues --    3.86656   3.87273   3.87605   3.88065   3.88704
 Alpha virt. eigenvalues --    3.88810   3.90570   3.91315   3.92697   3.94674
 Alpha virt. eigenvalues --    3.94734   3.95042   3.95750   3.96284   3.98132
 Alpha virt. eigenvalues --    3.99504   4.00316   4.01422   4.02102   4.02136
 Alpha virt. eigenvalues --    4.03082   4.04770   4.05272   4.05508   4.06398
 Alpha virt. eigenvalues --    4.06425   4.07493   4.07632   4.08415   4.09657
 Alpha virt. eigenvalues --    4.10119   4.10333   4.11711   4.12289   4.12386
 Alpha virt. eigenvalues --    4.13837   4.13961   4.15834   4.15967   4.16693
 Alpha virt. eigenvalues --    4.17092   4.17378   4.19115   4.19821   4.20526
 Alpha virt. eigenvalues --    4.22466   4.23165   4.23560   4.24137   4.24837
 Alpha virt. eigenvalues --    4.25537   4.26140   4.28315   4.28663   4.28962
 Alpha virt. eigenvalues --    4.30010   4.30117   4.31214   4.32534   4.33733
 Alpha virt. eigenvalues --    4.34335   4.34336   4.36016   4.37158   4.37697
 Alpha virt. eigenvalues --    4.38525   4.38658   4.40000   4.41761   4.43823
 Alpha virt. eigenvalues --    4.44551   4.44590   4.45668   4.47023   4.48235
 Alpha virt. eigenvalues --    4.49043   4.50374   4.51544   4.51794   4.52885
 Alpha virt. eigenvalues --    4.53256   4.54550   4.54862   4.55769   4.56977
 Alpha virt. eigenvalues --    4.57199   4.59028   4.59750   4.61355   4.62271
 Alpha virt. eigenvalues --    4.62540   4.64297   4.65422   4.66993   4.67763
 Alpha virt. eigenvalues --    4.67851   4.69101   4.69751   4.70903   4.71296
 Alpha virt. eigenvalues --    4.71933   4.74057   4.75499   4.76159   4.76958
 Alpha virt. eigenvalues --    4.79178   4.79770   4.79910   4.81344   4.82226
 Alpha virt. eigenvalues --    4.82734   4.84910   4.86795   4.87059   4.87728
 Alpha virt. eigenvalues --    4.88265   4.89113   4.90160   4.93034   4.93129
 Alpha virt. eigenvalues --    4.93746   4.96870   4.96922   4.97734   4.98793
 Alpha virt. eigenvalues --    4.98903   4.99908   5.01458   5.01731   5.02777
 Alpha virt. eigenvalues --    5.04377   5.06425   5.07048   5.09210   5.09337
 Alpha virt. eigenvalues --    5.10263   5.11453   5.11655   5.12206   5.12559
 Alpha virt. eigenvalues --    5.14471   5.15546   5.16012   5.17255   5.17894
 Alpha virt. eigenvalues --    5.20005   5.20415   5.23173   5.23500   5.23998
 Alpha virt. eigenvalues --    5.24891   5.27713   5.29840   5.35546   5.36973
 Alpha virt. eigenvalues --    5.37549   5.38735   5.39368   5.43439   5.44767
 Alpha virt. eigenvalues --    5.45158   5.45232   5.46144   5.47579   5.50916
 Alpha virt. eigenvalues --    5.52865   5.53804   5.55480   5.55599   5.57195
 Alpha virt. eigenvalues --    5.57738   5.58262   5.59203   5.60103   5.63215
 Alpha virt. eigenvalues --    5.64824   5.66089   5.69490   5.70254   5.72043
 Alpha virt. eigenvalues --    5.72546   5.73503   5.76628   5.78027   5.78657
 Alpha virt. eigenvalues --    5.79644   5.85361   5.87654   5.88599   5.91630
 Alpha virt. eigenvalues --    5.93115   5.94890   5.98324   5.99530   6.00964
 Alpha virt. eigenvalues --    6.01663   6.05176   6.08156   6.10211   6.11995
 Alpha virt. eigenvalues --    6.16326   6.18877   6.20686   6.23856   6.24716
 Alpha virt. eigenvalues --    6.31078   6.32340   6.33066   6.41790   6.47103
 Alpha virt. eigenvalues --    6.50879   6.55937   6.57142   6.57228   6.60831
 Alpha virt. eigenvalues --    6.64113   6.65812   6.67438   6.71738   6.74550
 Alpha virt. eigenvalues --    6.75186   6.77766   6.79910   6.82577   6.83685
 Alpha virt. eigenvalues --    6.89705   6.98393   6.98844   7.00157   7.01286
 Alpha virt. eigenvalues --    7.07503   7.10951   7.11992   7.14054   7.19349
 Alpha virt. eigenvalues --    7.21876   7.27397   7.29530   7.35726   7.41460
 Alpha virt. eigenvalues --    7.46467   7.47522   7.51561   7.63497   7.70935
 Alpha virt. eigenvalues --    7.72302   7.82521   7.91343   8.06132   8.20507
 Alpha virt. eigenvalues --    8.37163   8.43400   8.71952   8.75197   8.77669
 Alpha virt. eigenvalues --    8.80162   8.81769   8.87491   8.96138   8.97940
 Alpha virt. eigenvalues --    9.08579   9.11515   9.13042   9.13383   9.14364
 Alpha virt. eigenvalues --    9.16777   9.19019   9.19596   9.21256   9.22298
 Alpha virt. eigenvalues --    9.28742   9.28878   9.29823   9.30163   9.34338
 Alpha virt. eigenvalues --    9.37360   9.38488   9.39098   9.46440   9.47902
 Alpha virt. eigenvalues --    9.49566   9.51893   9.60229   9.70270   9.72835
 Alpha virt. eigenvalues --    9.78853   9.92560   9.99677  15.24516  15.73457
 Alpha virt. eigenvalues --   15.88524  16.11695  16.27725  16.57751  16.85217
 Alpha virt. eigenvalues --   17.34121  17.55740  18.02979  18.36462  18.65854
 Alpha virt. eigenvalues --   19.33720  19.81753  20.72061  20.79868  21.53468
          Condensed to atoms (all electrons):
               1          2          3          4          5          6
     1  C    8.586052  -0.090271  -0.646190   0.130465  -0.004677   0.002932
     2  N   -0.090271   7.960111   0.247241  -0.135421  -0.344500  -0.047986
     3  C   -0.646190   0.247241   5.892018   0.231136   0.310120  -0.095409
     4  O    0.130465  -0.135421   0.231136   8.857939  -0.080271  -0.003917
     5  O   -0.004677  -0.344500   0.310120  -0.080271   8.609048   0.185552
     6  C    0.002932  -0.047986  -0.095409  -0.003917   0.185552   5.502512
     7  C   -0.009086   0.008929   0.009280  -0.007965  -0.112994   0.070972
     8  C    0.000365   0.000283  -0.001441  -0.005060   0.000908  -0.034223
     9  C   -1.097171  -0.298461  -0.172862  -0.158140  -0.030670  -0.037525
    10  C    0.276922   0.006675  -0.001344   0.050736   0.014829   0.005932
    11  C   -0.172475   0.059603   0.013033   0.003789  -0.002974   0.003410
    12  C   -0.130521   0.069564   0.001678   0.004023   0.002524  -0.005566
    13  C   -0.498751  -0.374293   0.088606   0.010560  -0.056302  -0.012732
    14  H    0.049765   0.256483  -0.102601   0.031555   0.085886   0.010045
    15  H   -0.007038   0.021476  -0.035765  -0.002798  -0.037161   0.310089
    16  H   -0.007069   0.021521  -0.035740  -0.002810  -0.037198   0.310091
    17  H   -0.001228  -0.005916  -0.000258   0.005203  -0.031093   0.042917
    18  H   -0.001235  -0.005908  -0.000256   0.005202  -0.031078   0.042928
    19  H    0.000317  -0.000962   0.005428  -0.000043  -0.000320  -0.004120
    20  H    0.000167  -0.000643   0.002284  -0.000451  -0.000475  -0.006300
    21  H    0.000316  -0.000961   0.005428  -0.000044  -0.000318  -0.004116
    22  H   -0.892292  -0.130658  -0.061894  -0.171971   0.013540  -0.048903
    23  Cl   0.051414  -0.023024   0.001590  -0.000114  -0.000856   0.000301
    24  H   -0.246470  -0.019418   0.026085   0.000872  -0.003396   0.000512
    25  C    0.087614  -0.005066  -0.000244   0.000259   0.000389  -0.002037
    26  H   -0.031720   0.005451  -0.002888   0.000292  -0.000231  -0.000094
    27  F    0.013714  -0.002151   0.001789   0.000019   0.000036   0.000068
    28  F    0.013749  -0.002174   0.001787   0.000023   0.000036   0.000068
    29  F   -0.026783   0.005204   0.007921  -0.003761   0.000569  -0.000122
               7          8          9         10         11         12
     1  C   -0.009086   0.000365  -1.097171   0.276922  -0.172475  -0.130521
     2  N    0.008929   0.000283  -0.298461   0.006675   0.059603   0.069564
     3  C    0.009280  -0.001441  -0.172862  -0.001344   0.013033   0.001678
     4  O   -0.007965  -0.005060  -0.158140   0.050736   0.003789   0.004023
     5  O   -0.112994   0.000908  -0.030670   0.014829  -0.002974   0.002524
     6  C    0.070972  -0.034223  -0.037525   0.005932   0.003410  -0.005566
     7  C    5.511211   0.116008  -0.005955   0.001248   0.000062  -0.000171
     8  C    0.116008   5.793444  -0.000851   0.000079   0.000009  -0.000018
     9  C   -0.005955  -0.000851   9.960160  -0.999926   0.047065  -0.046323
    10  C    0.001248   0.000079  -0.999926   7.776947  -0.573283  -0.101953
    11  C    0.000062   0.000009   0.047065  -0.573283   7.436962  -0.092247
    12  C   -0.000171  -0.000018  -0.046323  -0.101953  -0.092247   6.124228
    13  C    0.003454  -0.000307  -0.379407  -0.186078  -0.048455   0.172426
    14  H    0.006427   0.000384  -0.074787   0.020499  -0.007204  -0.012029
    15  H    0.012894  -0.002809   0.003346  -0.000773   0.000160  -0.000372
    16  H    0.012881  -0.002810   0.003351  -0.000774   0.000159  -0.000372
    17  H    0.403786  -0.039823  -0.000124   0.000080   0.000025  -0.000003
    18  H    0.403765  -0.039825  -0.000123   0.000080   0.000025  -0.000003
    19  H    0.036876   0.361942   0.000016   0.000046  -0.000002   0.000010
    20  H   -0.032840   0.450171  -0.000093  -0.000008   0.000002  -0.000005
    21  H    0.036868   0.361954   0.000016   0.000046  -0.000002   0.000010
    22  H   -0.003592  -0.000382   0.661823  -0.686544  -0.005384   0.030455
    23  Cl   0.000006   0.000000   0.005483  -0.014834  -0.088124   0.076203
    24  H    0.000189  -0.000037   0.021408  -0.023846   0.043309  -0.241603
    25  C   -0.000112  -0.000016  -0.498432  -0.334678  -0.199911   0.011116
    26  H    0.000004   0.000000   0.038462  -0.136046   0.262101  -0.167425
    27  F    0.000001  -0.000000  -0.040537   0.041981  -0.021589  -0.003463
    28  F    0.000001  -0.000000  -0.040545   0.041934  -0.021611  -0.003447
    29  F   -0.000015  -0.000003  -0.024531   0.022127   0.020817  -0.006583
              13         14         15         16         17         18
     1  C   -0.498751   0.049765  -0.007038  -0.007069  -0.001228  -0.001235
     2  N   -0.374293   0.256483   0.021476   0.021521  -0.005916  -0.005908
     3  C    0.088606  -0.102601  -0.035765  -0.035740  -0.000258  -0.000256
     4  O    0.010560   0.031555  -0.002798  -0.002810   0.005203   0.005202
     5  O   -0.056302   0.085886  -0.037161  -0.037198  -0.031093  -0.031078
     6  C   -0.012732   0.010045   0.310089   0.310091   0.042917   0.042928
     7  C    0.003454   0.006427   0.012894   0.012881   0.403786   0.403765
     8  C   -0.000307   0.000384  -0.002809  -0.002810  -0.039823  -0.039825
     9  C   -0.379407  -0.074787   0.003346   0.003351  -0.000124  -0.000123
    10  C   -0.186078   0.020499  -0.000773  -0.000774   0.000080   0.000080
    11  C   -0.048455  -0.007204   0.000160   0.000159   0.000025   0.000025
    12  C    0.172426  -0.012029  -0.000372  -0.000372  -0.000003  -0.000003
    13  C    7.817392  -0.003928   0.000686   0.000693   0.000002   0.000004
    14  H   -0.003928   0.818873  -0.001129  -0.001130  -0.000244  -0.000244
    15  H    0.000686  -0.001129   0.414748   0.011867   0.018317  -0.018198
    16  H    0.000693  -0.001130   0.011867   0.414768  -0.018204   0.018311
    17  H    0.000002  -0.000244   0.018317  -0.018204   0.404649   0.008022
    18  H    0.000004  -0.000244  -0.018198   0.018311   0.008022   0.404625
    19  H   -0.000006   0.000101  -0.008031  -0.009308   0.000796   0.000694
    20  H   -0.000052  -0.000016   0.000077   0.000080  -0.002129  -0.002127
    21  H   -0.000005   0.000101  -0.009302  -0.008034   0.000696   0.000792
    22  H   -0.144236  -0.030427  -0.002367  -0.002374  -0.000386  -0.000386
    23  Cl  -0.075986   0.000106   0.000023   0.000023   0.000007   0.000007
    24  H    0.219829  -0.042101   0.000102   0.000102   0.000073   0.000073
    25  C    0.026003   0.000228  -0.000188  -0.000189  -0.000006  -0.000006
    26  H    0.013171  -0.000253  -0.000011  -0.000011   0.000001   0.000001
    27  F   -0.003908   0.000081   0.000002   0.000004   0.000000   0.000001
    28  F   -0.003899   0.000082   0.000004   0.000002   0.000001   0.000000
    29  F   -0.002529   0.000149   0.000032   0.000032  -0.000003  -0.000003
              19         20         21         22         23         24
     1  C    0.000317   0.000167   0.000316  -0.892292   0.051414  -0.246470
     2  N   -0.000962  -0.000643  -0.000961  -0.130658  -0.023024  -0.019418
     3  C    0.005428   0.002284   0.005428  -0.061894   0.001590   0.026085
     4  O   -0.000043  -0.000451  -0.000044  -0.171971  -0.000114   0.000872
     5  O   -0.000320  -0.000475  -0.000318   0.013540  -0.000856  -0.003396
     6  C   -0.004120  -0.006300  -0.004116  -0.048903   0.000301   0.000512
     7  C    0.036876  -0.032840   0.036868  -0.003592   0.000006   0.000189
     8  C    0.361942   0.450171   0.361954  -0.000382   0.000000  -0.000037
     9  C    0.000016  -0.000093   0.000016   0.661823   0.005483   0.021408
    10  C    0.000046  -0.000008   0.000046  -0.686544  -0.014834  -0.023846
    11  C   -0.000002   0.000002  -0.000002  -0.005384  -0.088124   0.043309
    12  C    0.000010  -0.000005   0.000010   0.030455   0.076203  -0.241603
    13  C   -0.000006  -0.000052  -0.000005  -0.144236  -0.075986   0.219829
    14  H    0.000101  -0.000016   0.000101  -0.030427   0.000106  -0.042101
    15  H   -0.008031   0.000077  -0.009302  -0.002367   0.000023   0.000102
    16  H   -0.009308   0.000080  -0.008034  -0.002374   0.000023   0.000102
    17  H    0.000796  -0.002129   0.000696  -0.000386   0.000007   0.000073
    18  H    0.000694  -0.002127   0.000792  -0.000386   0.000007   0.000073
    19  H    0.315869   0.000721   0.021737   0.000089  -0.000000  -0.000006
    20  H    0.000721   0.304875   0.000718  -0.000024   0.000000   0.000004
    21  H    0.021737   0.000718   0.315876   0.000089  -0.000000  -0.000006
    22  H    0.000089  -0.000024   0.000089   2.091968  -0.003036  -0.000791
    23  Cl  -0.000000   0.000000  -0.000000  -0.003036  17.556709  -0.046864
    24  H   -0.000006   0.000004  -0.000006  -0.000791  -0.046864   0.837520
    25  C    0.000005  -0.000003   0.000005  -0.092938  -0.008754  -0.005758
    26  H    0.000000  -0.000000   0.000000  -0.005326  -0.025386  -0.008831
    27  F    0.000000  -0.000000  -0.000000  -0.001784  -0.000445  -0.000215
    28  F   -0.000000  -0.000000   0.000000  -0.001785  -0.000446  -0.000215
    29  F   -0.000001  -0.000000  -0.000001   0.009946   0.000033   0.000065
              25         26         27         28         29
     1  C    0.087614  -0.031720   0.013714   0.013749  -0.026783
     2  N   -0.005066   0.005451  -0.002151  -0.002174   0.005204
     3  C   -0.000244  -0.002888   0.001789   0.001787   0.007921
     4  O    0.000259   0.000292   0.000019   0.000023  -0.003761
     5  O    0.000389  -0.000231   0.000036   0.000036   0.000569
     6  C   -0.002037  -0.000094   0.000068   0.000068  -0.000122
     7  C   -0.000112   0.000004   0.000001   0.000001  -0.000015
     8  C   -0.000016   0.000000  -0.000000  -0.000000  -0.000003
     9  C   -0.498432   0.038462  -0.040537  -0.040545  -0.024531
    10  C   -0.334678  -0.136046   0.041981   0.041934   0.022127
    11  C   -0.199911   0.262101  -0.021589  -0.021611   0.020817
    12  C    0.011116  -0.167425  -0.003463  -0.003447  -0.006583
    13  C    0.026003   0.013171  -0.003908  -0.003899  -0.002529
    14  H    0.000228  -0.000253   0.000081   0.000082   0.000149
    15  H   -0.000188  -0.000011   0.000002   0.000004   0.000032
    16  H   -0.000189  -0.000011   0.000004   0.000002   0.000032
    17  H   -0.000006   0.000001   0.000000   0.000001  -0.000003
    18  H   -0.000006   0.000001   0.000001   0.000000  -0.000003
    19  H    0.000005   0.000000   0.000000  -0.000000  -0.000001
    20  H   -0.000003  -0.000000  -0.000000  -0.000000  -0.000000
    21  H    0.000005   0.000000  -0.000000   0.000000  -0.000001
    22  H   -0.092938  -0.005326  -0.001784  -0.001785   0.009946
    23  Cl  -0.008754  -0.025386  -0.000445  -0.000446   0.000033
    24  H   -0.005758  -0.008831  -0.000215  -0.000215   0.000065
    25  C    5.297012  -0.055809   0.205877   0.205893   0.190394
    26  H   -0.055809   0.648308  -0.005949  -0.005938   0.004253
    27  F    0.205877  -0.005949   9.292828  -0.012461  -0.057450
    28  F    0.205893  -0.005938  -0.012461   9.292833  -0.057448
    29  F    0.190394   0.004253  -0.057450  -0.057448   9.292860
 Mulliken charges:
               1
     1  C    0.649186
     2  N   -0.174729
     3  C    0.311468
     4  O   -0.759305
     5  O   -0.448923
     6  C   -0.185279
     7  C   -0.462132
     8  C   -0.957941
     9  C   -0.834667
    10  C    0.799926
    11  C   -0.657269
    12  C    0.319864
    13  C   -0.561953
    14  H   -0.004672
    15  H    0.332120
    16  H    0.332137
    17  H    0.214842
    18  H    0.214863
    19  H    0.278152
    20  H    0.286065
    21  H    0.278139
    22  H    0.479569
    23  Cl  -0.404036
    24  H    0.489414
    25  C    1.179352
    26  H    0.473874
    27  F   -0.406451
    28  F   -0.406446
    29  F   -0.375169
 Sum of Mulliken charges =  -0.00000
 Mulliken charges with hydrogens summed into heavy atoms:
               1
     1  C    0.649186
     2  N   -0.179402
     3  C    0.311468
     4  O   -0.759305
     5  O   -0.448923
     6  C    0.478978
     7  C   -0.032428
     8  C   -0.115585
     9  C   -0.355097
    10  C    0.799926
    11  C   -0.183395
    12  C    0.319864
    13  C   -0.072538
    23  Cl  -0.404036
    25  C    1.179352
    27  F   -0.406451
    28  F   -0.406446
    29  F   -0.375169
 Electronic spatial extent (au):  <R**2>=           8012.0335
 Charge=             -0.0000 electrons
 Dipole moment (field-independent basis, Debye):
    X=             -4.3533    Y=              3.1313    Z=             -0.0002  Tot=              5.3625
 Quadrupole moment (field-independent basis, Debye-Ang):
   XX=            -99.6933   YY=           -116.0164   ZZ=           -112.3099
   XY=             -0.8193   XZ=             -0.0006   YZ=              0.0003
 Traceless Quadrupole moment (field-independent basis, Debye-Ang):
   XX=              9.6466   YY=             -6.6765   ZZ=             -2.9700
   XY=             -0.8193   XZ=             -0.0006   YZ=              0.0003
 Octapole moment (field-independent basis, Debye-Ang**2):
  XXX=            -76.7349  YYY=            -18.0432  ZZZ=              0.0013  XYY=             -8.1545
  XXY=             -4.2806  XXZ=              0.0046  XZZ=              0.7224  YZZ=            -14.7055
  YYZ=             -0.0019  XYZ=              0.0005
 Hexadecapole moment (field-independent basis, Debye-Ang**3):
 XXXX=          -7358.6000 YYYY=          -1998.0802 ZZZZ=           -199.4397 XXXY=            -59.4440
 XXXZ=              0.0203 YYYX=           -117.0492 YYYZ=             -0.0020 ZZZX=             -0.0025
 ZZZY=              0.0024 XXYY=          -1728.0992 XXZZ=          -1364.0854 YYZZ=           -374.3288
 XXYZ=              0.0061 YYXZ=              0.0047 ZZXY=            -27.5779
 N-N= 1.424691418969D+03 E-N=-6.125410414044D+03  KE= 1.384121828317D+03
 Unable to Open any file for archive entry.
 1\1\GINC-GADI-HMEM-CLX-0014\SP\RDSDPBEP86-FC\Aug-CC-pVTZ\C11H11Cl1F3N1
 O2\HIO507\22-Sep-2020\0\\# DSDPBEP86/AUG-cc-PVTZ SCF=Tight INT(grid=ul
 trafine) MaxDisk=1400000MB\\NM3CA.DSDPBEP86_AUG-cc-PVTZ\\0,1\C,0,-5.95
 69774964,1.2808417127,0.193724409\N,0,-4.6761929711,0.7260852958,0.098
 5238423\C,0,-3.474889631,1.3918660304,0.0953564042\O,0,-3.316704807,2.
 581643944,0.1746987992\O,0,-2.48234089,0.493631617,-0.0120889921\C,0,-
 1.1550188492,1.0427360656,-0.0291191185\C,0,-0.1822498634,-0.109651095
 6,-0.1542905514\C,0,1.2582901817,0.3941613221,-0.1794147609\C,0,-6.191
 1356013,2.6563764353,0.3032149879\C,0,-7.5013566318,3.1012571369,0.391
 7171321\C,0,-8.5902154275,2.2364418165,0.3760305323\C,0,-8.331132362,0
 .8805160896,0.2668747265\C,0,-7.0364086201,0.394437603,0.1760640258\H,
 0,-4.6101653127,-0.2781777893,0.0231473521\H,0,-0.9966891587,1.6094817
 615,0.8915708232\H,0,-1.0720482802,1.7370607438,-0.8687424746\H,0,-0.4
 069771034,-0.6678688794,-1.0671748851\H,0,-0.3320125571,-0.7948630579,
 0.6844723461\H,0,1.4288381861,1.0668524163,-1.0234183192\H,0,1.9612084
 214,-0.4348237634,-0.2696742313\H,0,1.5041420102,0.9392380926,0.735128
 3058\H,0,-5.3676618908,3.3533986819,0.3181827469\Cl,0,-9.6563259272,-0
 .2458709955,0.2424448047\H,0,-6.8718000484,-0.6741181456,0.0917469319\
 C,0,-7.7898146971,4.5737769392,0.5106327161\H,0,-9.60601919,2.60509636
 61,0.4463538508\F,0,-8.5558526462,5.0040904724,-0.5047879246\F,0,-8.46
 29288302,4.8491360989,1.6394182432\F,0,-6.6812700068,5.3174170852,0.51
 63582777\\Version=ES64L-G16RevC.01\State=1-A\HF=-1387.622999\MP2=-1389
 .3275283\RMSD=6.233e-09\PG=C01 [X(C11H11Cl1F3N1O2)]\\@
 The archive entry for this job was punched.


      TO SUSPECT YOUR OWN MORTALITY IS TO KNOW THE BEGINNING OF TERROR.
      TO LEARN IRREFUTABLY THAT YOU ARE MORTAL IS TO KNOW THE END
      OF TERROR.

                                                  -- JESSICA
                                                     CHILDREN OF DUNE
                                                     BY FRANK HERBERT
 Job cpu time:       1 days  3 hours 20 minutes 48.4 seconds.
 Elapsed time:       0 days  4 hours 34 minutes 24.5 seconds.
 File lengths (MBytes):  RWF=    609 Int=      0 D2E=      0 Chk=     77 Scr=      1
 Normal termination of Gaussian 16 at Tue Sep 22 17:32:54 2020.
