 Entering Gaussian System, Link 0=/apps/gaussian/g09e01/g09/g09
 AtFile(1): /home/507/hio507/Basis/GTMP2LARGE.gbs
 Initial command:
 /apps/gaussian/g09e01/g09/l1.exe "/jobfs/local/4047183.r-man2/Gau-3742.inp" -scrdir="/jobfs/local/4047183.r-man2/"
 Entering Link 1 = /apps/gaussian/g09e01/g09/l1.exe PID=      3743.
  
 Copyright (c) 1988,1990,1992,1993,1995,1998,2003,2009,2015,
            Gaussian, Inc.  All Rights Reserved.
  
 This is part of the Gaussian(R) 09 program.  It is based on
 the Gaussian(R) 03 system (copyright 2003, Gaussian, Inc.),
 the Gaussian(R) 98 system (copyright 1998, Gaussian, Inc.),
 the Gaussian(R) 94 system (copyright 1995, Gaussian, Inc.),
 the Gaussian 92(TM) system (copyright 1992, Gaussian, Inc.),
 the Gaussian 90(TM) system (copyright 1990, Gaussian, Inc.),
 the Gaussian 88(TM) system (copyright 1988, Gaussian, Inc.),
 the Gaussian 86(TM) system (copyright 1986, Carnegie Mellon
 University), and the Gaussian 82(TM) system (copyright 1983,
 Carnegie Mellon University). Gaussian is a federally registered
 trademark of Gaussian, Inc.
  
 This software contains proprietary and confidential information,
 including trade secrets, belonging to Gaussian, Inc.
  
 This software is provided under written license and may be
 used, copied, transmitted, or stored only in accord with that
 written license.
  
 The following legend is applicable only to US Government
 contracts under FAR:
  
                    RESTRICTED RIGHTS LEGEND
  
 Use, reproduction and disclosure by the US Government is
 subject to restrictions as set forth in subparagraphs (a)
 and (c) of the Commercial Computer Software - Restricted
 Rights clause in FAR 52.227-19.
  
 Gaussian, Inc.
 340 Quinnipiac St., Bldg. 40, Wallingford CT 06492
  
  
 ---------------------------------------------------------------
 Warning -- This program may not be used in any manner that
 competes with the business of Gaussian, Inc. or will provide
 assistance to any competitor of Gaussian, Inc.  The licensee
 of this program is prohibited from giving any competitor of
 Gaussian, Inc. access to this program.  By using this program,
 the user acknowledges that Gaussian, Inc. is engaged in the
 business of creating and licensing software in the field of
 computational chemistry and represents and warrants to the
 licensee that it is not a competitor of Gaussian, Inc. and that
 it will not use this program in any manner prohibited above.
 ---------------------------------------------------------------
  

 Cite this work as:
 Gaussian 09, Revision E.01,
 M. J. Frisch, G. W. Trucks, H. B. Schlegel, G. E. Scuseria, 
 M. A. Robb, J. R. Cheeseman, G. Scalmani, V. Barone, B. Mennucci, 
 G. A. Petersson, H. Nakatsuji, M. Caricato, X. Li, H. P. Hratchian, 
 A. F. Izmaylov, J. Bloino, G. Zheng, J. L. Sonnenberg, M. Hada, 
 M. Ehara, K. Toyota, R. Fukuda, J. Hasegawa, M. Ishida, T. Nakajima, 
 Y. Honda, O. Kitao, H. Nakai, T. Vreven, J. A. Montgomery, Jr., 
 J. E. Peralta, F. Ogliaro, M. Bearpark, J. J. Heyd, E. Brothers, 
 K. N. Kudin, V. N. Staroverov, T. Keith, R. Kobayashi, J. Normand, 
 K. Raghavachari, A. Rendell, J. C. Burant, S. S. Iyengar, J. Tomasi, 
 M. Cossi, N. Rega, J. M. Millam, M. Klene, J. E. Knox, J. B. Cross, 
 V. Bakken, C. Adamo, J. Jaramillo, R. Gomperts, R. E. Stratmann, 
 O. Yazyev, A. J. Austin, R. Cammi, C. Pomelli, J. W. Ochterski, 
 R. L. Martin, K. Morokuma, V. G. Zakrzewski, G. A. Voth, 
 P. Salvador, J. J. Dannenberg, S. Dapprich, A. D. Daniels, 
 O. Farkas, J. B. Foresman, J. V. Ortiz, J. Cioslowski, 
 and D. J. Fox, Gaussian, Inc., Wallingford CT, 2013.
 
 ******************************************
 Gaussian 09:  ES64L-G09RevE.01 30-Nov-2015
                 9-Dec-2019 
 ******************************************
 %chk=NM3CA.MP2_GTMP2LARGE.chk
 %mem=1114112000
 %nproc=4
 Will use up to    4 processors via shared memory.
 -------------------------------------------------------------
 # MP2/Gen 5D SCF=Tight INT(grid=ultrafine) maxdisk=3489660928
 -------------------------------------------------------------
 1/38=1/1;
 2/12=2,17=6,18=5,40=1/2;
 3/5=7,8=1,11=9,16=1,25=1,30=1,75=-5/1,2,3;
 4//1;
 5/5=2,32=2,38=5/2;
 8/10=1/1;
 9/16=-3/6;
 6/7=2,8=2,9=2,10=2/1;
 99/5=1,9=1/99;
 --------------------
 NM3CA.MP2_GTMP2LARGE
 --------------------
 Symbolic Z-matrix:
 Charge =  0 Multiplicity = 1
 C                    -5.95698   1.28084   0.19372 
 N                    -4.67619   0.72609   0.09852 
 C                    -3.47489   1.39187   0.09536 
 O                    -3.3167    2.58164   0.1747 
 O                    -2.48234   0.49363  -0.01209 
 C                    -1.15502   1.04274  -0.02912 
 C                    -0.18225  -0.10965  -0.15429 
 C                     1.25829   0.39416  -0.17941 
 C                    -6.19114   2.65638   0.30321 
 C                    -7.50136   3.10126   0.39172 
 C                    -8.59022   2.23644   0.37603 
 C                    -8.33113   0.88052   0.26687 
 C                    -7.03641   0.39444   0.17606 
 H                    -4.61017  -0.27818   0.02315 
 H                    -0.99669   1.60948   0.89157 
 H                    -1.07205   1.73706  -0.86874 
 H                    -0.40698  -0.66787  -1.06717 
 H                    -0.33201  -0.79486   0.68447 
 H                     1.42884   1.06685  -1.02342 
 H                     1.96121  -0.43482  -0.26967 
 H                     1.50414   0.93924   0.73513 
 H                    -5.36766   3.3534    0.31818 
 Cl                   -9.65633  -0.24587   0.24244 
 H                    -6.8718   -0.67412   0.09175 
 C                    -7.78981   4.57378   0.51063 
 H                    -9.60602   2.6051    0.44635 
 F                    -8.55585   5.00409  -0.50479 
 F                    -8.46293   4.84914   1.63942 
 F                    -6.68127   5.31742   0.51636 
 
                          Input orientation:                          
 ---------------------------------------------------------------------
 Center     Atomic      Atomic             Coordinates (Angstroms)
 Number     Number       Type             X           Y           Z
 ---------------------------------------------------------------------
      1          6           0       -5.956977    1.280842    0.193724
      2          7           0       -4.676193    0.726085    0.098524
      3          6           0       -3.474890    1.391866    0.095356
      4          8           0       -3.316705    2.581644    0.174699
      5          8           0       -2.482341    0.493632   -0.012089
      6          6           0       -1.155019    1.042736   -0.029119
      7          6           0       -0.182250   -0.109651   -0.154291
      8          6           0        1.258290    0.394161   -0.179415
      9          6           0       -6.191136    2.656376    0.303215
     10          6           0       -7.501357    3.101257    0.391717
     11          6           0       -8.590215    2.236442    0.376031
     12          6           0       -8.331132    0.880516    0.266875
     13          6           0       -7.036409    0.394438    0.176064
     14          1           0       -4.610165   -0.278178    0.023147
     15          1           0       -0.996689    1.609482    0.891571
     16          1           0       -1.072048    1.737061   -0.868742
     17          1           0       -0.406977   -0.667869   -1.067175
     18          1           0       -0.332013   -0.794863    0.684472
     19          1           0        1.428838    1.066852   -1.023418
     20          1           0        1.961208   -0.434824   -0.269674
     21          1           0        1.504142    0.939238    0.735128
     22          1           0       -5.367662    3.353399    0.318183
     23         17           0       -9.656326   -0.245871    0.242445
     24          1           0       -6.871800   -0.674118    0.091747
     25          6           0       -7.789815    4.573777    0.510633
     26          1           0       -9.606019    2.605096    0.446354
     27          9           0       -8.555853    5.004090   -0.504788
     28          9           0       -8.462929    4.849136    1.639418
     29          9           0       -6.681270    5.317417    0.516358
 ---------------------------------------------------------------------
                    Distance matrix (angstroms):
                    1          2          3          4          5
     1  C    0.000000
     2  N    1.399009   0.000000
     3  C    2.486516   1.373464   0.000000
     4  O    2.943380   2.301545   1.202867   0.000000
     5  O    3.568635   2.208904   1.342953   2.256291   0.000000
     6  C    4.813020   3.537687   2.349295   2.661328   1.436520
     7  C    5.949963   4.577979   3.627445   4.144407   2.382140
     8  C    7.279116   5.950253   4.844988   5.083410   3.745693
     9  C    1.399612   2.462311   3.003362   2.878273   4.304886
    10  C    2.395458   3.702560   4.384323   4.222370   5.670387
    11  C    2.807196   4.204493   5.192171   5.288631   6.363502
    12  C    2.408780   3.662072   4.886102   5.295924   5.868208
    13  C    1.396852   2.384664   3.699432   4.315098   4.559032
    14  H    2.067255   1.009250   2.020671   3.142386   2.263751
    15  H    5.019906   3.866272   2.612047   2.615622   2.066128
    16  H    5.019911   3.866204   2.611952   2.615449   2.066131
    17  H    6.015800   4.639845   3.873767   4.535207   2.601812
    18  H    6.015780   4.639884   3.873825   4.535312   2.601793
    19  H    7.488491   6.216613   5.040222   5.123500   4.080281
    20  H    8.115166   6.748213   5.746408   6.095319   4.546813
    21  H    7.488532   6.216690   5.040331   5.123684   4.080312
    22  H    2.158304   2.725648   2.734931   2.196046   4.075834
    23  Cl   4.002300   5.076134   6.396403   6.941918   7.216489
    24  H    2.160826   2.604094   3.975840   4.821366   4.543322
    25  C    3.781950   4.966810   5.377322   4.908173   6.714916
    26  H    3.890113   5.287235   6.259862   6.295222   7.444142
    27  F    4.593980   5.806640   6.262948   5.811938   7.581196
    28  F    4.593751   5.806313   6.262378   5.811243   7.580589
    29  F    4.113713   5.027449   5.086066   4.349883   6.417100
                    6          7          8          9         10
     6  C    0.000000
     7  C    1.513256   0.000000
     8  C    2.503457   1.526307   0.000000
     9  C    5.298750   6.630756   7.800288   0.000000
    10  C    6.685104   8.011079   9.186184   1.386517   0.000000
    11  C    7.541301   8.745243  10.034719   2.436643   1.390599
    12  C    7.184047   8.219617   9.612114   2.781112   2.373985
    13  C    5.920569   6.880605   8.302313   2.418061   2.754915
    14  H    3.699403   4.434673   5.910317   3.345073   4.462669
    15  H    1.092675   2.170842   2.776499   5.331456   6.692230
    16  H    1.092675   2.170836   2.776514   5.331386   6.692219
    17  H    2.136187   1.093374   2.165443   6.810658   8.164857
    18  H    2.136194   1.093374   2.165443   6.810707   8.164861
    19  H    2.768669   2.176040   1.092677   7.896236   9.267674
    20  H    3.457155   2.171051   1.090622   8.737530  10.123312
    21  H    2.768740   2.176040   1.092676   7.896354   9.267754
    22  H    4.817275   6.253355   7.273784   1.078968   2.149799
    23  Cl   8.602702   9.483358  10.941501   4.520429   3.983647
    24  H    5.970242   6.717830   8.204457   3.405909   3.839242
    25  C    7.535257   8.958329   9.990673   2.505039   1.505212
    26  H    8.607349   9.825378  11.104640   3.418267   2.163045
    27  F    8.407790   9.817863  10.847798   3.428778   2.352968
    28  F    8.407036   9.817159  10.846984   3.428510   2.352968
    29  F    7.007845   8.493533   9.367986   2.714185   2.366314
                   11         12         13         14         15
    11  C    0.000000
    12  C    1.384765   0.000000
    13  C    2.418115   1.385940   0.000000
    14  H    4.721084   3.904814   2.522390   0.000000
    15  H    7.636786   7.397006   6.202136   4.168288   0.000000
    16  H    7.636863   7.397134   6.202246   4.168324   1.766539
    17  H    8.802457   8.183485   6.828140   4.359754   3.061172
    18  H    8.802378   8.183349   6.828019   4.359691   2.503110
    19  H   10.183704   9.846654   8.576206   6.274868   3.137644
    20  H   10.903446  10.389913   9.046738   6.579760   3.778470
    21  H   10.183700   9.846590   8.576151   6.274852   2.593811
    22  H    3.411127   3.860044   3.400054   3.721451   4.740825
    23  Cl   2.704869   1.739391   2.697845   5.051027   8.879922
    24  H    3.391921   2.139441   1.084443   2.297056   6.353855
    25  C    2.474246   3.740671   4.259863   5.821450   7.421504
    26  H    1.082917   2.152145   3.400436   5.783678   8.678135
    27  F    2.904634   4.201170   4.901140   6.614342   8.403222
    28  F    2.904913   4.201332   4.901092   6.614036   8.173088
    29  F    3.627144   4.740293   4.947489   5.986937   6.797355
                   16         17         18         19         20
    16  H    0.000000
    17  H    2.503074   0.000000
    18  H    3.061171   1.757844   0.000000
    19  H    2.593750   2.526141   3.079524   0.000000
    20  H    3.778440   2.509705   2.509758   1.762549   0.000000
    21  H    3.137782   3.079524   2.526091   1.764778   1.762550
    22  H    4.740637   6.534386   6.534524   7.295245   8.270946
    23  Cl   8.880123   9.351130   9.350914  11.234167  11.630351
    24  H    6.354010   6.567882   6.567703   8.554248   8.843638
    25  C    7.421457   9.190790   9.190828   9.981753  10.989878
    26  H    8.678227   9.880559   9.880467  11.238083  11.981426
    27  F    8.173939   9.944424  10.132806  10.745458  11.842535
    28  F    8.402440  10.132194   9.943764  10.919864  11.841769
    29  F    6.797119   8.814646   8.814834   9.285045  10.411463
                   21         22         23         24         25
    21  H    0.000000
    22  H    7.295458   0.000000
    23  Cl  11.234023   5.599385   0.000000
    24  H    8.554137   4.305183   2.821292   0.000000
    25  C    9.981879   2.719041   5.175403   5.344026   0.000000
    26  H   11.238067   4.305817   2.858693   4.284268   2.679260
    27  F   10.920802   3.683290   5.415856   5.952641   1.342782
    28  F   10.744652   3.682875   5.416164   5.952589   1.342781
    29  F    9.285326   2.371120   6.314757   6.009583   1.334880
                   26         27         28         29
    26  H    0.000000
    27  F    2.786161   0.000000
    28  F    2.786714   2.151805   0.000000
    29  F    3.989454   2.157539   2.157512   0.000000
 Stoichiometry    C11H11ClF3NO2
 Framework group  C1[X(C11H11ClF3NO2)]
 Deg. of freedom    81
 Full point group                 C1      NOp   1
 Largest Abelian subgroup         C1      NOp   1
 Largest concise Abelian subgroup C1      NOp   1
                         Standard orientation:                         
 ---------------------------------------------------------------------
 Center     Atomic      Atomic             Coordinates (Angstroms)
 Number     Number       Type             X           Y           Z
 ---------------------------------------------------------------------
      1          6           0        0.141669    0.711592   -0.000223
      2          7           0       -1.243678    0.906635   -0.000379
      3          6           0       -2.223435   -0.055904   -0.000142
      4          8           0       -2.055479   -1.246987   -0.000020
      5          8           0       -3.423192    0.547507   -0.000079
      6          6           0       -4.555987   -0.335876    0.000136
      7          6           0       -5.805153    0.518249   -0.000002
      8          6           0       -7.059396   -0.351514    0.000249
      9          6           0        0.738251   -0.554506   -0.000211
     10          6           0        2.122394   -0.635608   -0.000074
     11          6           0        2.940042    0.489210    0.000045
     12          6           0        2.324693    1.729742    0.000019
     13          6           0        0.944402    1.854752   -0.000113
     14          1           0       -1.577984    1.858908   -0.000328
     15          1           0       -4.502470   -0.976722    0.883534
     16          1           0       -4.502531   -0.977081   -0.883004
     17          1           0       -5.792041    1.168270   -0.879075
     18          1           0       -5.791970    1.168675    0.878769
     19          1           0       -7.096217   -0.995179   -0.881954
     20          1           0       -7.961038    0.262080    0.000069
     21          1           0       -7.096219   -0.994668    0.882824
     22          1           0        0.131468   -1.446688   -0.000304
     23         17           0        3.299907    3.170033    0.000165
     24          1           0        0.497646    2.842894   -0.000126
     25          6           0        2.797509   -1.980927    0.000022
     26          1           0        4.019554    0.403405    0.000143
     27          9           0        3.587382   -2.130122   -1.075573
     28          9           0        3.586487   -2.130418    1.076233
     29          9           0        1.928193   -2.993940   -0.000452
 ---------------------------------------------------------------------
 Rotational constants (GHZ):      0.5307402      0.1582254      0.1248190
 General basis read from cards:  (5D, 7F)
 There are   836 symmetry adapted cartesian basis functions of A   symmetry.
 There are   742 symmetry adapted basis functions of A   symmetry.
   742 basis functions,  1098 primitive gaussians,   836 cartesian basis functions
    72 alpha electrons       72 beta electrons
       nuclear repulsion energy      1424.7130275932 Hartrees.
 NAtoms=   29 NActive=   29 NUniq=   29 SFac= 1.00D+00 NAtFMM=   60 NAOKFM=F Big=F
 Integral buffers will be    131072 words long.
 Raffenetti 1 integral format.
 Two-electron integral symmetry is turned on.
 One-electron integrals computed using PRISM.
 NBasis=   742 RedAO= T EigKep=  1.85D-06  NBF=   742
 NBsUse=   739 1.00D-06 EigRej=  8.12D-07 NBFU=   739
 ExpMin= 3.60D-02 ExpMax= 1.06D+05 ExpMxC= 3.62D+03 IAcc=3 IRadAn=         5 AccDes= 0.00D+00
 Harris functional with IExCor=  205 and IRadAn=       5 diagonalized for initial guess.
 HarFok:  IExCor=  205 AccDes= 0.00D+00 IRadAn=         5 IDoV= 1 UseB2=F ITyADJ=14
 ICtDFT=  3500011 ScaDFX=  1.000000  1.000000  1.000000  1.000000
 FoFCou: FMM=F IPFlag=           0 FMFlag=      100000 FMFlg1=           0
         NFxFlg=           0 DoJE=T BraDBF=F KetDBF=T FulRan=T
         wScrn=  0.000000 ICntrl=     500 IOpCl=  0 I1Cent=   200000004 NGrid=           0
         NMat0=    1 NMatS0=      1 NMatT0=    0 NMatD0=    1 NMtDS0=    0 NMtDT0=    0
 Petite list used in FoFCou.
 Requested convergence on RMS density matrix=1.00D-08 within 128 cycles.
 Requested convergence on MAX density matrix=1.00D-06.
 Requested convergence on             energy=1.00D-06.
 No special actions if energy rises.
 Initial convergence to 1.0D-05 achieved.  Increase integral accuracy.
 SCF Done:  E(RHF) =  -1385.31952770     A.U. after   15 cycles
            NFock= 15  Conv=0.52D-08     -V/T= 2.0007
 ExpMin= 3.60D-02 ExpMax= 1.06D+05 ExpMxC= 3.62D+03 IAcc=3 IRadAn=         5 AccDes= 0.00D+00
 HarFok:  IExCor=  205 AccDes= 0.00D+00 IRadAn=         5 IDoV=-2 UseB2=F ITyADJ=14
 ICtDFT= 12500011 ScaDFX=  1.000000  1.000000  1.000000  1.000000
 Range of M.O.s used for correlation:    23   739
 NBasis=   742 NAE=    72 NBE=    72 NFC=    22 NFV=     0
 NROrb=    717 NOA=    50 NOB=    50 NVA=   667 NVB=   667

 **** Warning!!: The largest alpha MO coefficient is  0.11770882D+03

 Fully direct method using O(OVN) memory.
 JobTyp=1 Pass  1:  I=   1 to  10 NPSUse=  4 ParTrn=T ParDer=T DoDerP=F.
 JobTyp=1 Pass  2:  I=  11 to  24 NPSUse=  4 ParTrn=T ParDer=T DoDerP=F.
 JobTyp=1 Pass  3:  I=  25 to  50 NPSUse=  4 ParTrn=T ParDer=T DoDerP=F.
 Spin components of T(2) and E(2):
     alpha-alpha T2 =       0.1296424928D+00 E2=     -0.4345056549D+00
     alpha-beta  T2 =       0.6768465039D+00 E2=     -0.2465853354D+01
     beta-beta   T2 =       0.1296424928D+00 E2=     -0.4345056549D+00
 ANorm=    0.1391449420D+01
 E2 =    -0.3334864664D+01 EUMP2 =    -0.13886543923662D+04

 **********************************************************************

            Population analysis using the SCF density.

 **********************************************************************

 Orbital symmetries:
       Occupied  (A) (A) (A) (A) (A) (A) (A) (A) (A) (A) (A) (A)
                 (A) (A) (A) (A) (A) (A) (A) (A) (A) (A) (A) (A)
                 (A) (A) (A) (A) (A) (A) (A) (A) (A) (A) (A) (A)
                 (A) (A) (A) (A) (A) (A) (A) (A) (A) (A) (A) (A)
                 (A) (A) (A) (A) (A) (A) (A) (A) (A) (A) (A) (A)
                 (A) (A) (A) (A) (A) (A) (A) (A) (A) (A) (A) (A)
       Virtual   (A) (A) (A) (A) (A) (A) (A) (A) (A) (A) (A) (A)
                 (A) (A) (A) (A) (A) (A) (A) (A) (A) (A) (A) (A)
                 (A) (A) (A) (A) (A) (A) (A) (A) (A) (A) (A) (A)
                 (A) (A) (A) (A) (A) (A) (A) (A) (A) (A) (A) (A)
                 (A) (A) (A) (A) (A) (A) (A) (A) (A) (A) (A) (A)
                 (A) (A) (A) (A) (A) (A) (A) (A) (A) (A) (A) (A)
                 (A) (A) (A) (A) (A) (A) (A) (A) (A) (A) (A) (A)
                 (A) (A) (A) (A) (A) (A) (A) (A) (A) (A) (A) (A)
                 (A) (A) (A) (A) (A) (A) (A) (A) (A) (A) (A) (A)
                 (A) (A) (A) (A) (A) (A) (A) (A) (A) (A) (A) (A)
                 (A) (A) (A) (A) (A) (A) (A) (A) (A) (A) (A) (A)
                 (A) (A) (A) (A) (A) (A) (A) (A) (A) (A) (A) (A)
                 (A) (A) (A) (A) (A) (A) (A) (A) (A) (A) (A) (A)
                 (A) (A) (A) (A) (A) (A) (A) (A) (A) (A) (A) (A)
                 (A) (A) (A) (A) (A) (A) (A) (A) (A) (A) (A) (A)
                 (A) (A) (A) (A) (A) (A) (A) (A) (A) (A) (A) (A)
                 (A) (A) (A) (A) (A) (A) (A) (A) (A) (A) (A) (A)
                 (A) (A) (A) (A) (A) (A) (A) (A) (A) (A) (A) (A)
                 (A) (A) (A) (A) (A) (A) (A) (A) (A) (A) (A) (A)
                 (A) (A) (A) (A) (A) (A) (A) (A) (A) (A) (A) (A)
                 (A) (A) (A) (A) (A) (A) (A) (A) (A) (A) (A) (A)
                 (A) (A) (A) (A) (A) (A) (A) (A) (A) (A) (A) (A)
                 (A) (A) (A) (A) (A) (A) (A) (A) (A) (A) (A) (A)
                 (A) (A) (A) (A) (A) (A) (A) (A) (A) (A) (A) (A)
                 (A) (A) (A) (A) (A) (A) (A) (A) (A) (A) (A) (A)
                 (A) (A) (A) (A) (A) (A) (A) (A) (A) (A) (A) (A)
                 (A) (A) (A) (A) (A) (A) (A) (A) (A) (A) (A) (A)
                 (A) (A) (A) (A) (A) (A) (A) (A) (A) (A) (A) (A)
                 (A) (A) (A) (A) (A) (A) (A) (A) (A) (A) (A) (A)
                 (A) (A) (A) (A) (A) (A) (A) (A) (A) (A) (A) (A)
                 (A) (A) (A) (A) (A) (A) (A) (A) (A) (A) (A) (A)
                 (A) (A) (A) (A) (A) (A) (A) (A) (A) (A) (A) (A)
                 (A) (A) (A) (A) (A) (A) (A) (A) (A) (A) (A) (A)
                 (A) (A) (A) (A) (A) (A) (A) (A) (A) (A) (A) (A)
                 (A) (A) (A) (A) (A) (A) (A) (A) (A) (A) (A) (A)
                 (A) (A) (A) (A) (A) (A) (A) (A) (A) (A) (A) (A)
                 (A) (A) (A) (A) (A) (A) (A) (A) (A) (A) (A) (A)
                 (A) (A) (A) (A) (A) (A) (A) (A) (A) (A) (A) (A)
                 (A) (A) (A) (A) (A) (A) (A) (A) (A) (A) (A) (A)
                 (A) (A) (A) (A) (A) (A) (A) (A) (A) (A) (A) (A)
                 (A) (A) (A) (A) (A) (A) (A) (A) (A) (A) (A) (A)
                 (A) (A) (A) (A) (A) (A) (A) (A) (A) (A) (A) (A)
                 (A) (A) (A) (A) (A) (A) (A) (A) (A) (A) (A) (A)
                 (A) (A) (A) (A) (A) (A) (A) (A) (A) (A) (A) (A)
                 (A) (A) (A) (A) (A) (A) (A) (A) (A) (A) (A) (A)
                 (A) (A) (A) (A) (A) (A) (A) (A) (A) (A) (A) (A)
                 (A) (A) (A) (A) (A) (A) (A) (A) (A) (A) (A) (A)
                 (A) (A) (A) (A) (A) (A) (A) (A) (A) (A) (A) (A)
                 (A) (A) (A) (A) (A) (A) (A) (A) (A) (A) (A) (A)
                 (A) (A) (A) (A) (A) (A) (A) (A) (A) (A) (A) (A)
                 (A) (A) (A) (A) (A) (A) (A) (A) (A) (A) (A) (A)
                 (A) (A) (A) (A) (A) (A) (A) (A) (A) (A) (A) (A)
                 (A) (A) (A) (A) (A) (A) (A) (A) (A) (A) (A) (A)
                 (A) (A) (A) (A) (A) (A) (A) (A) (A) (A) (A) (A)
                 (A) (A) (A) (A) (A) (A) (A) (A) (A) (A) (A) (A)
                 (A) (A) (A) (A) (A) (A) (A)
 The electronic state is 1-A.
 Alpha  occ. eigenvalues -- -104.85765 -26.33968 -26.33578 -26.33576 -20.61701
 Alpha  occ. eigenvalues --  -20.55017 -15.62417 -11.50909 -11.42474 -11.32360
 Alpha  occ. eigenvalues --  -11.32123 -11.29662 -11.28016 -11.26691 -11.26255
 Alpha  occ. eigenvalues --  -11.25710 -11.23729 -11.22830 -10.58202  -8.04979
 Alpha  occ. eigenvalues --   -8.04808  -8.04804  -1.73107  -1.63569  -1.63075
 Alpha  occ. eigenvalues --   -1.48973  -1.38210  -1.28840  -1.20831  -1.14340
 Alpha  occ. eigenvalues --   -1.08870  -1.06740  -1.02240  -0.97576  -0.96019
 Alpha  occ. eigenvalues --   -0.88558  -0.88247  -0.83253  -0.82325  -0.82183
 Alpha  occ. eigenvalues --   -0.80044  -0.79873  -0.75998  -0.71898  -0.71303
 Alpha  occ. eigenvalues --   -0.70995  -0.70946  -0.70664  -0.67760  -0.66541
 Alpha  occ. eigenvalues --   -0.66135  -0.64899  -0.64683  -0.64237  -0.62092
 Alpha  occ. eigenvalues --   -0.61317  -0.59851  -0.59003  -0.56566  -0.56098
 Alpha  occ. eigenvalues --   -0.55605  -0.53735  -0.52830  -0.51508  -0.50145
 Alpha  occ. eigenvalues --   -0.49762  -0.47792  -0.47478  -0.46963  -0.46285
 Alpha  occ. eigenvalues --   -0.36625  -0.33534
 Alpha virt. eigenvalues --    0.03234   0.04052   0.05322   0.05502   0.05840
 Alpha virt. eigenvalues --    0.06179   0.07593   0.07634   0.08376   0.08483
 Alpha virt. eigenvalues --    0.09068   0.09358   0.09971   0.10165   0.10988
 Alpha virt. eigenvalues --    0.11242   0.11816   0.12825   0.12842   0.14220
 Alpha virt. eigenvalues --    0.14447   0.14749   0.15367   0.16539   0.16858
 Alpha virt. eigenvalues --    0.16950   0.17396   0.17529   0.17799   0.18128
 Alpha virt. eigenvalues --    0.18375   0.18747   0.19009   0.19016   0.19207
 Alpha virt. eigenvalues --    0.19862   0.19943   0.20642   0.20873   0.21499
 Alpha virt. eigenvalues --    0.22123   0.22324   0.23343   0.23364   0.23895
 Alpha virt. eigenvalues --    0.24060   0.24646   0.24796   0.25783   0.26040
 Alpha virt. eigenvalues --    0.26630   0.26817   0.28202   0.29016   0.29437
 Alpha virt. eigenvalues --    0.29755   0.30063   0.30901   0.31140   0.31508
 Alpha virt. eigenvalues --    0.31994   0.32503   0.32912   0.33237   0.33398
 Alpha virt. eigenvalues --    0.34703   0.35593   0.36159   0.36294   0.36794
 Alpha virt. eigenvalues --    0.37187   0.37718   0.38338   0.38554   0.39482
 Alpha virt. eigenvalues --    0.39935   0.40496   0.40891   0.41074   0.41285
 Alpha virt. eigenvalues --    0.41444   0.42174   0.42955   0.43268   0.43713
 Alpha virt. eigenvalues --    0.43861   0.43959   0.44837   0.45200   0.46251
 Alpha virt. eigenvalues --    0.46798   0.47023   0.47744   0.47973   0.48432
 Alpha virt. eigenvalues --    0.48735   0.49461   0.49630   0.50165   0.51570
 Alpha virt. eigenvalues --    0.51793   0.52974   0.54643   0.55210   0.55489
 Alpha virt. eigenvalues --    0.56038   0.56306   0.56558   0.56615   0.57605
 Alpha virt. eigenvalues --    0.58251   0.59697   0.60748   0.61493   0.62268
 Alpha virt. eigenvalues --    0.63038   0.63529   0.64244   0.65548   0.67348
 Alpha virt. eigenvalues --    0.67412   0.68541   0.68715   0.69502   0.69700
 Alpha virt. eigenvalues --    0.70678   0.70690   0.71885   0.72023   0.73023
 Alpha virt. eigenvalues --    0.73225   0.73720   0.74672   0.75077   0.75784
 Alpha virt. eigenvalues --    0.76588   0.77262   0.78063   0.78369   0.78956
 Alpha virt. eigenvalues --    0.79718   0.80035   0.81395   0.81435   0.82163
 Alpha virt. eigenvalues --    0.82777   0.83168   0.83554   0.84293   0.84608
 Alpha virt. eigenvalues --    0.85203   0.85787   0.86174   0.87448   0.87643
 Alpha virt. eigenvalues --    0.88526   0.88772   0.89851   0.90609   0.91255
 Alpha virt. eigenvalues --    0.92757   0.94354   0.94755   0.94784   0.95645
 Alpha virt. eigenvalues --    0.96326   0.96588   0.97482   0.97745   0.98159
 Alpha virt. eigenvalues --    0.99226   1.00740   1.01525   1.02027   1.02973
 Alpha virt. eigenvalues --    1.03152   1.03797   1.04649   1.06101   1.06740
 Alpha virt. eigenvalues --    1.07272   1.07672   1.08299   1.09704   1.10803
 Alpha virt. eigenvalues --    1.11889   1.12377   1.14780   1.15791   1.16767
 Alpha virt. eigenvalues --    1.17224   1.18263   1.19793   1.21414   1.22289
 Alpha virt. eigenvalues --    1.23270   1.23785   1.24435   1.25086   1.25695
 Alpha virt. eigenvalues --    1.27265   1.28033   1.29683   1.29754   1.30188
 Alpha virt. eigenvalues --    1.31100   1.31252   1.32002   1.32324   1.33422
 Alpha virt. eigenvalues --    1.34122   1.35120   1.36228   1.36439   1.36518
 Alpha virt. eigenvalues --    1.36992   1.37926   1.37937   1.39274   1.39866
 Alpha virt. eigenvalues --    1.40572   1.41066   1.41694   1.42012   1.44603
 Alpha virt. eigenvalues --    1.44746   1.45310   1.45899   1.46333   1.48305
 Alpha virt. eigenvalues --    1.48869   1.49293   1.49667   1.51711   1.52214
 Alpha virt. eigenvalues --    1.52748   1.52874   1.54829   1.55847   1.56828
 Alpha virt. eigenvalues --    1.58044   1.58294   1.59444   1.60007   1.61208
 Alpha virt. eigenvalues --    1.61924   1.62346   1.63135   1.63667   1.64776
 Alpha virt. eigenvalues --    1.65470   1.66147   1.67195   1.67646   1.68359
 Alpha virt. eigenvalues --    1.68567   1.69201   1.69602   1.70224   1.70473
 Alpha virt. eigenvalues --    1.70872   1.72214   1.73127   1.74266   1.74711
 Alpha virt. eigenvalues --    1.75850   1.77107   1.77506   1.78011   1.78931
 Alpha virt. eigenvalues --    1.79504   1.81284   1.82975   1.84166   1.85019
 Alpha virt. eigenvalues --    1.85438   1.86562   1.87587   1.87978   1.90843
 Alpha virt. eigenvalues --    1.92049   1.92580   1.94142   1.94688   1.95558
 Alpha virt. eigenvalues --    1.95634   1.96905   1.98996   2.00865   2.02245
 Alpha virt. eigenvalues --    2.03475   2.05739   2.06311   2.09618   2.12634
 Alpha virt. eigenvalues --    2.13458   2.17937   2.20777   2.21581   2.22002
 Alpha virt. eigenvalues --    2.22250   2.23976   2.25026   2.28971   2.30324
 Alpha virt. eigenvalues --    2.32054   2.33551   2.35865   2.38215   2.40878
 Alpha virt. eigenvalues --    2.42321   2.46043   2.46650   2.48191   2.49754
 Alpha virt. eigenvalues --    2.50762   2.55466   2.55585   2.57853   2.61093
 Alpha virt. eigenvalues --    2.63806   2.64890   2.68033   2.70695   2.73772
 Alpha virt. eigenvalues --    2.77106   2.77285   2.81477   2.81819   2.86004
 Alpha virt. eigenvalues --    2.87714   2.88105   2.92175   2.93069   2.93634
 Alpha virt. eigenvalues --    2.94641   2.96105   2.97349   2.98039   2.98918
 Alpha virt. eigenvalues --    3.03102   3.03428   3.03591   3.04484   3.05259
 Alpha virt. eigenvalues --    3.06490   3.09561   3.10109   3.11228   3.11517
 Alpha virt. eigenvalues --    3.11991   3.12094   3.13111   3.14506   3.14678
 Alpha virt. eigenvalues --    3.16163   3.17541   3.17961   3.18636   3.19476
 Alpha virt. eigenvalues --    3.19742   3.20459   3.23406   3.23822   3.24317
 Alpha virt. eigenvalues --    3.25559   3.26295   3.26824   3.27469   3.29589
 Alpha virt. eigenvalues --    3.32959   3.34190   3.35646   3.36379   3.37386
 Alpha virt. eigenvalues --    3.38003   3.39503   3.41295   3.41993   3.42595
 Alpha virt. eigenvalues --    3.44664   3.45409   3.45537   3.47029   3.48183
 Alpha virt. eigenvalues --    3.48332   3.48867   3.49856   3.50271   3.51894
 Alpha virt. eigenvalues --    3.52505   3.53738   3.55807   3.55823   3.56739
 Alpha virt. eigenvalues --    3.59925   3.61545   3.62268   3.62627   3.63951
 Alpha virt. eigenvalues --    3.64627   3.66183   3.66879   3.67162   3.68149
 Alpha virt. eigenvalues --    3.68398   3.69748   3.69997   3.71010   3.71426
 Alpha virt. eigenvalues --    3.72432   3.73461   3.74816   3.74859   3.76350
 Alpha virt. eigenvalues --    3.76833   3.77005   3.78466   3.78929   3.80712
 Alpha virt. eigenvalues --    3.81425   3.82716   3.83113   3.84696   3.86571
 Alpha virt. eigenvalues --    3.87734   3.88242   3.88564   3.89399   3.90232
 Alpha virt. eigenvalues --    3.91660   3.93004   3.93218   3.94106   3.94940
 Alpha virt. eigenvalues --    3.95337   3.98007   3.99069   3.99123   3.99832
 Alpha virt. eigenvalues --    4.00793   4.02556   4.03369   4.04091   4.04429
 Alpha virt. eigenvalues --    4.06794   4.07845   4.08244   4.09514   4.12561
 Alpha virt. eigenvalues --    4.12778   4.14564   4.15716   4.17008   4.17759
 Alpha virt. eigenvalues --    4.18467   4.19789   4.22924   4.23719   4.26129
 Alpha virt. eigenvalues --    4.26614   4.27666   4.29400   4.31176   4.31364
 Alpha virt. eigenvalues --    4.32748   4.34496   4.34729   4.37284   4.37722
 Alpha virt. eigenvalues --    4.39130   4.39396   4.40717   4.40888   4.42849
 Alpha virt. eigenvalues --    4.44866   4.48265   4.49494   4.50000   4.50529
 Alpha virt. eigenvalues --    4.52912   4.54837   4.55987   4.57424   4.59999
 Alpha virt. eigenvalues --    4.61126   4.61150   4.62641   4.62743   4.64405
 Alpha virt. eigenvalues --    4.67242   4.67805   4.68575   4.69681   4.71383
 Alpha virt. eigenvalues --    4.72687   4.73002   4.73204   4.74338   4.77933
 Alpha virt. eigenvalues --    4.78286   4.79190   4.79391   4.80107   4.81110
 Alpha virt. eigenvalues --    4.82236   4.82289   4.84143   4.84961   4.86058
 Alpha virt. eigenvalues --    4.86708   4.86948   4.89751   4.89756   4.90407
 Alpha virt. eigenvalues --    4.92382   4.92771   4.93160   4.93605   4.95612
 Alpha virt. eigenvalues --    4.97175   4.99780   5.00324   5.01470   5.05425
 Alpha virt. eigenvalues --    5.05510   5.06839   5.08432   5.09267   5.15585
 Alpha virt. eigenvalues --    5.16673   5.19175   5.19866   5.31544   5.32557
 Alpha virt. eigenvalues --    5.36120   5.40374   5.41584   5.42050   5.49882
 Alpha virt. eigenvalues --    5.52686   5.55314   5.56355   5.60586   5.63581
 Alpha virt. eigenvalues --    5.64047   5.65523   5.66235   5.66738   5.68302
 Alpha virt. eigenvalues --    5.71476   5.71658   5.74098   5.75937   5.79444
 Alpha virt. eigenvalues --    5.79919   5.84390   5.86725   5.86841   5.88091
 Alpha virt. eigenvalues --    5.94777   5.95671   5.98772   5.99535   6.01303
 Alpha virt. eigenvalues --    6.05496   6.05597   6.13792   6.14804   6.14924
 Alpha virt. eigenvalues --    6.17237   6.22022   6.23584   6.28246   6.29254
 Alpha virt. eigenvalues --    6.32686   6.40335   6.43110   6.48756   6.51782
 Alpha virt. eigenvalues --    6.63898   6.66080   6.86456   6.89381   6.93804
 Alpha virt. eigenvalues --    6.96026   6.96385   6.99106   7.02899   7.05689
 Alpha virt. eigenvalues --    7.06524   7.08769   7.09831   7.11234   7.11773
 Alpha virt. eigenvalues --    7.12045   7.12730   7.13976   7.15438   7.15705
 Alpha virt. eigenvalues --    7.16817   7.18177   7.23962   7.25701   7.28897
 Alpha virt. eigenvalues --    7.35622   7.36347   7.36457   7.37868   7.43138
 Alpha virt. eigenvalues --    7.52944   7.55836   7.56736   7.62838   7.67639
 Alpha virt. eigenvalues --    7.73440   7.75915   7.76439   7.82380   7.84729
 Alpha virt. eigenvalues --    7.87554   7.90684   7.91722   7.95096   8.15958
 Alpha virt. eigenvalues --    8.29032   8.34008   8.40455   8.43173   8.45689
 Alpha virt. eigenvalues --    9.68932   9.70621   9.72611   9.81053   9.85568
 Alpha virt. eigenvalues --    9.87749  10.02625  10.11348  10.15767  10.25491
 Alpha virt. eigenvalues --   10.41240  10.51953  10.58419  10.64200  10.73493
 Alpha virt. eigenvalues --   10.79906  21.79845  21.89816  22.18470  25.00858
 Alpha virt. eigenvalues --   25.38219  25.51155  25.58521  25.61285  25.66316
 Alpha virt. eigenvalues --   25.73124  25.85657  25.89086  26.10999  26.29801
 Alpha virt. eigenvalues --   37.36198  51.79613  51.94988  68.82081  68.85873
 Alpha virt. eigenvalues --   68.90396 220.07940
          Condensed to atoms (all electrons):
               1          2          3          4          5          6
     1  C   20.728226  -0.604827   0.868529  -0.366937  -0.080293  -0.169515
     2  N   -0.604827   6.985031   0.453369   0.014556   0.100875  -0.224855
     3  C    0.868529   0.453369   6.682071   0.428557   0.257929  -0.553936
     4  O   -0.366937   0.014556   0.428557   8.136812  -0.072900  -0.147258
     5  O   -0.080293   0.100875   0.257929  -0.072900   8.103054   0.237732
     6  C   -0.169515  -0.224855  -0.553936  -0.147258   0.237732   6.645273
     7  C    0.018707  -0.055526   0.093287   0.054459  -0.210320  -0.554060
     8  C   -0.007400  -0.006109  -0.165813   0.002309   0.028419   0.342072
     9  C   -6.349896   0.427575  -1.208911   0.343782  -0.057776  -0.415758
    10  C   -8.867408   0.227934  -0.794123   0.121629  -0.004943  -0.069862
    11  C    2.064457  -0.076921   0.061786  -0.006412  -0.001519   0.004045
    12  C   -1.084962  -0.035869  -0.319268  -0.010350   0.005809  -0.031674
    13  C    1.398705  -0.172226  -0.024640  -0.045153   0.022519   0.034173
    14  H    0.048714   0.408003   0.010272   0.005923  -0.009143   0.005310
    15  H    0.001774   0.006421   0.038161  -0.009902  -0.048744   0.459702
    16  H    0.001753   0.006413   0.038077  -0.009892  -0.048730   0.459715
    17  H    0.001764   0.001957   0.002846  -0.001028   0.000759  -0.023017
    18  H    0.001773   0.001954   0.002824  -0.001026   0.000754  -0.023044
    19  H    0.000032   0.000058  -0.000310   0.000376  -0.000227  -0.023498
    20  H   -0.000010  -0.000851   0.002024   0.000443  -0.002470   0.013110
    21  H    0.000030   0.000058  -0.000305   0.000376  -0.000226  -0.023484
    22  H   -0.305824  -0.015208  -0.003058  -0.007292   0.002765  -0.002116
    23  Cl  -0.023184  -0.000829   0.001805  -0.000115  -0.000065   0.000129
    24  H   -0.180208  -0.024015  -0.026156  -0.000385   0.000536  -0.001605
    25  C   -1.131697   0.017682  -0.314677   0.021904  -0.000503  -0.030602
    26  H    0.008135   0.000727   0.000065   0.000165  -0.000005  -0.000038
    27  F    0.003666  -0.000006   0.001932   0.000000  -0.000001   0.000018
    28  F    0.003760  -0.000007   0.001934   0.000000  -0.000001   0.000018
    29  F    0.225514  -0.000866   0.017054   0.000142   0.000028   0.000659
               7          8          9         10         11         12
     1  C    0.018707  -0.007400  -6.349896  -8.867408   2.064457  -1.084962
     2  N   -0.055526  -0.006109   0.427575   0.227934  -0.076921  -0.035869
     3  C    0.093287  -0.165813  -1.208911  -0.794123   0.061786  -0.319268
     4  O    0.054459   0.002309   0.343782   0.121629  -0.006412  -0.010350
     5  O   -0.210320   0.028419  -0.057776  -0.004943  -0.001519   0.005809
     6  C   -0.554060   0.342072  -0.415758  -0.069862   0.004045  -0.031674
     7  C    5.797298  -0.060516  -0.007728  -0.005495   0.001066  -0.000452
     8  C   -0.060516   5.152809  -0.010006  -0.000840   0.000026   0.000037
     9  C   -0.007728  -0.010006  13.201467   2.539187  -1.397713  -0.796255
    10  C   -0.005495  -0.000840   2.539187  15.337191  -1.038062  -0.573276
    11  C    0.001066   0.000026  -1.397713  -1.038062   9.223534   0.537090
    12  C   -0.000452   0.000037  -0.796255  -0.573276   0.537090   8.327991
    13  C   -0.004649   0.002392  -0.626780  -0.951479  -1.536504   1.103801
    14  H   -0.004589  -0.003985  -0.063469  -0.027342   0.008440  -0.030768
    15  H   -0.069912  -0.009392  -0.003098  -0.000658  -0.000145   0.000295
    16  H   -0.069800  -0.009389  -0.003111  -0.000660  -0.000145   0.000295
    17  H    0.428553  -0.028891  -0.000298  -0.000059   0.000025   0.000108
    18  H    0.428617  -0.028901  -0.000306  -0.000060   0.000025   0.000108
    19  H   -0.005615   0.419247   0.000269   0.000034   0.000000  -0.000010
    20  H   -0.034370   0.409260  -0.000359  -0.000047   0.000005  -0.000010
    21  H   -0.005624   0.419248   0.000270   0.000034   0.000000  -0.000010
    22  H    0.004022  -0.000006   0.585130   0.162830  -0.040974   0.026409
    23  Cl  -0.000013   0.000004   0.115060  -0.002753  -0.260834  -0.392059
    24  H    0.000114   0.000243   0.091936   0.082424  -0.026472   0.012647
    25  C   -0.000690  -0.000248   0.004797  -0.085876  -1.454912  -1.272754
    26  H    0.000025   0.000000   0.009911  -0.051451   0.423014   0.037395
    27  F   -0.000000  -0.000000  -0.018638  -0.044563  -0.035296   0.039267
    28  F   -0.000000  -0.000000  -0.018537  -0.044611  -0.035326   0.039127
    29  F    0.000011   0.000002   0.115760  -0.318809   0.042456  -0.010475
              13         14         15         16         17         18
     1  C    1.398705   0.048714   0.001774   0.001753   0.001764   0.001773
     2  N   -0.172226   0.408003   0.006421   0.006413   0.001957   0.001954
     3  C   -0.024640   0.010272   0.038161   0.038077   0.002846   0.002824
     4  O   -0.045153   0.005923  -0.009902  -0.009892  -0.001028  -0.001026
     5  O    0.022519  -0.009143  -0.048744  -0.048730   0.000759   0.000754
     6  C    0.034173   0.005310   0.459702   0.459715  -0.023017  -0.023044
     7  C   -0.004649  -0.004589  -0.069912  -0.069800   0.428553   0.428617
     8  C    0.002392  -0.003985  -0.009392  -0.009389  -0.028891  -0.028901
     9  C   -0.626780  -0.063469  -0.003098  -0.003111  -0.000298  -0.000306
    10  C   -0.951479  -0.027342  -0.000658  -0.000660  -0.000059  -0.000060
    11  C   -1.536504   0.008440  -0.000145  -0.000145   0.000025   0.000025
    12  C    1.103801  -0.030768   0.000295   0.000295   0.000108   0.000108
    13  C    7.143989  -0.013959   0.001340   0.001343   0.000122   0.000123
    14  H   -0.013959   0.455800   0.000282   0.000281   0.000489   0.000489
    15  H    0.001340   0.000282   0.587999  -0.052109   0.007635  -0.010157
    16  H    0.001343   0.000281  -0.052109   0.587991  -0.010160   0.007632
    17  H    0.000122   0.000489   0.007635  -0.010160   0.627489  -0.047597
    18  H    0.000123   0.000489  -0.010157   0.007632  -0.047597   0.627486
    19  H   -0.000084   0.000032   0.000301  -0.000161  -0.007818   0.005435
    20  H   -0.000012   0.000049  -0.001946  -0.001942  -0.005825  -0.005817
    21  H   -0.000084   0.000032  -0.000160   0.000302   0.005435  -0.007820
    22  H    0.003002  -0.005107  -0.001053  -0.001054  -0.000114  -0.000114
    23  Cl   0.055625  -0.003052   0.000004   0.000004  -0.000003  -0.000003
    24  H    0.411807  -0.000053  -0.000018  -0.000018  -0.000059  -0.000060
    25  C   -0.512711  -0.009162   0.000410   0.000410   0.000028   0.000028
    26  H    0.030878   0.000270  -0.000007  -0.000007  -0.000001  -0.000001
    27  F    0.010135   0.000053   0.000000   0.000001  -0.000000  -0.000000
    28  F    0.010108   0.000054   0.000001   0.000000  -0.000000  -0.000000
    29  F    0.002461   0.000483   0.000005   0.000005  -0.000001  -0.000001
              19         20         21         22         23         24
     1  C    0.000032  -0.000010   0.000030  -0.305824  -0.023184  -0.180208
     2  N    0.000058  -0.000851   0.000058  -0.015208  -0.000829  -0.024015
     3  C   -0.000310   0.002024  -0.000305  -0.003058   0.001805  -0.026156
     4  O    0.000376   0.000443   0.000376  -0.007292  -0.000115  -0.000385
     5  O   -0.000227  -0.002470  -0.000226   0.002765  -0.000065   0.000536
     6  C   -0.023498   0.013110  -0.023484  -0.002116   0.000129  -0.001605
     7  C   -0.005615  -0.034370  -0.005624   0.004022  -0.000013   0.000114
     8  C    0.419247   0.409260   0.419248  -0.000006   0.000004   0.000243
     9  C    0.000269  -0.000359   0.000270   0.585130   0.115060   0.091936
    10  C    0.000034  -0.000047   0.000034   0.162830  -0.002753   0.082424
    11  C    0.000000   0.000005   0.000000  -0.040974  -0.260834  -0.026472
    12  C   -0.000010  -0.000010  -0.000010   0.026409  -0.392059   0.012647
    13  C   -0.000084  -0.000012  -0.000084   0.003002   0.055625   0.411807
    14  H    0.000032   0.000049   0.000032  -0.005107  -0.003052  -0.000053
    15  H    0.000301  -0.001946  -0.000160  -0.001053   0.000004  -0.000018
    16  H   -0.000161  -0.001942   0.000302  -0.001054   0.000004  -0.000018
    17  H   -0.007818  -0.005825   0.005435  -0.000114  -0.000003  -0.000059
    18  H    0.005435  -0.005817  -0.007820  -0.000114  -0.000003  -0.000060
    19  H    0.621802  -0.025739  -0.042504   0.000033   0.000000   0.000002
    20  H   -0.025739   0.589828  -0.025744   0.000037  -0.000000  -0.000001
    21  H   -0.042504  -0.025744   0.621796   0.000033   0.000000   0.000002
    22  H    0.000033   0.000037   0.000033   0.404950   0.002112   0.003787
    23  Cl   0.000000  -0.000000   0.000000   0.002112  17.755029   0.008514
    24  H    0.000002  -0.000001   0.000002   0.003787   0.008514   0.506754
    25  C   -0.000007  -0.000009  -0.000006  -0.063683  -0.051099   0.007772
    26  H    0.000000   0.000000   0.000000   0.001729  -0.003259  -0.000128
    27  F   -0.000000   0.000000   0.000000   0.000262   0.000656  -0.000055
    28  F    0.000000   0.000000  -0.000000   0.000254   0.000655  -0.000055
    29  F   -0.000000   0.000000  -0.000000  -0.029445  -0.000120  -0.000254
              25         26         27         28         29
     1  C   -1.131697   0.008135   0.003666   0.003760   0.225514
     2  N    0.017682   0.000727  -0.000006  -0.000007  -0.000866
     3  C   -0.314677   0.000065   0.001932   0.001934   0.017054
     4  O    0.021904   0.000165   0.000000   0.000000   0.000142
     5  O   -0.000503  -0.000005  -0.000001  -0.000001   0.000028
     6  C   -0.030602  -0.000038   0.000018   0.000018   0.000659
     7  C   -0.000690   0.000025  -0.000000  -0.000000   0.000011
     8  C   -0.000248   0.000000  -0.000000  -0.000000   0.000002
     9  C    0.004797   0.009911  -0.018638  -0.018537   0.115760
    10  C   -0.085876  -0.051451  -0.044563  -0.044611  -0.318809
    11  C   -1.454912   0.423014  -0.035296  -0.035326   0.042456
    12  C   -1.272754   0.037395   0.039267   0.039127  -0.010475
    13  C   -0.512711   0.030878   0.010135   0.010108   0.002461
    14  H   -0.009162   0.000270   0.000053   0.000054   0.000483
    15  H    0.000410  -0.000007   0.000000   0.000001   0.000005
    16  H    0.000410  -0.000007   0.000001   0.000000   0.000005
    17  H    0.000028  -0.000001  -0.000000  -0.000000  -0.000001
    18  H    0.000028  -0.000001  -0.000000  -0.000000  -0.000001
    19  H   -0.000007   0.000000  -0.000000   0.000000  -0.000000
    20  H   -0.000009   0.000000   0.000000   0.000000   0.000000
    21  H   -0.000006   0.000000   0.000000  -0.000000  -0.000000
    22  H   -0.063683   0.001729   0.000262   0.000254  -0.029445
    23  Cl  -0.051099  -0.003259   0.000656   0.000655  -0.000120
    24  H    0.007772  -0.000128  -0.000055  -0.000055  -0.000254
    25  C    9.291852  -0.067727   0.205353   0.205452   0.145533
    26  H   -0.067727   0.446481   0.003133   0.003124   0.001092
    27  F    0.205353   0.003133   9.056415   0.021613   0.014806
    28  F    0.205452   0.003124   0.021613   9.056383   0.014774
    29  F    0.145533   0.001092   0.014806   0.014774   9.084959
 Mulliken charges:
               1
     1  C   -0.203378
     2  N   -0.434497
     3  C    0.448672
     4  O   -0.452781
     5  O   -0.223313
     6  C    0.092367
     7  C    0.263200
     8  C   -0.444572
     9  C   -0.456505
    10  C    0.411116
    11  C   -0.454736
    12  C    0.427812
    13  C   -0.344241
    14  H    0.225651
    15  H    0.102969
    16  H    0.102958
    17  H    0.047661
    18  H    0.047658
    19  H    0.058350
    20  H    0.090394
    21  H    0.058353
    22  H    0.277695
    23  Cl  -0.202210
    24  H    0.133006
    25  C    1.095138
    26  H    0.156480
    27  F   -0.258751
    28  F   -0.258720
    29  F   -0.305777
 Sum of Mulliken charges =  -0.00000
 Mulliken charges with hydrogens summed into heavy atoms:
               1
     1  C   -0.203378
     2  N   -0.208845
     3  C    0.448672
     4  O   -0.452781
     5  O   -0.223313
     6  C    0.298294
     7  C    0.358520
     8  C   -0.237476
     9  C   -0.178810
    10  C    0.411116
    11  C   -0.298257
    12  C    0.427812
    13  C   -0.211235
    23  Cl  -0.202210
    25  C    1.095138
    27  F   -0.258751
    28  F   -0.258720
    29  F   -0.305777
 Electronic spatial extent (au):  <R**2>=           8013.5678
 Charge=             -0.0000 electrons
 Dipole moment (field-independent basis, Debye):
    X=             -4.4478    Y=              3.2616    Z=             -0.0002  Tot=              5.5155
 Quadrupole moment (field-independent basis, Debye-Ang):
   XX=           -100.3076   YY=           -116.8413   ZZ=           -112.9344
   XY=             -0.5641   XZ=             -0.0006   YZ=              0.0004
 Traceless Quadrupole moment (field-independent basis, Debye-Ang):
   XX=              9.7202   YY=             -6.8136   ZZ=             -2.9066
   XY=             -0.5641   XZ=             -0.0006   YZ=              0.0004
 Octapole moment (field-independent basis, Debye-Ang**2):
  XXX=            -78.8462  YYY=            -17.1269  ZZZ=              0.0012  XYY=             -9.3675
  XXY=             -3.9759  XXZ=              0.0050  XZZ=             -0.3295  YZZ=            -14.7950
  YYZ=             -0.0019  XYZ=              0.0006
 Hexadecapole moment (field-independent basis, Debye-Ang**3):
 XXXX=          -7386.0461 YYYY=          -2003.8008 ZZZZ=           -199.9459 XXXY=            -52.9512
 XXXZ=              0.0219 YYYX=           -116.6046 YYYZ=             -0.0025 ZZZX=             -0.0032
 ZZZY=              0.0029 XXYY=          -1734.9899 XXZZ=          -1369.4876 YYZZ=           -375.7492
 XXYZ=              0.0061 YYXZ=              0.0046 ZZXY=            -27.0734
 N-N= 1.424713027593D+03 E-N=-6.124848951673D+03  KE= 1.384377852659D+03
 1\1\GINC-R3714\SP\RMP2-FC\Gen\C11H11Cl1F3N1O2\ROOT\09-Dec-2019\0\\# MP
 2/Gen 5D SCF=Tight INT(grid=ultrafine) maxdisk=3489660928\\NM3CA.MP2_G
 TMP2LARGE\\0,1\C,0,-5.9569774964,1.2808417127,0.193724409\N,0,-4.67619
 29711,0.7260852958,0.0985238423\C,0,-3.474889631,1.3918660304,0.095356
 4042\O,0,-3.316704807,2.581643944,0.1746987992\O,0,-2.48234089,0.49363
 1617,-0.0120889921\C,0,-1.1550188492,1.0427360656,-0.0291191185\C,0,-0
 .1822498634,-0.1096510956,-0.1542905514\C,0,1.2582901817,0.3941613221,
 -0.1794147609\C,0,-6.1911356013,2.6563764353,0.3032149879\C,0,-7.50135
 66318,3.1012571369,0.3917171321\C,0,-8.5902154275,2.2364418165,0.37603
 05323\C,0,-8.331132362,0.8805160896,0.2668747265\C,0,-7.0364086201,0.3
 94437603,0.1760640258\H,0,-4.6101653127,-0.2781777893,0.0231473521\H,0
 ,-0.9966891587,1.6094817615,0.8915708232\H,0,-1.0720482802,1.737060743
 8,-0.8687424746\H,0,-0.4069771034,-0.6678688794,-1.0671748851\H,0,-0.3
 320125571,-0.7948630579,0.6844723461\H,0,1.4288381861,1.0668524163,-1.
 0234183192\H,0,1.9612084214,-0.4348237634,-0.2696742313\H,0,1.50414201
 02,0.9392380926,0.7351283058\H,0,-5.3676618908,3.3533986819,0.31818274
 69\Cl,0,-9.6563259272,-0.2458709955,0.2424448047\H,0,-6.8718000484,-0.
 6741181456,0.0917469319\C,0,-7.7898146971,4.5737769392,0.5106327161\H,
 0,-9.60601919,2.6050963661,0.4463538508\F,0,-8.5558526462,5.0040904724
 ,-0.5047879246\F,0,-8.4629288302,4.8491360989,1.6394182432\F,0,-6.6812
 700068,5.3174170852,0.5163582777\\Version=ES64L-G09RevE.01\State=1-A\H
 F=-1385.3195277\MP2=-1388.6543924\RMSD=5.204e-09\PG=C01 [X(C11H11Cl1F3
 N1O2)]\\@


 TO DETECT ERRORS, THE PROGRAMMER MUST HAVE A CONNIVING MIND,
 ONE THAT DELIGHTS IN UNCOVERING FLAWS WHERE BEAUTY AND
 PERFECTION WERE ONCE THOUGHT TO LIE.

             -- THE PSYCHOLOGY OF COMPUTER PROGRAMMING
                GERALD M. WEINBERG
 Job cpu time:       0 days  3 hours 22 minutes 13.3 seconds.
 File lengths (MBytes):  RWF=    295 Int=      0 D2E=      0 Chk=     33 Scr=      1
 Normal termination of Gaussian 09 at Mon Dec  9 12:21:13 2019.
pbs_rusage has been removed.
Please contact help@nci.org.au if you require this functionality.
