Process 0 of 1 is on r4453 - thread support 0
initial socket setup ...start
initial socket setup ...done 
now start server 0 ... 
r4453 10.9.76
Q-Chem Developer Version! Running on 10.9.76.*
                  Welcome to Q-Chem
     A Quantum Leap Into The Future Of Chemistry


 Q-Chem 5.0, Q-Chem, Inc., Pleasanton, CA (2017)

 Yihan Shao,  Zhengting Gan,  E. Epifanovsky,  A. T. B. Gilbert,  M. Wormit,  
 J. Kussmann,  A. W. Lange,  A. Behn,  Jia Deng,  Xintian Feng,  D. Ghosh,  
 M. Goldey,  P. R. Horn,  L. D. Jacobson,  I. Kaliman,  T. Kus,  A. Landau,  
 Jie Liu,  E. I. Proynov,  R. M. Richard,  R. P. Steele,  E. J. Sundstrom,  
 H. L. Woodcock III,  P. M. Zimmerman,  D. Zuev,  B. Albrecht,  E. Alguire,  
 S. A. Baeppler,  Z. Benda,  Y. A. Bernard,  E. J. Berquist,  K. B. Bravaya,  
 D. Casanova,  Chun-Min Chang,  Yunqing Chen,  A. Chien,  K. D. Closser,  
 M. P. Coons,  S. Dasgupta,  M. Diedenhofen,  Hainam Do,  R. G. Edgar,  
 Po-Tung Fang,  S. Fatehi,  Qingguo Feng,  Qinghui Ge,  A. Ghysels,  
 J. Gomes,  J. Gonthier,  A. Gunina,  M. W. D. Hanson-Heine,  
 P. H. P. Harbach,  A. W. Hauser,  J. E. Herr,  E. G. Hohenstein,  
 Z. C. Holden,  Kerwin Hui,  T.-C. Jagau,  Hyunjun Ji,  B. Kaduk,  
 K. Khistyaev,  Jaehoon Kim,  P. Klunzinger,  K. Koh,  D. Kosenkov,  
 T. Kowalczyk,  C. M. Krauter,  A. Kunitsa,  Ka Un Lao,  A. Laurent,  
 K. V. Lawler,  Joonho Lee,  D. Lefrancois,  S. Lehtola,  D. S. Levine,  
 Yi-Pei Li,  You-Sheng Lin,  Fenglai Liu,  E. Livshits,  A. Luenser,  
 P. Manohar,  E. Mansoor,  S. F. Manzer,  Shan-Ping Mao,  Yuezhi Mao,  
 N. Mardirossian,  A. V. Marenich,  L. A. Martinez-Martinez,  S. A. Maurer,  
 N. J. Mayhall,  S. C. McKenzie,  J.-M. Mewes,  A. F. Morrison,  K. Nanda,  
 T. S. Nguyen-Beck,  R. Olivares-Amaya,  J. A. Parkhill,  T. M. Perrine,  
 F. Plasser,  S. Prager,  A. Prociuk,  D. R. Rehn,  F. Rob,  M. Schneider,  
 N. Sergueev,  S. M. Sharada,  S. Sharma,  D. W. Small,  T. Stauch,  
 T. Stein,  Yu-Chuan Su,  A. J. W. Thom,  T. Tsuchimochi,  L. Vogt,  
 O. Vydrov,  M. A. Watson,  J. Wenzel,  M. de Wergifosse,  T. A. Wesolowski,  
 A. White,  J. Witte,  A. Yamada,  Jun Yang,  K. Yao,  S. Yeganeh,  
 S. R. Yost,  Zhi-Qiang You,  A. Zech,  Igor Ying Zhang,  Xing Zhang,  
 Yan Zhao,  Ying Zhu,  B. R. Brooks,  G. K. L. Chan,  C. J. Cramer,  
 M. S. Gordon,  W. J. Hehre,  A. Klamt,  M. W. Schmidt,  C. D. Sherrill,  
 D. G. Truhlar,  A. Aspuru-Guzik,  R. Baer,  A. T. Bell,  N. A. Besley,  
 Jeng-Da Chai,  A. Dreuw,  B. D. Dunietz,  T. R. Furlani,  Chao-Ping Hsu,  
 Yousung Jung,  Jing Kong,  D. S. Lambrecht,  WanZhen Liang,  C. Ochsenfeld,  
 V. A. Rassolov,  L. V. Slipchenko,  J. E. Subotnik,  T. Van Voorhis,  
 J. M. Herbert,  A. I. Krylov,  P. M. W. Gill,  M. Head-Gordon

 Contributors to earlier versions of Q-Chem not listed above: 
 R. D. Adamson,  B. Austin,  J. Baker,  G. J. O. Beran,  K. Brandhorst,  
 S. T. Brown,  E. F. C. Byrd,  A. K. Chakraborty,  C.-L. Cheng,  
 Siu Hung Chien,  D. M. Chipman,  D. L. Crittenden,  H. Dachsel,  
 R. A. DiStasio Jr.,  R. J. Doerksen,  A. D. Dutoi,  L. Fusti-Molnar,  
 W. A. Goddard III,  A. Golubeva-Zadorozhnaya,  S. R. Gwaltney,  G. Hawkins,  
 A. Heyden,  S. Hirata,  G. Kedziora,  F. J. Keil,  C. Kelley,  Jihan Kim,  
 R. A. King,  R. Z. Khaliullin,  P. P. Korambath,  W. Kurlancheek,  
 A. M. Lee,  M. S. Lee,  S. V. Levchenko,  Ching Yeh Lin,  D. Liotard,  
 R. C. Lochan,  I. Lotan,  P. E. Maslen,  N. Nair,  D. P. O'Neill,  
 D. Neuhauser,  E. Neuscamman,  C. M. Oana,  R. Olson,  B. Peters,  
 R. Peverati,  P. A. Pieniazek,  Y. M. Rhee,  J. Ritchie,  M. A. Rohrdanz,  
 E. Rosta,  N. J. Russ,  H. F. Schaefer III,  N. E. Schultz,  N. Shenvi,  
 A. C. Simmonett,  A. Sodt,  D. Stuck,  K. S. Thanthiriwatte,  V. Vanovschi,  
 Tao Wang,  A. Warshel,  C. F. Williams,  Q. Wu,  X. Xu,  W. Zhang

 Please cite Q-Chem as follows:
 Y. Shao et al., Mol. Phys. 113, 184-215 (2015)
 DOI: 10.1080/00268976.2014.952696

 Q-Chem 5.0.0 for Intel X86 EM64T Linux

 Parts of Q-Chem use Armadillo 5.200.1 (Boston Tea Smuggler).
 http://arma.sourceforge.net/

 Q-Chem begins on Mon Dec  9 11:57:29 2019  

Host: r4453
0

     Scratch files written to /jobfs/local/4047184.r-man2/NM3CA.CCSD-T_6-31pGd.mo//
 Parallel job on  1  processors
Core orbitals will be frozen

Checking the input file for inconsistencies... 	...done.

--------------------------------------------------------------
User input:
--------------------------------------------------------------
$molecule
  0 1
    C     -5.9569774964    1.2808417127    0.1937244090
    N     -4.6761929711    0.7260852958    0.0985238423
    C     -3.4748896310    1.3918660304    0.0953564042
    O     -3.3167048070    2.5816439440    0.1746987992
    O     -2.4823408900    0.4936316170   -0.0120889921
    C     -1.1550188492    1.0427360656   -0.0291191185
    C     -0.1822498634   -0.1096510956   -0.1542905514
    C      1.2582901817    0.3941613221   -0.1794147609
    C     -6.1911356013    2.6563764353    0.3032149879
    C     -7.5013566318    3.1012571369    0.3917171321
    C     -8.5902154275    2.2364418165    0.3760305323
    C     -8.3311323620    0.8805160896    0.2668747265
    C     -7.0364086201    0.3944376030    0.1760640258
    H     -4.6101653127   -0.2781777893    0.0231473521
    H     -0.9966891587    1.6094817615    0.8915708232
    H     -1.0720482802    1.7370607438   -0.8687424746
    H     -0.4069771034   -0.6678688794   -1.0671748851
    H     -0.3320125571   -0.7948630579    0.6844723461
    H      1.4288381861    1.0668524163   -1.0234183192
    H      1.9612084214   -0.4348237634   -0.2696742313
    H      1.5041420102    0.9392380926    0.7351283058
    H     -5.3676618908    3.3533986819    0.3181827469
    Cl    -9.6563259272   -0.2458709955    0.2424448047
    H     -6.8718000484   -0.6741181456    0.0917469319
    C     -7.7898146971    4.5737769392    0.5106327161
    H     -9.6060191900    2.6050963661    0.4463538508
    F     -8.5558526462    5.0040904724   -0.5047879246
    F     -8.4629288302    4.8491360989    1.6394182432
    F     -6.6812700068    5.3174170852    0.5163582777

$end

$rem

    JOBTYPE               sp
    METHOD                CCSD(T)
    BASIS                 6-31+G*
    CC_BACKEND            XM

    MEM_TOTAL             60000
$end
--------------------------------------------------------------
 ----------------------------------------------------------------
             Standard Nuclear Orientation (Angstroms)
    I     Atom           X                Y                Z
 ----------------------------------------------------------------
    1      C       0.1416686412    -0.7115918106     0.0002233817
    2      N      -1.2436778879    -0.9066348835     0.0003790098
    3      C      -2.2234346559     0.0559036111     0.0001418210
    4      O      -2.0554787796     1.2469871290     0.0000199875
    5      O      -3.4231924295    -0.5475065799     0.0000785527
    6      C      -4.5559872313     0.3358763561    -0.0001361392
    7      C      -5.8051525496    -0.5182486611     0.0000023958
    8      C      -7.0593956865     0.3515144618    -0.0002488999
    9      C       0.7382505843     0.5545061173     0.0002113946
   10      C       2.1223940334     0.6356079694     0.0000742553
   11      C       2.9400423656    -0.4892103606    -0.0000445386
   12      C       2.3246925670    -1.7297417896    -0.0000191099
   13      C       0.9444023851    -1.8547515589     0.0001133203
   14      H      -1.5779842301    -1.8589084146     0.0003277537
   15      H      -4.5024700436     0.9767218096    -0.8835341010
   16      H      -4.5025306177     0.9770810710     0.8830043695
   17      H      -5.7920409997    -1.1682695104     0.8790747569
   18      H      -5.7919695020    -1.1686749407    -0.8787691092
   19      H      -7.0962168586     0.9951785303     0.8819544240
   20      H      -7.9610379267    -0.2620801388    -0.0000686626
   21      H      -7.0962192224     0.9946679928    -0.8828237641
   22      H       0.1314682977     1.4466878510     0.0003041786
   23      Cl      3.2999070812    -3.1700331845    -0.0001646290
   24      H       0.4976455696    -2.8428938005     0.0001260168
   25      C       2.7975089354     1.9809270392    -0.0000223101
   26      H       4.0195544017    -0.4034048579    -0.0001429556
   27      F       3.5873821679     2.1301216539     1.0755725009
   28      F       3.5864868819     2.1304176076    -1.0762325308
   29      F       1.9281930956     2.9939396375     0.0004523598
 ----------------------------------------------------------------
 Molecular Point Group                 C1    NOp =  1
 Largest Abelian Subgroup              C1    NOp =  1
 Nuclear Repulsion Energy =  1424.7130335433 hartrees
 There are       72 alpha and       72 beta electrons
 Requested basis set is 6-31+G(d)
 There are 113 shells and 368 basis functions
 Total memory of 101219MB is distributed as follows: 
   QALLOC including MEM_STATIC uses 30062MB
   MEM_STATIC is set to 62MB
   CCMAN JOB total memory use is  101157MB
 Warning: actual memory use might exceed 101219MB

 Total QAlloc Memory Limit  30062 MB
 Mega-Array Size        61 MB
 MEM_STATIC part        62 MB
 A cutoff of  1.0D-14 yielded   4786 shell pairs
 There are     54504 function pairs
 
 -------------------------------------------------------
 OpenMP Integral Computing Module                       
 Release: version 1.0, May 2013, Q-Chem Inc. Pittsburgh 
 -------------------------------------------------------
 Integral Job Info:
 Integral job number is                      11
 Integral operator is                         1
 short-range coefficients                     0
 long-range coefficients              100000000
 Omega coefficients                           0
 if combine SR and LR in K                    0
 Integral screening is                        0
 Integral computing path is                   2
 max size of driver memory is            800000
 size of driver memory is                593474
 size of scratch memory is             15166112
 max col of scratch BK array               1296
 max len of scratch array in speh3          155
 max len of scratch index in speh4           18
 max int batch size is                      520
 min int batch size is                       52
 fixed nKL is                                52
 max L of basis functions is                  2
 order of int derivative is                   0
 number of shells is                        113
 number of basis is                         368
 number of cartesian basis is               368
 number of contracted shell pairs          4786
 number of primitive shell pairs          15432
 maxK2 (contraction) of shell pair           36
 max number of K2 of shell pair               1
 max number of CS2 of shell pair            687
 max number of PS2 of shell pair           3840
 mem total for path MDJ                  139560
 -------------------------------------------------------
 Smallest overlap matrix eigenvalue = 4.42E-07
 Linear dependence detected in AO basis
 Number of orthogonalized atomic orbitals = 367
 Maximum deviation from orthogonality = 2.465E-10

 Scale SEOQF with 1.000000e-02/1.000000e-01/1.000000e-01

 Standard Electronic Orientation quadrupole field applied
 Nucleus-field energy     =     0.0000000354 hartrees
 Guess from superposition of atomic densities
 Warning:  Energy on first SCF cycle will be non-variational
 A restricted Hartree-Fock SCF calculation will be
 performed using Pulay DIIS extrapolation
 SCF converges when DIIS error is below 1.0E-08
 -------------------------------------------------------
 OpenMP Integral computing Module                
 Release: version 1.0, May 2013, Q-Chem Inc. Pittsburgh 
 -------------------------------------------------------
 ---------------------------------------
  Cycle       Energy         DIIS Error
 ---------------------------------------
    1   -1391.0919627123      3.92E-02
    2   -1384.6438393287      4.61E-03
    3   -1384.9090923371      2.74E-03
    4   -1384.9987290372      5.13E-04
    5   -1385.0037291858      1.95E-04
    6   -1385.0043876254      4.80E-05
    7   -1385.0044499965      2.00E-05
    8   -1385.0044662001      6.45E-06
    9   -1385.0044685327      2.93E-06
   10   -1385.0044689766      1.20E-06
   11   -1385.0044690723      5.35E-07
   12   -1385.0044690962      2.43E-07
   13   -1385.0044691002      9.64E-08
   14   -1385.0044691009      3.78E-08
   15   -1385.0044691010      1.28E-08
   16   -1385.0044691010      3.84E-09 Convergence criterion met
 ---------------------------------------
 SCF time:  CPU 229.38 s  wall 59.69 s
 SCF   energy in the final basis set = -1385.0044691010
 Total energy in the final basis set = -1385.0044691010


 ------------------------------------------------------------------------------

   CCMAN2: suite of methods based on coupled cluster
           and equation of motion theories.

   Components:
   * libvmm-1.3-trunk
     by Evgeny Epifanovsky, Ilya Kaliman.
   * libtensor-2.5-release
     by Evgeny Epifanovsky, Michael Wormit, Dmitry Zuev, Sam Manzer, 
        Ilya Kaliman.
   * libcc-2.5-trunk
     by Evgeny Epifanovsky, Arik Landau, Tomasz Kus, Kirill Khistyaev, 
        Dmitry Zuev, Prashant Manohar, Xintian Feng, Anna Krylov, 
        Matthew Goldey, Alec White, Thomas Jagau, Kaushik Nanda, 
        Anastasia Gunina, Alexander Kunitsa, Joonho Lee.

   CCMAN original authors:
   Anna I. Krylov, C. David Sherrill, Steven R. Gwaltney,
   Edward F. C. Byrd (2000)
   Sergey V. Levchenko, Lyudmila V. Slipchenko, Tao Wang,
   Ana-Maria C. Cristian (2003)
   Piotr A. Pieniazek, C. Melania Oana, Evgeny Epifanovsky (2007)
   Prashant Manohar (2009)

 ------------------------------------------------------------------------------


================================================================================
This program uses libxm tensor contraction code.
See https://github.com/ilyak/libxm for more info.
libxm is (c) Ilya Kaliman 2014-2016.
================================================================================

 Calculation will run on 4 cores using libxm for tensor contractions

 
 Alpha MOs, Restricted
 -- Occupied --                  
-104.85  -26.36  -26.35  -26.35  -20.63  -20.57  -15.64  -11.52
  1 A     2 A     3 A     4 A     5 A     6 A     7 A     8 A                  
-11.436 -11.331 -11.329 -11.303 -11.288 -11.276 -11.272 -11.266
  9 A    10 A    11 A    12 A    13 A    14 A    15 A    16 A                  
-11.243 -11.234 -10.579  -8.048  -8.045  -8.045  -1.737  -1.641
 17 A    18 A    19 A    20 A    21 A    22 A    23 A    24 A                  
 -1.636  -1.495  -1.387  -1.293  -1.213  -1.147  -1.093  -1.071
 25 A    26 A    27 A    28 A    29 A    30 A    31 A    32 A                  
 -1.026  -0.979  -0.964  -0.889  -0.886  -0.835  -0.826  -0.824
 33 A    34 A    35 A    36 A    37 A    38 A    39 A    40 A                  
 -0.804  -0.802  -0.763  -0.722  -0.716  -0.712  -0.711  -0.709
 41 A    42 A    43 A    44 A    45 A    46 A    47 A    48 A                  
 -0.680  -0.667  -0.663  -0.652  -0.648  -0.644  -0.623  -0.616
 49 A    50 A    51 A    52 A    53 A    54 A    55 A    56 A                  
 -0.602  -0.591  -0.568  -0.562  -0.559  -0.540  -0.531  -0.516
 57 A    58 A    59 A    60 A    61 A    62 A    63 A    64 A                  
 -0.504  -0.499  -0.479  -0.476  -0.471  -0.463  -0.368  -0.336
 65 A    66 A    67 A    68 A    69 A    70 A    71 A    72 A                  
 -- Virtual --                   
  0.052   0.073   0.077   0.077   0.088   0.091   0.091   0.095
 73 A    74 A    75 A    76 A    77 A    78 A    79 A    80 A                  
  0.099   0.108   0.111   0.111   0.121   0.126   0.127   0.131
 81 A    82 A    83 A    84 A    85 A    86 A    87 A    88 A                  
  0.138   0.143   0.145   0.152   0.159   0.160   0.163   0.182
 89 A    90 A    91 A    92 A    93 A    94 A    95 A    96 A                  
  0.182   0.186   0.193   0.198   0.201   0.208   0.210   0.210
 97 A    98 A    99 A   100 A   101 A   102 A   103 A   104 A                  
  0.227   0.228   0.236   0.247   0.249   0.249   0.257   0.269
105 A   106 A   107 A   108 A   109 A   110 A   111 A   112 A                  
  0.270   0.274   0.284   0.292   0.295   0.305   0.307   0.316
113 A   114 A   115 A   116 A   117 A   118 A   119 A   120 A                  
  0.328   0.330   0.331   0.334   0.335   0.341   0.343   0.361
121 A   122 A   123 A   124 A   125 A   126 A   127 A   128 A                  
  0.362   0.370   0.372   0.379   0.382   0.390   0.392   0.403
129 A   130 A   131 A   132 A   133 A   134 A   135 A   136 A                  
  0.405   0.412   0.415   0.417   0.426   0.428   0.436   0.439
137 A   138 A   139 A   140 A   141 A   142 A   143 A   144 A                  
  0.440   0.448   0.448   0.460   0.465   0.470   0.477   0.482
145 A   146 A   147 A   148 A   149 A   150 A   151 A   152 A                  
  0.486   0.489   0.491   0.506   0.510   0.511   0.519   0.526
153 A   154 A   155 A   156 A   157 A   158 A   159 A   160 A                  
  0.550   0.557   0.566   0.570   0.584   0.587   0.593   0.600
161 A   162 A   163 A   164 A   165 A   166 A   167 A   168 A                  
  0.607   0.637   0.659   0.685   0.690   0.735   0.762   0.797
169 A   170 A   171 A   172 A   173 A   174 A   175 A   176 A                  
  0.806   0.821   0.842   0.848   0.861   0.878   0.901   0.911
177 A   178 A   179 A   180 A   181 A   182 A   183 A   184 A                  
  0.919   0.925   0.926   0.929   0.931   0.949   0.958   0.960
185 A   186 A   187 A   188 A   189 A   190 A   191 A   192 A                  
  0.980   0.992   1.011   1.015   1.023   1.031   1.056   1.057
193 A   194 A   195 A   196 A   197 A   198 A   199 A   200 A                  
  1.072   1.085   1.091   1.100   1.113   1.139   1.152   1.161
201 A   202 A   203 A   204 A   205 A   206 A   207 A   208 A                  
  1.171   1.179   1.193   1.199   1.201   1.220   1.224   1.245
209 A   210 A   211 A   212 A   213 A   214 A   215 A   216 A                  
  1.253   1.279   1.283   1.296   1.300   1.331   1.348   1.360
217 A   218 A   219 A   220 A   221 A   222 A   223 A   224 A                  
  1.375   1.383   1.395   1.412   1.427   1.429   1.439   1.456
225 A   226 A   227 A   228 A   229 A   230 A   231 A   232 A                  
  1.467   1.473   1.477   1.495   1.511   1.531   1.549   1.566
233 A   234 A   235 A   236 A   237 A   238 A   239 A   240 A                  
  1.597   1.601   1.615   1.631   1.639   1.671   1.671   1.705
241 A   242 A   243 A   244 A   245 A   246 A   247 A   248 A                  
  1.712   1.722   1.729   1.755   1.777   1.781   1.786   1.813
249 A   250 A   251 A   252 A   253 A   254 A   255 A   256 A                  
  1.838   1.874   1.875   1.909   1.921   1.932   1.939   1.967
257 A   258 A   259 A   260 A   261 A   262 A   263 A   264 A                  
  1.969   1.977   1.991   2.000   2.012   2.034   2.038   2.074
265 A   266 A   267 A   268 A   269 A   270 A   271 A   272 A                  
  2.084   2.092   2.108   2.115   2.115   2.120   2.127   2.153
273 A   274 A   275 A   276 A   277 A   278 A   279 A   280 A                  
  2.159   2.172   2.187   2.194   2.203   2.224   2.255   2.261
281 A   282 A   283 A   284 A   285 A   286 A   287 A   288 A                  
  2.271   2.291   2.293   2.316   2.332   2.333   2.344   2.346
289 A   290 A   291 A   292 A   293 A   294 A   295 A   296 A                  
  2.370   2.382   2.389   2.402   2.421   2.422   2.449   2.464
297 A   298 A   299 A   300 A   301 A   302 A   303 A   304 A                  
  2.488   2.494   2.502   2.543   2.564   2.570   2.583   2.595
305 A   306 A   307 A   308 A   309 A   310 A   311 A   312 A                  
  2.596   2.601   2.665   2.687   2.710   2.715   2.737   2.743
313 A   314 A   315 A   316 A   317 A   318 A   319 A   320 A                  
  2.801   2.814   2.834   2.846   2.941   2.961   2.965   2.974
321 A   322 A   323 A   324 A   325 A   326 A   327 A   328 A                  
  3.023   3.062   3.086   3.088   3.111   3.112   3.119   3.144
329 A   330 A   331 A   332 A   333 A   334 A   335 A   336 A                  
  3.211   3.260   3.280   3.307   3.403   3.469   3.513   3.518
337 A   338 A   339 A   340 A   341 A   342 A   343 A   344 A                  
  3.603   3.630   3.670   3.722   3.814   4.608   4.661   4.681
345 A   346 A   347 A   348 A   349 A   350 A   351 A   352 A                  
  4.725   4.741   4.782   4.797   4.843   4.850   4.893   4.966
353 A   354 A   355 A   356 A   357 A   358 A   359 A   360 A                  
  4.998   5.039   5.109   5.209   5.923   6.523   7.356
361 A   362 A   363 A   364 A   365 A   366 A   367 A                          
 
 Beta MOs, Restricted
 -- Occupied --                  
-104.85  -26.36  -26.35  -26.35  -20.63  -20.57  -15.64  -11.52
  1 A     2 A     3 A     4 A     5 A     6 A     7 A     8 A                  
-11.436 -11.331 -11.329 -11.303 -11.288 -11.276 -11.272 -11.266
  9 A    10 A    11 A    12 A    13 A    14 A    15 A    16 A                  
-11.243 -11.234 -10.579  -8.048  -8.045  -8.045  -1.737  -1.641
 17 A    18 A    19 A    20 A    21 A    22 A    23 A    24 A                  
 -1.636  -1.495  -1.387  -1.293  -1.213  -1.147  -1.093  -1.071
 25 A    26 A    27 A    28 A    29 A    30 A    31 A    32 A                  
 -1.026  -0.979  -0.964  -0.889  -0.886  -0.835  -0.826  -0.824
 33 A    34 A    35 A    36 A    37 A    38 A    39 A    40 A                  
 -0.804  -0.802  -0.763  -0.722  -0.716  -0.712  -0.711  -0.709
 41 A    42 A    43 A    44 A    45 A    46 A    47 A    48 A                  
 -0.680  -0.667  -0.663  -0.652  -0.648  -0.644  -0.623  -0.616
 49 A    50 A    51 A    52 A    53 A    54 A    55 A    56 A                  
 -0.602  -0.591  -0.568  -0.562  -0.559  -0.540  -0.531  -0.516
 57 A    58 A    59 A    60 A    61 A    62 A    63 A    64 A                  
 -0.504  -0.499  -0.479  -0.476  -0.471  -0.463  -0.368  -0.336
 65 A    66 A    67 A    68 A    69 A    70 A    71 A    72 A                  
 -- Virtual --                   
  0.052   0.073   0.077   0.077   0.088   0.091   0.091   0.095
 73 A    74 A    75 A    76 A    77 A    78 A    79 A    80 A                  
  0.099   0.108   0.111   0.111   0.121   0.126   0.127   0.131
 81 A    82 A    83 A    84 A    85 A    86 A    87 A    88 A                  
  0.138   0.143   0.145   0.152   0.159   0.160   0.163   0.182
 89 A    90 A    91 A    92 A    93 A    94 A    95 A    96 A                  
  0.182   0.186   0.193   0.198   0.201   0.208   0.210   0.210
 97 A    98 A    99 A   100 A   101 A   102 A   103 A   104 A                  
  0.227   0.228   0.236   0.247   0.249   0.249   0.257   0.269
105 A   106 A   107 A   108 A   109 A   110 A   111 A   112 A                  
  0.270   0.274   0.284   0.292   0.295   0.305   0.307   0.316
113 A   114 A   115 A   116 A   117 A   118 A   119 A   120 A                  
  0.328   0.330   0.331   0.334   0.335   0.341   0.343   0.361
121 A   122 A   123 A   124 A   125 A   126 A   127 A   128 A                  
  0.362   0.370   0.372   0.379   0.382   0.390   0.392   0.403
129 A   130 A   131 A   132 A   133 A   134 A   135 A   136 A                  
  0.405   0.412   0.415   0.417   0.426   0.428   0.436   0.439
137 A   138 A   139 A   140 A   141 A   142 A   143 A   144 A                  
  0.440   0.448   0.448   0.460   0.465   0.470   0.477   0.482
145 A   146 A   147 A   148 A   149 A   150 A   151 A   152 A                  
  0.486   0.489   0.491   0.506   0.510   0.511   0.519   0.526
153 A   154 A   155 A   156 A   157 A   158 A   159 A   160 A                  
  0.550   0.557   0.566   0.570   0.584   0.587   0.593   0.600
161 A   162 A   163 A   164 A   165 A   166 A   167 A   168 A                  
  0.607   0.637   0.659   0.685   0.690   0.735   0.762   0.797
169 A   170 A   171 A   172 A   173 A   174 A   175 A   176 A                  
  0.806   0.821   0.842   0.848   0.861   0.878   0.901   0.911
177 A   178 A   179 A   180 A   181 A   182 A   183 A   184 A                  
  0.919   0.925   0.926   0.929   0.931   0.949   0.958   0.960
185 A   186 A   187 A   188 A   189 A   190 A   191 A   192 A                  
  0.980   0.992   1.011   1.015   1.023   1.031   1.056   1.057
193 A   194 A   195 A   196 A   197 A   198 A   199 A   200 A                  
  1.072   1.085   1.091   1.100   1.113   1.139   1.152   1.161
201 A   202 A   203 A   204 A   205 A   206 A   207 A   208 A                  
  1.171   1.179   1.193   1.199   1.201   1.220   1.224   1.245
209 A   210 A   211 A   212 A   213 A   214 A   215 A   216 A                  
  1.253   1.279   1.283   1.296   1.300   1.331   1.348   1.360
217 A   218 A   219 A   220 A   221 A   222 A   223 A   224 A                  
  1.375   1.383   1.395   1.412   1.427   1.429   1.439   1.456
225 A   226 A   227 A   228 A   229 A   230 A   231 A   232 A                  
  1.467   1.473   1.477   1.495   1.511   1.531   1.549   1.566
233 A   234 A   235 A   236 A   237 A   238 A   239 A   240 A                  
  1.597   1.601   1.615   1.631   1.639   1.671   1.671   1.705
241 A   242 A   243 A   244 A   245 A   246 A   247 A   248 A                  
  1.712   1.722   1.729   1.755   1.777   1.781   1.786   1.813
249 A   250 A   251 A   252 A   253 A   254 A   255 A   256 A                  
  1.838   1.874   1.875   1.909   1.921   1.932   1.939   1.967
257 A   258 A   259 A   260 A   261 A   262 A   263 A   264 A                  
  1.969   1.977   1.991   2.000   2.012   2.034   2.038   2.074
265 A   266 A   267 A   268 A   269 A   270 A   271 A   272 A                  
  2.084   2.092   2.108   2.115   2.115   2.120   2.127   2.153
273 A   274 A   275 A   276 A   277 A   278 A   279 A   280 A                  
  2.159   2.172   2.187   2.194   2.203   2.224   2.255   2.261
281 A   282 A   283 A   284 A   285 A   286 A   287 A   288 A                  
  2.271   2.291   2.293   2.316   2.332   2.333   2.344   2.346
289 A   290 A   291 A   292 A   293 A   294 A   295 A   296 A                  
  2.370   2.382   2.389   2.402   2.421   2.422   2.449   2.464
297 A   298 A   299 A   300 A   301 A   302 A   303 A   304 A                  
  2.488   2.494   2.502   2.543   2.564   2.570   2.583   2.595
305 A   306 A   307 A   308 A   309 A   310 A   311 A   312 A                  
  2.596   2.601   2.665   2.687   2.710   2.715   2.737   2.743
313 A   314 A   315 A   316 A   317 A   318 A   319 A   320 A                  
  2.801   2.814   2.834   2.846   2.941   2.961   2.965   2.974
321 A   322 A   323 A   324 A   325 A   326 A   327 A   328 A                  
  3.023   3.062   3.086   3.088   3.111   3.112   3.119   3.144
329 A   330 A   331 A   332 A   333 A   334 A   335 A   336 A                  
  3.211   3.260   3.280   3.307   3.403   3.469   3.513   3.518
337 A   338 A   339 A   340 A   341 A   342 A   343 A   344 A                  
  3.603   3.630   3.670   3.722   3.814   4.608   4.661   4.681
345 A   346 A   347 A   348 A   349 A   350 A   351 A   352 A                  
  4.725   4.741   4.782   4.797   4.843   4.850   4.893   4.966
353 A   354 A   355 A   356 A   357 A   358 A   359 A   360 A                  
  4.998   5.039   5.109   5.209   5.923   6.523   7.356
361 A   362 A   363 A   364 A   365 A   366 A   367 A                          

 Occupation and symmetry of molecular orbitals

 Point group: C1 (1 irreducible representation).

                           A     All 
 -------------------------------------
 All molecular orbitals:
  - Alpha                  367   367 
  - Beta                   367   367 
 -------------------------------------
 Alpha orbitals:
  - Frozen occupied        22    22  
  - Active occupied        50    50  
  - Active virtual         295   295 
  - Frozen virtual         0     0   
 -------------------------------------
 Beta orbitals:
  - Frozen occupied        22    22  
  - Active occupied        50    50  
  - Active virtual         295   295 
  - Frozen virtual         0     0   
 -------------------------------------

 Import integrals:   CPU 0.00 s  wall 0.00 s

 Import integrals:   CPU 1554.79 s  wall 677.63 s

 MP2 amplitudes:   CPU 24.63 s  wall 72.47 s

           CCSD T amplitudes will be solved using DIIS.

           Start     Size      MaxIter   EConv     TConv     
           3         7         100       1.00e-06  1.00e-04  
 ------------------------------------------------------------------------------
           Energy (a.u.)   Ediff      Tdiff       Comment
 ------------------------------------------------------------------------------
         -1387.59397685                           
     1   -1387.58273899   1.12e-02   1.48e+00     Step took 51.52.
     2   -1387.66158501   7.88e-02   2.01e-01     
     3   -1387.66054730   1.04e-03   7.43e-02     
     4   -1387.66831528   7.77e-03   2.42e-02     Switched to DIIS steps.
     5   -1387.67093631   2.62e-03   1.65e-02     
     6   -1387.67108059   1.44e-04   3.25e-03     
     7   -1387.67106240   1.82e-05   1.67e-03     
     8   -1387.67105321   9.19e-06   4.24e-04     
     9   -1387.67105368   4.75e-07   1.62e-04     
    10   -1387.67105355   1.33e-07   4.14e-05     
 ------------------------------------------------------------------------------
         -1387.67105355                           CCSD T converged.


 ------------------------------------------------------------------------------
 == (T) code is based on LIBPT ==
 == Author: Ilya Kaliman, 2016 ==

 Starting (T) calculation...
 (T) calculation completed in 69773 sec
 ------------------------------------------------------------------------------

 SCF energy                 = -1385.00446910
 MP2 energy                 = -1387.59397685
 CCSD correlation energy     =    -2.66658445
 CCSD total energy           = -1387.67105355
 CCSD(T) correlation energy =    -0.09920599
 CCSD(T) total energy       = -1387.77025954

 CCSD  T1^2 = 0.0364  T2^2 = 0.8846  Leading amplitudes:

 Amplitude    Orbitals with energies
 -0.0231       54 (A) A                  ->    106 (A) A                  
              -0.6442                          0.2281                     
 -0.0231       54 (A) B                  ->    106 (A) B                  
              -0.6442                          0.2281                     
 -0.0179       60 (A) A                  ->    106 (A) A                  
              -0.5624                          0.2281                     
 -0.0179       60 (A) B                  ->    106 (A) B                  
              -0.5624                          0.2281                     

 Amplitude    Orbitals with energies
 -0.0494       71 (A) A      71 (A) B    ->    75 (A) A      75 (A) B     
              -0.3678       -0.3678            0.0767        0.0767       
  0.0494       71 (A) A      71 (A) B    ->    75 (A) B      75 (A) A     
              -0.3678       -0.3678            0.0767        0.0767       
  0.0494       71 (A) B      71 (A) A    ->    75 (A) A      75 (A) B     
              -0.3678       -0.3678            0.0767        0.0767       
 -0.0494       71 (A) B      71 (A) A    ->    75 (A) B      75 (A) A     
              -0.3678       -0.3678            0.0767        0.0767       

 CCSD calculation:   CPU 345613.52 s  wall 105686.39 s

 Total ccman2 time:   CPU 347218.07 s  wall 106457.14 s

 
 --------------------------------------------------------------
 
                    Orbital Energies (a.u.)
 --------------------------------------------------------------
 
 Alpha MOs
 -- Occupied --
******* -26.356 -26.352 -26.352 -20.632 -20.568 -15.637 -11.521
-11.436 -11.331 -11.329 -11.303 -11.288 -11.276 -11.272 -11.266
-11.243 -11.234 -10.579  -8.048  -8.045  -8.045  -1.737  -1.641
 -1.636  -1.495  -1.387  -1.293  -1.213  -1.147  -1.093  -1.071
 -1.026  -0.979  -0.964  -0.889  -0.886  -0.835  -0.826  -0.824
 -0.804  -0.802  -0.763  -0.722  -0.716  -0.712  -0.711  -0.709
 -0.680  -0.667  -0.663  -0.652  -0.648  -0.644  -0.623  -0.616
 -0.602  -0.591  -0.568  -0.562  -0.559  -0.540  -0.531  -0.516
 -0.504  -0.499  -0.479  -0.476  -0.471  -0.463  -0.368  -0.336
 -- Virtual --
  0.052   0.073   0.077   0.077   0.088   0.091   0.091   0.095
  0.099   0.108   0.111   0.111   0.121   0.126   0.127   0.131
  0.138   0.143   0.145   0.152   0.159   0.160   0.163   0.182
  0.182   0.186   0.193   0.198   0.201   0.208   0.210   0.210
  0.227   0.228   0.236   0.247   0.249   0.249   0.257   0.269
  0.270   0.274   0.284   0.292   0.295   0.305   0.307   0.316
  0.328   0.330   0.331   0.334   0.335   0.341   0.343   0.361
  0.362   0.370   0.372   0.379   0.382   0.390   0.392   0.403
  0.405   0.412   0.415   0.417   0.426   0.428   0.436   0.439
  0.440   0.448   0.448   0.460   0.465   0.470   0.477   0.482
  0.486   0.489   0.491   0.506   0.510   0.511   0.519   0.526
  0.550   0.557   0.566   0.570   0.584   0.587   0.593   0.600
  0.607   0.637   0.659   0.685   0.690   0.735   0.762   0.797
  0.806   0.821   0.842   0.848   0.861   0.878   0.901   0.911
  0.919   0.925   0.926   0.929   0.931   0.949   0.958   0.960
  0.980   0.992   1.011   1.015   1.023   1.031   1.056   1.057
  1.072   1.085   1.091   1.100   1.113   1.139   1.152   1.161
  1.171   1.179   1.193   1.199   1.201   1.220   1.224   1.245
  1.253   1.279   1.283   1.296   1.300   1.331   1.348   1.360
  1.375   1.383   1.395   1.412   1.427   1.429   1.439   1.456
  1.467   1.473   1.477   1.495   1.511   1.531   1.549   1.566
  1.597   1.601   1.615   1.631   1.639   1.671   1.671   1.705
  1.712   1.722   1.729   1.755   1.777   1.781   1.786   1.813
  1.838   1.874   1.875   1.909   1.921   1.932   1.939   1.967
  1.969   1.977   1.991   2.000   2.012   2.034   2.038   2.074
  2.084   2.092   2.108   2.115   2.115   2.120   2.127   2.153
  2.159   2.172   2.187   2.194   2.203   2.224   2.255   2.261
  2.271   2.291   2.293   2.316   2.332   2.333   2.344   2.346
  2.370   2.382   2.389   2.402   2.421   2.422   2.449   2.464
  2.488   2.494   2.502   2.543   2.564   2.570   2.583   2.595
  2.596   2.601   2.665   2.687   2.710   2.715   2.737   2.743
  2.801   2.814   2.834   2.846   2.941   2.961   2.965   2.974
  3.023   3.062   3.086   3.088   3.111   3.112   3.119   3.144
  3.211   3.260   3.280   3.307   3.403   3.469   3.513   3.518
  3.603   3.630   3.670   3.722   3.814   4.608   4.661   4.681
  4.725   4.741   4.782   4.797   4.843   4.850   4.893   4.966
  4.998   5.039   5.109   5.209   5.923   6.523   7.356
 --------------------------------------------------------------
 
          Ground-State Mulliken Net Atomic Charges

     Atom                 Charge (a.u.)
  ----------------------------------------
      1 C                    -0.257442
      2 N                    -0.931089
      3 C                     0.745853
      4 O                    -0.584979
      5 O                    -0.480574
      6 C                     0.072085
      7 C                    -0.278545
      8 C                    -0.689532
      9 C                     0.291897
     10 C                    -0.781010
     11 C                    -0.067409
     12 C                    -0.099297
     13 C                    -0.728275
     14 H                     0.501105
     15 H                     0.212436
     16 H                     0.212444
     17 H                     0.204242
     18 H                     0.204241
     19 H                     0.196633
     20 H                     0.204277
     21 H                     0.196637
     22 H                     0.345204
     23 Cl                    0.268631
     24 H                     0.255220
     25 C                     1.871023
     26 H                     0.287213
     27 F                    -0.369897
     28 F                    -0.369878
     29 F                    -0.431215
  ----------------------------------------
  Sum of atomic charges =    -0.000000

 -----------------------------------------------------------------
                    Cartesian Multipole Moments
 -----------------------------------------------------------------
    Charge (ESU x 10^10)
                -0.0000
    Dipole Moment (Debye)
         X      -4.4907      Y      -3.2182      Z       0.0001
       Tot       5.5247
    Quadrupole Moments (Debye-Ang)
        XX    -100.8943     XY       0.7102     YY    -117.7424
        XZ       0.0007     YZ       0.0004     ZZ    -113.7760
    Octopole Moments (Debye-Ang^2)
       XXX     -78.6034    XXY       5.5340    XYY      -9.5916
       YYY      17.6188    XXZ      -0.0052    XYZ       0.0005
       YYZ       0.0020    XZZ       0.0982    YZZ      15.0722
       ZZZ      -0.0012
    Hexadecapole Moments (Debye-Ang^3)
      XXXX   -7437.0704   XXXY      55.0509   XXYY   -1751.2631
      XYYY     121.6194   YYYY   -2014.0415   XXXZ      -0.0210
      XXYZ       0.0062   XYYZ      -0.0041   YYYZ      -0.0027
      XXZZ   -1379.8176   XYZZ      27.6836   YYZZ    -378.4500
      XZZZ       0.0029   YZZZ       0.0032   ZZZZ    -201.4960
 -----------------------------------------------------------------
Archival summary:
1\1\r4453\SP\ProcedureUnspecified\6-31+G*\l13211111\hio507\TueDec1017:32:492019TueDec1017:32:492019\0\\#,ProcedureUnspecified,6-31+G*,\\0,1\Cl\C,1,1.73939\C,2,1.38476,1,119.515\H,3,1.08292,2,120.928,1,-0,0\C,2,1.38594,1,118.927,3,180,0\H,5,1.08444,2,119.504,1,0,0\C,3,1.3906,2,117.603,1,180,0\C,7,1.38652,3,122.661,2,-0,0\H,8,1.07897,7,120.867,3,180,0\C,5,1.39685,2,119.902,1,-180,0\N,10,1.39901,5,117.063,2,-179.999,0\H,11,1.00925,10,117.358,5,-0.004761,0\C,11,1.37346,10,127.494,5,-179.981,0\O,13,1.20287,11,126.466,10,-0.0157203,0\O,13,1.34295,11,108.808,10,179.985,0\C,15,1.43652,13,115.352,11,179.999,0\H,16,1.09267,15,108.794,13,-58.6293,0\H,16,1.09268,15,108.794,13,58.6432,0\C,7,1.50521,3,117.337,2,-179.997,0\F,19,1.33488,7,112.717,3,-179.984,0\F,19,1.34278,7,111.29,3,59.3268,0\F,19,1.34278,7,111.29,3,-59.292,0\C,16,1.51326,15,107.689,13,-179.993,0\H,23,1.09337,16,109.01,15,58.2386,0\H,23,1.09337,16,109.01,15,-58.2354,0\C,23,1.52631,16,110.898,15,-179.999,0\H,26,1.09062,23,111.024,16,-179.995,0\H,26,1.09268,23,111.299,16,60.0877,0\H,26,1.09268,23,111.299,16,-60.0789,0\\HF=-1385.00447\\@

 Total job time:  106519.67s(wall), 347448.56s(cpu) 
 Tue Dec 10 17:32:49 2019

        *************************************************************
        *                                                           *
        *  Thank you very much for using Q-Chem.  Have a nice day.  *
        *                                                           *
        *************************************************************


0 sent ACK to 0 
now end server 0 ... 
