 Entering Gaussian System, Link 0=/apps/gaussian/g16c01/g16/g16
 Initial command:
 /apps/gaussian/g16c01/g16/l1.exe "/jobfs/11098936.gadi-pbs/Gau-2213203.inp" -scrdir="/jobfs/11098936.gadi-pbs/"
 Entering Link 1 = /apps/gaussian/g16c01/g16/l1.exe PID=   2213204.
  
 Copyright (c) 1988-2019, Gaussian, Inc.  All Rights Reserved.
  
 This is part of the Gaussian(R) 16 program.  It is based on
 the Gaussian(R) 09 system (copyright 2009, Gaussian, Inc.),
 the Gaussian(R) 03 system (copyright 2003, Gaussian, Inc.),
 the Gaussian(R) 98 system (copyright 1998, Gaussian, Inc.),
 the Gaussian(R) 94 system (copyright 1995, Gaussian, Inc.),
 the Gaussian 92(TM) system (copyright 1992, Gaussian, Inc.),
 the Gaussian 90(TM) system (copyright 1990, Gaussian, Inc.),
 the Gaussian 88(TM) system (copyright 1988, Gaussian, Inc.),
 the Gaussian 86(TM) system (copyright 1986, Carnegie Mellon
 University), and the Gaussian 82(TM) system (copyright 1983,
 Carnegie Mellon University). Gaussian is a federally registered
 trademark of Gaussian, Inc.
  
 This software contains proprietary and confidential information,
 including trade secrets, belonging to Gaussian, Inc.
  
 This software is provided under written license and may be
 used, copied, transmitted, or stored only in accord with that
 written license.
  
 The following legend is applicable only to US Government
 contracts under FAR:
  
                    RESTRICTED RIGHTS LEGEND
  
 Use, reproduction and disclosure by the US Government is
 subject to restrictions as set forth in subparagraphs (a)
 and (c) of the Commercial Computer Software - Restricted
 Rights clause in FAR 52.227-19.
  
 Gaussian, Inc.
 340 Quinnipiac St., Bldg. 40, Wallingford CT 06492
  
  
 ---------------------------------------------------------------
 Warning -- This program may not be used in any manner that
 competes with the business of Gaussian, Inc. or will provide
 assistance to any competitor of Gaussian, Inc.  The licensee
 of this program is prohibited from giving any competitor of
 Gaussian, Inc. access to this program.  By using this program,
 the user acknowledges that Gaussian, Inc. is engaged in the
 business of creating and licensing software in the field of
 computational chemistry and represents and warrants to the
 licensee that it is not a competitor of Gaussian, Inc. and that
 it will not use this program in any manner prohibited above.
 ---------------------------------------------------------------
  

 Cite this work as:
 Gaussian 16, Revision C.01,
 M. J. Frisch, G. W. Trucks, H. B. Schlegel, G. E. Scuseria, 
 M. A. Robb, J. R. Cheeseman, G. Scalmani, V. Barone, 
 G. A. Petersson, H. Nakatsuji, X. Li, M. Caricato, A. V. Marenich, 
 J. Bloino, B. G. Janesko, R. Gomperts, B. Mennucci, H. P. Hratchian, 
 J. V. Ortiz, A. F. Izmaylov, J. L. Sonnenberg, D. Williams-Young, 
 F. Ding, F. Lipparini, F. Egidi, J. Goings, B. Peng, A. Petrone, 
 T. Henderson, D. Ranasinghe, V. G. Zakrzewski, J. Gao, N. Rega, 
 G. Zheng, W. Liang, M. Hada, M. Ehara, K. Toyota, R. Fukuda, 
 J. Hasegawa, M. Ishida, T. Nakajima, Y. Honda, O. Kitao, H. Nakai, 
 T. Vreven, K. Throssell, J. A. Montgomery, Jr., J. E. Peralta, 
 F. Ogliaro, M. J. Bearpark, J. J. Heyd, E. N. Brothers, K. N. Kudin, 
 V. N. Staroverov, T. A. Keith, R. Kobayashi, J. Normand, 
 K. Raghavachari, A. P. Rendell, J. C. Burant, S. S. Iyengar, 
 J. Tomasi, M. Cossi, J. M. Millam, M. Klene, C. Adamo, R. Cammi, 
 J. W. Ochterski, R. L. Martin, K. Morokuma, O. Farkas, 
 J. B. Foresman, and D. J. Fox, Gaussian, Inc., Wallingford CT, 2019.
 
 ******************************************
 Gaussian 16:  ES64L-G16RevC.01  3-Jul-2019
                10-Sep-2020 
 ******************************************
 %NprocShared=6
 Will use up to    6 processors via shared memory.
 %Mem=192000MB
 %chk=NM3CA_c2.DSDPBEP86_AUG-cc-PVTZ.chk
 ---------------------------------------------------------------------
 # DSDPBEP86/AUG-cc-PVTZ SCF=Tight INT(grid=ultrafine) MaxDisk=60000MB
 ---------------------------------------------------------------------
 1/38=1,172=1/1;
 2/12=2,17=6,18=5,40=1/2;
 3/5=16,6=1,7=10,11=9,25=1,30=1,74=-77,75=-5/1,2,3;
 4//1;
 5/5=2,32=2,38=5/2;
 8/10=1/1;
 9/16=-3/6;
 6/7=2,8=2,9=2,10=2/1;
 99/5=1,9=1/99;
 ------------------------------
 NM3CA_c2.DSDPBEP86_AUG-cc-PVTZ
 ------------------------------
 Symbolic Z-matrix:
 Charge =  0 Multiplicity = 1
 C                    -5.93636   1.48717   0.21397 
 N                    -4.68534   0.87579   0.07956 
 C                    -3.45117   1.47562   0.12622 
 O                    -3.23173   2.64702   0.29163 
 O                    -2.50667   0.53667  -0.0444 
 C                    -1.15177   1.01288  -0.01973 
 C                    -0.24274  -0.17902  -0.22768 
 C                     1.22346   0.24471  -0.21463 
 C                    -7.06158   0.66021   0.14195 
 C                    -8.32712   1.20612   0.27273 
 C                    -8.51499   2.56822   0.47337 
 C                    -7.38488   3.36824   0.54102 
 C                    -6.09857   2.86031   0.41586 
 H                    -4.67235  -0.12279  -0.06653 
 H                    -0.96761   1.50138   0.94019 
 H                    -1.02698   1.76082  -0.80648 
 H                    -0.49336  -0.65604  -1.17904 
 H                    -0.4342   -0.91419   0.55865 
 H                     1.43514   0.96653  -1.00716 
 H                     1.8799   -0.61325  -0.36452 
 H                     1.49458   0.7072    0.7375 
 H                    -6.94618  -0.40767  -0.00769 
 Cl                   -7.58079   5.07755   0.79766 
 H                    -5.24277   3.51529   0.47711 
 C                    -9.52915   0.31447   0.13216 
 H                    -9.50471   2.99219   0.58121 
 F                    -10.56104   0.74587   0.86706 
 F                    -9.95346   0.25926  -1.14082 
 F                    -9.2664   -0.94546   0.50717 
 
                          Input orientation:                          
 ---------------------------------------------------------------------
 Center     Atomic      Atomic             Coordinates (Angstroms)
 Number     Number       Type             X           Y           Z
 ---------------------------------------------------------------------
      1          6           0       -5.936357    1.487169    0.213966
      2          7           0       -4.685339    0.875789    0.079561
      3          6           0       -3.451168    1.475619    0.126223
      4          8           0       -3.231730    2.647023    0.291628
      5          8           0       -2.506670    0.536669   -0.044402
      6          6           0       -1.151770    1.012876   -0.019727
      7          6           0       -0.242737   -0.179022   -0.227680
      8          6           0        1.223461    0.244706   -0.214628
      9          6           0       -7.061580    0.660212    0.141950
     10          6           0       -8.327120    1.206116    0.272727
     11          6           0       -8.514994    2.568217    0.473369
     12          6           0       -7.384883    3.368239    0.541017
     13          6           0       -6.098570    2.860314    0.415861
     14          1           0       -4.672345   -0.122794   -0.066533
     15          1           0       -0.967610    1.501377    0.940191
     16          1           0       -1.026983    1.760819   -0.806481
     17          1           0       -0.493361   -0.656036   -1.179040
     18          1           0       -0.434203   -0.914188    0.558646
     19          1           0        1.435138    0.966531   -1.007161
     20          1           0        1.879899   -0.613246   -0.364515
     21          1           0        1.494575    0.707201    0.737501
     22          1           0       -6.946179   -0.407665   -0.007688
     23         17           0       -7.580787    5.077555    0.797664
     24          1           0       -5.242769    3.515289    0.477109
     25          6           0       -9.529150    0.314467    0.132159
     26          1           0       -9.504715    2.992187    0.581215
     27          9           0      -10.561035    0.745873    0.867060
     28          9           0       -9.953457    0.259262   -1.140820
     29          9           0       -9.266401   -0.945462    0.507169
 ---------------------------------------------------------------------
                    Distance matrix (angstroms):
                    1          2          3          4          5
     1  C    0.000000
     2  N    1.398891   0.000000
     3  C    2.486764   1.373008   0.000000
     4  O    2.943858   2.301135   1.203204   0.000000
     5  O    3.568327   2.208386   1.342690   2.256596   0.000000
     6  C    4.813714   3.537621   2.350035   2.663384   1.436362
     7  C    5.948827   4.576432   3.627273   4.146117   2.381427
     8  C    7.279450   5.949683   4.845976   5.086860   3.745410
     9  C    1.398275   2.386816   3.701380   4.317126   4.560395
    10  C    2.407943   3.661829   4.885591   5.295240   5.867398
    11  C    2.808082   4.205432   5.191976   5.286977   6.363587
    12  C    2.396584   3.703078   4.384995   4.222680   5.670755
    13  C    1.397356   2.459402   3.001668   2.877446   4.302664
    14  H    2.066006   1.009297   2.020731   3.142537   2.263963
    15  H    5.021558   3.866982   2.613669   2.619041   2.066105
    16  H    5.021767   3.866771   2.613034   2.617654   2.066103
    17  H    6.013318   4.637159   3.872504   4.535607   2.600647
    18  H    6.013236   4.637423   3.873014   4.536483   2.600725
    19  H    7.490070   6.216867   5.041797   5.127433   4.080384
    20  H    8.114199   6.746612   5.746690   6.098248   4.546071
    21  H    7.490073   6.217125   5.042272   5.128321   4.080492
    22  H    2.158533   2.601205   3.972379   4.818490   4.538982
    23  Cl   3.991958   5.153070   5.520736   5.007780   6.861151
    24  H    2.159533   2.726854   2.737372   2.198310   4.078037
    25  C    3.780222   4.876510   6.187905   6.717421   7.028212
    26  H    3.890133   5.287455   6.257190   6.289145   7.442688
    27  F    4.729028   5.929658   7.185512   7.593695   8.108473
    28  F    4.413649   5.442656   6.735331   7.275639   7.532179
    29  F    4.134351   4.948327   6.310602   7.026355   6.942255
                    6          7          8          9         10
     6  C    0.000000
     7  C    1.513343   0.000000
     8  C    2.503955   1.526254   0.000000
     9  C    5.922531   6.880230   8.303114   0.000000
    10  C    7.183907   8.217436   9.611213   1.384450   0.000000
    11  C    7.541837   8.744657  10.035415   2.421308   1.389559
    12  C    6.686843   8.011504   9.188636   2.756300   2.373724
    13  C    5.298452   6.628913   7.800709   2.417202   2.779082
    14  H    3.699512   4.432895   5.909105   2.522897   3.903649
    15  H    1.092699   2.170968   2.777341   6.203323   7.395611
    16  H    1.092690   2.170952   2.777298   6.207030   7.400296
    17  H    2.136066   1.093362   2.165388   6.827813   8.181871
    18  H    2.136116   1.093361   2.165373   6.824551   8.177748
    19  H    2.769344   2.176039   1.092679   8.579540   9.848715
    20  H    3.457480   2.170912   1.090623   9.045897  10.387462
    21  H    2.769472   2.176056   1.092682   8.576986   9.845335
    22  H    5.966009   6.710947   8.198258   1.084468   2.142409
    23  Cl   7.649968   9.084597  10.094352   4.495826   3.977513
    24  H    4.821326   6.256595   7.279240   3.401745   3.858403
    25  C    8.407814   9.306475  10.758427   2.491693   1.503221
    26  H    8.605260   9.823192  11.102962   3.405872   2.161469
    27  F    9.454732  10.417349  11.844643   3.574816   2.356997
    28  F    8.904745   9.763401  11.215237   3.188920   2.353640
    29  F    8.364207   9.085920  10.581810   2.751874   2.359343
                   11         12         13         14         15
    11  C    0.000000
    12  C    1.386277   0.000000
    13  C    2.434694   1.388615   0.000000
    14  H    4.722180   4.462543   3.341520   0.000000
    15  H    7.636692   6.695215   5.333702   4.168511   0.000000
    16  H    7.639386   6.694956   5.331416   4.169434   1.766833
    17  H    8.801867   8.163728   6.806379   4.357285   3.061125
    18  H    8.799636   8.164033   6.808252   4.356489   2.503009
    19  H   10.186388   9.271344   7.897352   6.274772   3.138701
    20  H   10.903098  10.124643   8.736737   6.577327   3.779179
    21  H   10.184529   9.271705   7.899064   6.274255   2.595026
    22  H    3.398304   3.840702   3.402576   2.292365   6.347141
    23  Cl   2.697162   1.739542   2.694234   6.020755   7.519539
    24  H    3.406526   2.148106   1.079416   3.722442   4.748396
    25  C    2.494860   3.753741   4.281437   4.880494   8.681107
    26  H    1.082094   2.153304   3.412705   5.785713   8.673726
    27  F    2.768070   4.131713   4.958633   6.025185   9.623406
    28  F    3.163235   4.369426   4.903966   5.402796   9.306927
    29  F    3.593285   4.706301   4.952517   4.702262   8.662820
                   16         17         18         19         20
    16  H    0.000000
    17  H    2.502947   0.000000
    18  H    3.061147   1.757753   0.000000
    19  H    2.594842   2.526139   3.079496   0.000000
    20  H    3.779084   2.509511   2.509554   1.762527   0.000000
    21  H    3.138829   3.079519   2.526079   1.764832   1.762525
    22  H    6.354312   6.562973   6.556152   8.551833   8.835680
    23  Cl   7.518402   9.328078   9.329082  10.071982  11.101372
    24  H    4.743271   6.534498   6.538288   7.300251   8.275598
    25  C    8.675241   9.181862   9.187466  11.042592  11.457474
    26  H    8.678358   9.879905   9.875953  11.238621  11.979273
    27  F    9.732883  10.368700  10.266628  12.143705  12.575405
    28  F    9.058057   9.504349   9.740706  11.411318  11.890846
    29  F    8.771410   8.938306   8.832403  10.975967  11.185267
                   21         22         23         24         25
    21  H    0.000000
    22  H    8.546612   0.000000
    23  Cl  10.073025   5.580229   0.000000
    24  H    7.303764   4.304208   2.830152   0.000000
    25  C   11.047316   2.685659   5.189029   5.360719   0.000000
    26  H   11.235211   4.295568   2.845541   4.295190   2.715223
    27  F   12.056369   3.893972   5.258342   6.008800   1.338275
    28  F   11.609745   3.282148   5.709924   5.950629   1.342966
    29  F   10.889581   2.436746   6.261183   6.007397   1.340556
                   26         27         28         29
    26  H    0.000000
    27  F    2.498689   0.000000
    28  F    3.261235   2.153491   0.000000
    29  F    3.945549   2.160142   2.153897   0.000000
 Stoichiometry    C11H11ClF3NO2
 Framework group  C1[X(C11H11ClF3NO2)]
 Deg. of freedom    81
 Full point group                 C1      NOp   1
 Largest Abelian subgroup         C1      NOp   1
 Largest concise Abelian subgroup C1      NOp   1
                         Standard orientation:                         
 ---------------------------------------------------------------------
 Center     Atomic      Atomic             Coordinates (Angstroms)
 Number     Number       Type             X           Y           Z
 ---------------------------------------------------------------------
      1          6           0        0.108098   -0.031467   -0.011090
      2          7           0       -1.202464   -0.520666   -0.008753
      3          6           0       -2.367263    0.206203   -0.001318
      4          8           0       -2.461043    1.405724    0.006077
      5          8           0       -3.407464   -0.642793   -0.003547
      6          6           0       -4.705593   -0.028014    0.003232
      7          6           0       -5.737464   -1.135010    0.000638
      8          6           0       -7.151982   -0.561823    0.007584
      9          6           0        1.140807   -0.973953   -0.031177
     10          6           0        2.459110   -0.551210   -0.039409
     11          6           0        2.790806    0.798109   -0.025620
     12          6           0        1.750354    1.713979   -0.005445
     13          6           0        0.415446    1.331604    0.002358
     14          1           0       -1.321603   -1.522880   -0.016078
     15          1           0       -4.796063    0.613444   -0.876732
     16          1           0       -4.791033    0.604591    0.890071
     17          1           0       -5.579394   -1.770915    0.875897
     18          1           0       -5.584492   -1.762141   -0.881827
     19          1           0       -7.326656    0.053404    0.893549
     20          1           0       -7.896838   -1.358469    0.005849
     21          1           0       -7.331832    0.062077   -0.871255
     22          1           0        0.912809   -2.034040   -0.048594
     23         17           0        2.127205    3.412173    0.005853
     24          1           0       -0.367102    2.074970    0.015180
     25          6           0        3.558579   -1.575528    0.000756
     26          1           0        3.821751    1.126633   -0.038010
     27          9           0        4.660841   -1.151610   -0.628760
     28          9           0        3.916631   -1.862384    1.262925
     29          9           0        3.188961   -2.731534   -0.568562
 ---------------------------------------------------------------------
 Rotational constants (GHZ):           0.5744267           0.1482224           0.1205582
 Standard basis: Aug-CC-pVTZ (5D, 7F)
 There are  1269 symmetry adapted cartesian basis functions of A   symmetry.
 There are  1085 symmetry adapted basis functions of A   symmetry.
  1085 basis functions,  1635 primitive gaussians,  1269 cartesian basis functions
    72 alpha electrons       72 beta electrons
       nuclear repulsion energy      1417.9679386519 Hartrees.
 NAtoms=   29 NActive=   29 NUniq=   29 SFac= 1.00D+00 NAtFMM=   60 NAOKFM=F Big=F
 Integral buffers will be    131072 words long.
 Regular integral format.
 Two-electron integral symmetry is turned on.
 Nuclear repulsion after empirical dispersion term =     1417.9463327360 Hartrees.
 One-electron integrals computed using PRISM.
 NBasis=  1085 RedAO= T EigKep=  1.14D-06  NBF=  1085
 NBsUse=  1083 1.00D-06 EigRej=  6.26D-07 NBFU=  1083
 ExpMin= 2.53D-02 ExpMax= 4.56D+05 ExpMxC= 1.44D+03 IAcc=3 IRadAn=         5 AccDes= 0.00D+00
 Harris functional with IExCor= 1004 and IRadAn=       5 diagonalized for initial guess.
 HarFok:  IExCor= 1004 AccDes= 0.00D+00 IRadAn=         5 IDoV= 1 UseB2=F ITyADJ=14
 ICtDFT=  3500011 ScaDFX=  1.000000  1.000000  1.000000  1.000000
 FoFCou: FMM=F IPFlag=           0 FMFlag=      100000 FMFlg1=           0
         NFxFlg=           0 DoJE=T BraDBF=F KetDBF=T FulRan=T
         wScrn=  0.000000 ICntrl=       500 IOpCl=  0 I1Cent=   200000004 NGrid=           0
         NMat0=    1 NMatS0=      1 NMatT0=    0 NMatD0=    1 NMtDS0=    0 NMtDT0=    0
 Petite list used in FoFCou.
 Requested convergence on RMS density matrix=1.00D-08 within 128 cycles.
 Requested convergence on MAX density matrix=1.00D-06.
 Requested convergence on             energy=1.00D-06.
 No special actions if energy rises.
 SCF Done:  E(RDSDPBEP86) =  -1387.62353242     A.U. after   13 cycles
            NFock= 13  Conv=0.73D-08     -V/T= 2.0025
 DoSCS=T DFT=T ScalE2(SS,OS)=  0.220000  0.520000
 ExpMin= 2.53D-02 ExpMax= 4.56D+05 ExpMxC= 1.44D+03 IAcc=3 IRadAn=         5 AccDes= 0.00D+00
 HarFok:  IExCor=  205 AccDes= 0.00D+00 IRadAn=         5 IDoV=-2 UseB2=F ITyADJ=14
 ICtDFT= 12500011 ScaDFX=  1.000000  1.000000  1.000000  1.000000
 GSVD:  LWork=        -660 too small for GESVD, short by        2750 words or        2750 for optimal perf.
 Range of M.O.s used for correlation:    23  1083
 NBasis=  1085 NAE=    72 NBE=    72 NFC=    22 NFV=     0
 NROrb=   1061 NOA=    50 NOB=    50 NVA=  1011 NVB=  1011

 **** Warning!!: The largest alpha MO coefficient is  0.11748634D+03

 DoSCS=T DFT=T ScalE2(SS,OS)=  0.220000  0.520000
 Fully direct method using O(OVN) memory.
 JobTyp=1 Pass  1:  I=   1 to  50 NPSUse=  6 ParTrn=T ParDer=T DoDerP=F.
 Spin components of T(2) and E(2):
     alpha-alpha T2 =       0.1739870036D+00 E2=     -0.1106399430D+00
     alpha-beta  T2 =       0.9006394358D+00 E2=     -0.1483256735D+01
     beta-beta   T2 =       0.1739870036D+00 E2=     -0.1106399430D+00
 E2(DSDPBEP86) =    -0.1704536621D+01 E(DSDPBEP86) =    -0.13893280690406D+04

 **********************************************************************

            Population analysis using the SCF Density.

 **********************************************************************

 Orbital symmetries:
       Occupied  (A) (A) (A) (A) (A) (A) (A) (A) (A) (A) (A) (A)
                 (A) (A) (A) (A) (A) (A) (A) (A) (A) (A) (A) (A)
                 (A) (A) (A) (A) (A) (A) (A) (A) (A) (A) (A) (A)
                 (A) (A) (A) (A) (A) (A) (A) (A) (A) (A) (A) (A)
                 (A) (A) (A) (A) (A) (A) (A) (A) (A) (A) (A) (A)
                 (A) (A) (A) (A) (A) (A) (A) (A) (A) (A) (A) (A)
       Virtual   (A) (A) (A) (A) (A) (A) (A) (A) (A) (A) (A) (A)
                 (A) (A) (A) (A) (A) (A) (A) (A) (A) (A) (A) (A)
                 (A) (A) (A) (A) (A) (A) (A) (A) (A) (A) (A) (A)
                 (A) (A) (A) (A) (A) (A) (A) (A) (A) (A) (A) (A)
                 (A) (A) (A) (A) (A) (A) (A) (A) (A) (A) (A) (A)
                 (A) (A) (A) (A) (A) (A) (A) (A) (A) (A) (A) (A)
                 (A) (A) (A) (A) (A) (A) (A) (A) (A) (A) (A) (A)
                 (A) (A) (A) (A) (A) (A) (A) (A) (A) (A) (A) (A)
                 (A) (A) (A) (A) (A) (A) (A) (A) (A) (A) (A) (A)
                 (A) (A) (A) (A) (A) (A) (A) (A) (A) (A) (A) (A)
                 (A) (A) (A) (A) (A) (A) (A) (A) (A) (A) (A) (A)
                 (A) (A) (A) (A) (A) (A) (A) (A) (A) (A) (A) (A)
                 (A) (A) (A) (A) (A) (A) (A) (A) (A) (A) (A) (A)
                 (A) (A) (A) (A) (A) (A) (A) (A) (A) (A) (A) (A)
                 (A) (A) (A) (A) (A) (A) (A) (A) (A) (A) (A) (A)
                 (A) (A) (A) (A) (A) (A) (A) (A) (A) (A) (A) (A)
                 (A) (A) (A) (A) (A) (A) (A) (A) (A) (A) (A) (A)
                 (A) (A) (A) (A) (A) (A) (A) (A) (A) (A) (A) (A)
                 (A) (A) (A) (A) (A) (A) (A) (A) (A) (A) (A) (A)
                 (A) (A) (A) (A) (A) (A) (A) (A) (A) (A) (A) (A)
                 (A) (A) (A) (A) (A) (A) (A) (A) (A) (A) (A) (A)
                 (A) (A) (A) (A) (A) (A) (A) (A) (A) (A) (A) (A)
                 (A) (A) (A) (A) (A) (A) (A) (A) (A) (A) (A) (A)
                 (A) (A) (A) (A) (A) (A) (A) (A) (A) (A) (A) (A)
                 (A) (A) (A) (A) (A) (A) (A) (A) (A) (A) (A) (A)
                 (A) (A) (A) (A) (A) (A) (A) (A) (A) (A) (A) (A)
                 (A) (A) (A) (A) (A) (A) (A) (A) (A) (A) (A) (A)
                 (A) (A) (A) (A) (A) (A) (A) (A) (A) (A) (A) (A)
                 (A) (A) (A) (A) (A) (A) (A) (A) (A) (A) (A) (A)
                 (A) (A) (A) (A) (A) (A) (A) (A) (A) (A) (A) (A)
                 (A) (A) (A) (A) (A) (A) (A) (A) (A) (A) (A) (A)
                 (A) (A) (A) (A) (A) (A) (A) (A) (A) (A) (A) (A)
                 (A) (A) (A) (A) (A) (A) (A) (A) (A) (A) (A) (A)
                 (A) (A) (A) (A) (A) (A) (A) (A) (A) (A) (A) (A)
                 (A) (A) (A) (A) (A) (A) (A) (A) (A) (A) (A) (A)
                 (A) (A) (A) (A) (A) (A) (A) (A) (A) (A) (A) (A)
                 (A) (A) (A) (A) (A) (A) (A) (A) (A) (A) (A) (A)
                 (A) (A) (A) (A) (A) (A) (A) (A) (A) (A) (A) (A)
                 (A) (A) (A) (A) (A) (A) (A) (A) (A) (A) (A) (A)
                 (A) (A) (A) (A) (A) (A) (A) (A) (A) (A) (A) (A)
                 (A) (A) (A) (A) (A) (A) (A) (A) (A) (A) (A) (A)
                 (A) (A) (A) (A) (A) (A) (A) (A) (A) (A) (A) (A)
                 (A) (A) (A) (A) (A) (A) (A) (A) (A) (A) (A) (A)
                 (A) (A) (A) (A) (A) (A) (A) (A) (A) (A) (A) (A)
                 (A) (A) (A) (A) (A) (A) (A) (A) (A) (A) (A) (A)
                 (A) (A) (A) (A) (A) (A) (A) (A) (A) (A) (A) (A)
                 (A) (A) (A) (A) (A) (A) (A) (A) (A) (A) (A) (A)
                 (A) (A) (A) (A) (A) (A) (A) (A) (A) (A) (A) (A)
                 (A) (A) (A) (A) (A) (A) (A) (A) (A) (A) (A) (A)
                 (A) (A) (A) (A) (A) (A) (A) (A) (A) (A) (A) (A)
                 (A) (A) (A) (A) (A) (A) (A) (A) (A) (A) (A) (A)
                 (A) (A) (A) (A) (A) (A) (A) (A) (A) (A) (A) (A)
                 (A) (A) (A) (A) (A) (A) (A) (A) (A) (A) (A) (A)
                 (A) (A) (A) (A) (A) (A) (A) (A) (A) (A) (A) (A)
                 (A) (A) (A) (A) (A) (A) (A) (A) (A) (A) (A) (A)
                 (A) (A) (A) (A) (A) (A) (A) (A) (A) (A) (A) (A)
                 (A) (A) (A) (A) (A) (A) (A) (A) (A) (A) (A) (A)
                 (A) (A) (A) (A) (A) (A) (A) (A) (A) (A) (A) (A)
                 (A) (A) (A) (A) (A) (A) (A) (A) (A) (A) (A) (A)
                 (A) (A) (A) (A) (A) (A) (A) (A) (A) (A) (A) (A)
                 (A) (A) (A) (A) (A) (A) (A) (A) (A) (A) (A) (A)
                 (A) (A) (A) (A) (A) (A) (A) (A) (A) (A) (A) (A)
                 (A) (A) (A) (A) (A) (A) (A) (A) (A) (A) (A) (A)
                 (A) (A) (A) (A) (A) (A) (A) (A) (A) (A) (A) (A)
                 (A) (A) (A) (A) (A) (A) (A) (A) (A) (A) (A) (A)
                 (A) (A) (A) (A) (A) (A) (A) (A) (A) (A) (A) (A)
                 (A) (A) (A) (A) (A) (A) (A) (A) (A) (A) (A) (A)
                 (A) (A) (A) (A) (A) (A) (A) (A) (A) (A) (A) (A)
                 (A) (A) (A) (A) (A) (A) (A) (A) (A) (A) (A) (A)
                 (A) (A) (A) (A) (A) (A) (A) (A) (A) (A) (A) (A)
                 (A) (A) (A) (A) (A) (A) (A) (A) (A) (A) (A) (A)
                 (A) (A) (A) (A) (A) (A) (A) (A) (A) (A) (A) (A)
                 (A) (A) (A) (A) (A) (A) (A) (A) (A) (A) (A) (A)
                 (A) (A) (A) (A) (A) (A) (A) (A) (A) (A) (A) (A)
                 (A) (A) (A) (A) (A) (A) (A) (A) (A) (A) (A) (A)
                 (A) (A) (A) (A) (A) (A) (A) (A) (A) (A) (A) (A)
                 (A) (A) (A) (A) (A) (A) (A) (A) (A) (A) (A) (A)
                 (A) (A) (A) (A) (A) (A) (A) (A) (A) (A) (A) (A)
                 (A) (A) (A) (A) (A) (A) (A) (A) (A) (A) (A) (A)
                 (A) (A) (A) (A) (A) (A) (A) (A) (A) (A) (A) (A)
                 (A) (A) (A) (A) (A) (A) (A) (A) (A) (A) (A) (A)
                 (A) (A) (A) (A) (A) (A) (A) (A) (A) (A) (A) (A)
                 (A) (A) (A) (A) (A) (A) (A) (A) (A) (A) (A) (A)
                 (A) (A) (A) (A) (A) (A) (A) (A) (A) (A) (A) (A)
                 (A) (A) (A)
 The electronic state is 1-A.
 Alpha  occ. eigenvalues -- -103.57884 -25.71799 -25.71690 -25.71289 -20.06569
 Alpha  occ. eigenvalues --  -19.99923 -15.14404 -11.09335 -11.00227 -10.90773
 Alpha  occ. eigenvalues --  -10.90739 -10.88514 -10.87072 -10.85536 -10.85133
 Alpha  occ. eigenvalues --  -10.84638 -10.82860 -10.81880 -10.15383  -7.73062
 Alpha  occ. eigenvalues --   -7.72589  -7.72573  -1.58254  -1.48984  -1.48508
 Alpha  occ. eigenvalues --   -1.35760  -1.25492  -1.17265  -1.09701  -1.03926
 Alpha  occ. eigenvalues --   -0.98758  -0.96608  -0.92810  -0.88234  -0.87123
 Alpha  occ. eigenvalues --   -0.80842  -0.78768  -0.75702  -0.74358  -0.74213
 Alpha  occ. eigenvalues --   -0.74121  -0.70258  -0.69269  -0.64556  -0.64234
 Alpha  occ. eigenvalues --   -0.64008  -0.62953  -0.62434  -0.60780  -0.59254
 Alpha  occ. eigenvalues --   -0.58317  -0.58045  -0.57858  -0.56455  -0.55730
 Alpha  occ. eigenvalues --   -0.55226  -0.53480  -0.53176  -0.50610  -0.50553
 Alpha  occ. eigenvalues --   -0.49655  -0.47997  -0.47567  -0.46148  -0.44807
 Alpha  occ. eigenvalues --   -0.44476  -0.42024  -0.41421  -0.41369  -0.41028
 Alpha  occ. eigenvalues --   -0.33389  -0.30707
 Alpha virt. eigenvalues --    0.01026   0.01713   0.02569   0.02634   0.02685
 Alpha virt. eigenvalues --    0.03174   0.03652   0.03724   0.04632   0.04986
 Alpha virt. eigenvalues --    0.05290   0.05311   0.05928   0.06524   0.06670
 Alpha virt. eigenvalues --    0.07165   0.07409   0.08342   0.08984   0.09136
 Alpha virt. eigenvalues --    0.09316   0.09411   0.09826   0.10187   0.10653
 Alpha virt. eigenvalues --    0.10971   0.11145   0.11187   0.11579   0.11694
 Alpha virt. eigenvalues --    0.12291   0.12453   0.12938   0.13076   0.13244
 Alpha virt. eigenvalues --    0.13633   0.13871   0.13998   0.14415   0.15036
 Alpha virt. eigenvalues --    0.15356   0.15419   0.15541   0.15856   0.16954
 Alpha virt. eigenvalues --    0.17132   0.17397   0.17642   0.17820   0.18523
 Alpha virt. eigenvalues --    0.18993   0.19092   0.19373   0.19495   0.19911
 Alpha virt. eigenvalues --    0.20131   0.20208   0.20771   0.21392   0.21712
 Alpha virt. eigenvalues --    0.22459   0.22734   0.22828   0.23439   0.23534
 Alpha virt. eigenvalues --    0.23966   0.23985   0.24452   0.24736   0.25013
 Alpha virt. eigenvalues --    0.25430   0.25513   0.25860   0.26170   0.26341
 Alpha virt. eigenvalues --    0.26705   0.27318   0.27624   0.27934   0.28281
 Alpha virt. eigenvalues --    0.28290   0.28792   0.28926   0.29225   0.29438
 Alpha virt. eigenvalues --    0.29674   0.29927   0.30248   0.30611   0.31037
 Alpha virt. eigenvalues --    0.31594   0.31708   0.31906   0.32004   0.32299
 Alpha virt. eigenvalues --    0.32498   0.32620   0.32752   0.33351   0.33702
 Alpha virt. eigenvalues --    0.34290   0.34310   0.34514   0.35095   0.35329
 Alpha virt. eigenvalues --    0.35758   0.36056   0.36081   0.36292   0.36800
 Alpha virt. eigenvalues --    0.36911   0.37377   0.37579   0.37856   0.38142
 Alpha virt. eigenvalues --    0.38679   0.38855   0.38988   0.39477   0.39541
 Alpha virt. eigenvalues --    0.40055   0.40400   0.40789   0.41216   0.41418
 Alpha virt. eigenvalues --    0.41720   0.42100   0.42248   0.42446   0.42732
 Alpha virt. eigenvalues --    0.43228   0.43287   0.43755   0.44060   0.44768
 Alpha virt. eigenvalues --    0.44872   0.45107   0.45341   0.45425   0.45848
 Alpha virt. eigenvalues --    0.46121   0.46434   0.46629   0.46886   0.47284
 Alpha virt. eigenvalues --    0.47525   0.47863   0.48072   0.48196   0.48502
 Alpha virt. eigenvalues --    0.48746   0.49043   0.49198   0.49876   0.50200
 Alpha virt. eigenvalues --    0.50448   0.51059   0.51559   0.52040   0.52169
 Alpha virt. eigenvalues --    0.52243   0.52679   0.52986   0.53161   0.53719
 Alpha virt. eigenvalues --    0.53973   0.54648   0.54755   0.55265   0.55642
 Alpha virt. eigenvalues --    0.55927   0.56166   0.56876   0.57384   0.58086
 Alpha virt. eigenvalues --    0.58482   0.58771   0.59581   0.59769   0.60512
 Alpha virt. eigenvalues --    0.61241   0.61378   0.62123   0.62195   0.62857
 Alpha virt. eigenvalues --    0.63135   0.63391   0.64319   0.64457   0.64905
 Alpha virt. eigenvalues --    0.65226   0.65416   0.66300   0.66862   0.67101
 Alpha virt. eigenvalues --    0.67619   0.67912   0.68377   0.68750   0.69700
 Alpha virt. eigenvalues --    0.70065   0.70647   0.71071   0.71606   0.71980
 Alpha virt. eigenvalues --    0.72337   0.72582   0.72666   0.73239   0.73605
 Alpha virt. eigenvalues --    0.74277   0.74575   0.75931   0.76313   0.76503
 Alpha virt. eigenvalues --    0.77196   0.77514   0.77991   0.78292   0.78829
 Alpha virt. eigenvalues --    0.79176   0.79503   0.80075   0.80316   0.80810
 Alpha virt. eigenvalues --    0.81399   0.81789   0.82193   0.82628   0.82735
 Alpha virt. eigenvalues --    0.82997   0.83637   0.84295   0.84436   0.84563
 Alpha virt. eigenvalues --    0.84735   0.85193   0.85402   0.85635   0.86040
 Alpha virt. eigenvalues --    0.86333   0.86534   0.86810   0.87297   0.87755
 Alpha virt. eigenvalues --    0.87817   0.88209   0.88720   0.88937   0.89041
 Alpha virt. eigenvalues --    0.89490   0.90792   0.90885   0.90989   0.91175
 Alpha virt. eigenvalues --    0.91888   0.92060   0.92490   0.92907   0.93462
 Alpha virt. eigenvalues --    0.93685   0.94029   0.94879   0.95427   0.95967
 Alpha virt. eigenvalues --    0.96443   0.96925   0.97490   0.97706   0.98177
 Alpha virt. eigenvalues --    0.98459   0.98941   0.99334   0.99392   0.99584
 Alpha virt. eigenvalues --    0.99959   1.00522   1.00813   1.01196   1.01632
 Alpha virt. eigenvalues --    1.02133   1.02536   1.03082   1.03461   1.03483
 Alpha virt. eigenvalues --    1.04341   1.04899   1.05105   1.05517   1.05594
 Alpha virt. eigenvalues --    1.05870   1.06241   1.06585   1.07110   1.07585
 Alpha virt. eigenvalues --    1.07941   1.08090   1.08800   1.08871   1.09419
 Alpha virt. eigenvalues --    1.09555   1.10288   1.10734   1.11171   1.11579
 Alpha virt. eigenvalues --    1.11680   1.12159   1.12810   1.13132   1.13526
 Alpha virt. eigenvalues --    1.13757   1.14105   1.14567   1.14843   1.15381
 Alpha virt. eigenvalues --    1.15627   1.15793   1.16443   1.17154   1.17620
 Alpha virt. eigenvalues --    1.17711   1.18156   1.18561   1.19025   1.19077
 Alpha virt. eigenvalues --    1.19686   1.19836   1.19992   1.20398   1.20975
 Alpha virt. eigenvalues --    1.21668   1.22330   1.22856   1.23134   1.23942
 Alpha virt. eigenvalues --    1.24352   1.24752   1.25069   1.25671   1.25901
 Alpha virt. eigenvalues --    1.26459   1.26824   1.27557   1.28530   1.29459
 Alpha virt. eigenvalues --    1.29617   1.30319   1.30536   1.31119   1.31554
 Alpha virt. eigenvalues --    1.32047   1.32199   1.33127   1.33336   1.33500
 Alpha virt. eigenvalues --    1.34041   1.34125   1.34972   1.36047   1.36641
 Alpha virt. eigenvalues --    1.37238   1.37674   1.37885   1.38595   1.39456
 Alpha virt. eigenvalues --    1.40150   1.40618   1.41109   1.41281   1.41982
 Alpha virt. eigenvalues --    1.42265   1.42590   1.43402   1.44394   1.44559
 Alpha virt. eigenvalues --    1.44946   1.45454   1.46222   1.46510   1.47419
 Alpha virt. eigenvalues --    1.47829   1.48636   1.48814   1.49279   1.50104
 Alpha virt. eigenvalues --    1.50477   1.51828   1.52530   1.52674   1.53131
 Alpha virt. eigenvalues --    1.53850   1.53980   1.54659   1.55635   1.56026
 Alpha virt. eigenvalues --    1.56263   1.56716   1.56824   1.57803   1.58409
 Alpha virt. eigenvalues --    1.58935   1.59574   1.59924   1.60383   1.60666
 Alpha virt. eigenvalues --    1.60963   1.61105   1.61378   1.61856   1.62751
 Alpha virt. eigenvalues --    1.63273   1.63881   1.64202   1.65294   1.65534
 Alpha virt. eigenvalues --    1.66167   1.66303   1.66896   1.67504   1.67776
 Alpha virt. eigenvalues --    1.68208   1.68816   1.69002   1.69450   1.69694
 Alpha virt. eigenvalues --    1.70272   1.70524   1.72286   1.72742   1.72861
 Alpha virt. eigenvalues --    1.73385   1.73626   1.74414   1.75193   1.75412
 Alpha virt. eigenvalues --    1.76207   1.76674   1.76867   1.77321   1.78025
 Alpha virt. eigenvalues --    1.78303   1.78857   1.79169   1.79810   1.80796
 Alpha virt. eigenvalues --    1.81585   1.82835   1.82889   1.83117   1.83885
 Alpha virt. eigenvalues --    1.84306   1.84541   1.85366   1.86054   1.86394
 Alpha virt. eigenvalues --    1.86847   1.87445   1.88870   1.89098   1.89730
 Alpha virt. eigenvalues --    1.90239   1.90661   1.91249   1.91442   1.92080
 Alpha virt. eigenvalues --    1.93801   1.94227   1.94369   1.95372   1.96253
 Alpha virt. eigenvalues --    1.96799   1.97119   1.97836   1.98408   1.99421
 Alpha virt. eigenvalues --    1.99709   2.00317   2.01592   2.01898   2.02436
 Alpha virt. eigenvalues --    2.02845   2.03307   2.04296   2.05308   2.06414
 Alpha virt. eigenvalues --    2.06499   2.07305   2.08227   2.08552   2.09432
 Alpha virt. eigenvalues --    2.11048   2.11495   2.12409   2.13269   2.14188
 Alpha virt. eigenvalues --    2.14821   2.15491   2.15884   2.16224   2.16815
 Alpha virt. eigenvalues --    2.18250   2.19049   2.19744   2.20409   2.20686
 Alpha virt. eigenvalues --    2.21394   2.23282   2.24160   2.24614   2.25391
 Alpha virt. eigenvalues --    2.26150   2.27284   2.27916   2.29281   2.30459
 Alpha virt. eigenvalues --    2.30673   2.32088   2.32634   2.32931   2.34033
 Alpha virt. eigenvalues --    2.34885   2.35375   2.35674   2.36154   2.37218
 Alpha virt. eigenvalues --    2.38887   2.39307   2.39762   2.41234   2.42025
 Alpha virt. eigenvalues --    2.42738   2.43041   2.45654   2.47231   2.47867
 Alpha virt. eigenvalues --    2.48445   2.48850   2.49568   2.50410   2.50907
 Alpha virt. eigenvalues --    2.51253   2.52674   2.53629   2.54971   2.56215
 Alpha virt. eigenvalues --    2.56874   2.58197   2.58701   2.60269   2.60474
 Alpha virt. eigenvalues --    2.61646   2.61903   2.63587   2.64147   2.64764
 Alpha virt. eigenvalues --    2.65763   2.67269   2.69323   2.69492   2.70994
 Alpha virt. eigenvalues --    2.72314   2.73379   2.74177   2.74931   2.75569
 Alpha virt. eigenvalues --    2.76262   2.78281   2.79295   2.79948   2.80762
 Alpha virt. eigenvalues --    2.81047   2.81775   2.83417   2.84986   2.85703
 Alpha virt. eigenvalues --    2.86149   2.87569   2.89287   2.90484   2.90731
 Alpha virt. eigenvalues --    2.92261   2.92533   2.93660   2.95270   2.95485
 Alpha virt. eigenvalues --    2.96105   2.96528   2.97720   2.98658   2.99679
 Alpha virt. eigenvalues --    2.99951   3.00203   3.00666   3.00967   3.02088
 Alpha virt. eigenvalues --    3.03581   3.04858   3.05784   3.06870   3.07752
 Alpha virt. eigenvalues --    3.08692   3.09327   3.09650   3.10558   3.11259
 Alpha virt. eigenvalues --    3.12112   3.13482   3.13973   3.15279   3.16208
 Alpha virt. eigenvalues --    3.16405   3.17711   3.18646   3.18968   3.20037
 Alpha virt. eigenvalues --    3.21012   3.22480   3.22712   3.23070   3.23893
 Alpha virt. eigenvalues --    3.25023   3.25483   3.25968   3.27267   3.28125
 Alpha virt. eigenvalues --    3.28642   3.30519   3.31088   3.31438   3.32548
 Alpha virt. eigenvalues --    3.33408   3.34038   3.34728   3.34926   3.35884
 Alpha virt. eigenvalues --    3.36172   3.36821   3.37515   3.37956   3.38835
 Alpha virt. eigenvalues --    3.39086   3.40315   3.40770   3.41745   3.43303
 Alpha virt. eigenvalues --    3.44077   3.45447   3.46257   3.46733   3.47085
 Alpha virt. eigenvalues --    3.47596   3.48339   3.48691   3.49364   3.50447
 Alpha virt. eigenvalues --    3.51839   3.51950   3.52197   3.54120   3.54627
 Alpha virt. eigenvalues --    3.54991   3.56042   3.57247   3.57470   3.57822
 Alpha virt. eigenvalues --    3.59072   3.59558   3.60194   3.60625   3.61684
 Alpha virt. eigenvalues --    3.62104   3.62904   3.63562   3.63780   3.64414
 Alpha virt. eigenvalues --    3.64761   3.66473   3.67316   3.67812   3.68066
 Alpha virt. eigenvalues --    3.69400   3.70699   3.70935   3.71140   3.72722
 Alpha virt. eigenvalues --    3.73434   3.73682   3.74114   3.74488   3.74908
 Alpha virt. eigenvalues --    3.75998   3.76573   3.77117   3.77907   3.78731
 Alpha virt. eigenvalues --    3.79846   3.80107   3.80562   3.81030   3.82058
 Alpha virt. eigenvalues --    3.82425   3.83113   3.83812   3.84201   3.85404
 Alpha virt. eigenvalues --    3.86436   3.86506   3.86938   3.88104   3.88381
 Alpha virt. eigenvalues --    3.89477   3.89809   3.91027   3.92496   3.93636
 Alpha virt. eigenvalues --    3.93838   3.94728   3.95452   3.96065   3.96864
 Alpha virt. eigenvalues --    3.97177   3.97726   3.99640   4.00389   4.00653
 Alpha virt. eigenvalues --    4.02555   4.03884   4.04302   4.04742   4.05829
 Alpha virt. eigenvalues --    4.05888   4.07264   4.07688   4.08402   4.09236
 Alpha virt. eigenvalues --    4.09706   4.10507   4.10923   4.11562   4.11824
 Alpha virt. eigenvalues --    4.12535   4.13589   4.14007   4.15434   4.15732
 Alpha virt. eigenvalues --    4.16829   4.17341   4.17522   4.19394   4.19593
 Alpha virt. eigenvalues --    4.20221   4.20636   4.21676   4.22442   4.23220
 Alpha virt. eigenvalues --    4.24686   4.25260   4.25936   4.26852   4.28257
 Alpha virt. eigenvalues --    4.28820   4.29602   4.30168   4.31181   4.33116
 Alpha virt. eigenvalues --    4.33631   4.35290   4.35915   4.36157   4.37542
 Alpha virt. eigenvalues --    4.37936   4.38020   4.39125   4.39928   4.40949
 Alpha virt. eigenvalues --    4.41953   4.42713   4.43681   4.44884   4.45522
 Alpha virt. eigenvalues --    4.46906   4.48583   4.50506   4.51145   4.51937
 Alpha virt. eigenvalues --    4.52249   4.53070   4.53210   4.54516   4.55308
 Alpha virt. eigenvalues --    4.55663   4.56822   4.57757   4.59706   4.60825
 Alpha virt. eigenvalues --    4.62036   4.62371   4.64565   4.65019   4.66125
 Alpha virt. eigenvalues --    4.67144   4.67760   4.68613   4.69389   4.71272
 Alpha virt. eigenvalues --    4.72061   4.73881   4.74293   4.74882   4.75544
 Alpha virt. eigenvalues --    4.75988   4.78234   4.78982   4.79471   4.80000
 Alpha virt. eigenvalues --    4.81458   4.81828   4.84282   4.85770   4.86681
 Alpha virt. eigenvalues --    4.87252   4.89581   4.90779   4.91395   4.92725
 Alpha virt. eigenvalues --    4.93298   4.94562   4.96519   4.96864   4.97021
 Alpha virt. eigenvalues --    4.98768   4.99262   4.99945   5.00225   5.01464
 Alpha virt. eigenvalues --    5.02328   5.04530   5.05112   5.07956   5.09030
 Alpha virt. eigenvalues --    5.09272   5.10589   5.10900   5.11499   5.12302
 Alpha virt. eigenvalues --    5.13813   5.14852   5.15100   5.15604   5.17822
 Alpha virt. eigenvalues --    5.18086   5.18798   5.20347   5.21444   5.23129
 Alpha virt. eigenvalues --    5.23653   5.24815   5.27719   5.30189   5.35664
 Alpha virt. eigenvalues --    5.37090   5.37271   5.38550   5.39374   5.43648
 Alpha virt. eigenvalues --    5.44623   5.44755   5.45292   5.46348   5.48220
 Alpha virt. eigenvalues --    5.50275   5.51463   5.54045   5.55551   5.56779
 Alpha virt. eigenvalues --    5.57077   5.58191   5.59057   5.59578   5.60313
 Alpha virt. eigenvalues --    5.62851   5.64897   5.66748   5.69765   5.70811
 Alpha virt. eigenvalues --    5.71163   5.72446   5.73473   5.75490   5.77119
 Alpha virt. eigenvalues --    5.78509   5.85131   5.85981   5.86840   5.87640
 Alpha virt. eigenvalues --    5.89332   5.91984   5.94402   5.96450   5.98220
 Alpha virt. eigenvalues --    6.00934   6.01215   6.04683   6.06821   6.10192
 Alpha virt. eigenvalues --    6.12026   6.17408   6.19392   6.20988   6.23066
 Alpha virt. eigenvalues --    6.24479   6.28382   6.31349   6.32878   6.41727
 Alpha virt. eigenvalues --    6.49981   6.51732   6.55730   6.56823   6.57164
 Alpha virt. eigenvalues --    6.60825   6.62800   6.65141   6.67360   6.71335
 Alpha virt. eigenvalues --    6.74494   6.74545   6.77767   6.79461   6.83697
 Alpha virt. eigenvalues --    6.85378   6.87545   6.95420   6.98360   6.99381
 Alpha virt. eigenvalues --    7.00201   7.02705   7.10820   7.11841   7.16079
 Alpha virt. eigenvalues --    7.19288   7.20558   7.25786   7.27405   7.35810
 Alpha virt. eigenvalues --    7.41348   7.46016   7.47498   7.51958   7.63035
 Alpha virt. eigenvalues --    7.70677   7.72409   7.81253   7.91044   8.06685
 Alpha virt. eigenvalues --    8.20679   8.40591   8.45264   8.73046   8.75468
 Alpha virt. eigenvalues --    8.78215   8.79376   8.80788   8.85060   8.94524
 Alpha virt. eigenvalues --    8.95864   9.07763   9.08844   9.09554   9.13417
 Alpha virt. eigenvalues --    9.14220   9.16103   9.18026   9.22048   9.23001
 Alpha virt. eigenvalues --    9.23945   9.27274   9.28178   9.28311   9.29729
 Alpha virt. eigenvalues --    9.32147   9.35465   9.39517   9.40198   9.42974
 Alpha virt. eigenvalues --    9.47929   9.49814   9.51297   9.55975   9.69093
 Alpha virt. eigenvalues --    9.71228   9.78152   9.94735   9.95354  15.24878
 Alpha virt. eigenvalues --   15.80099  15.96461  16.09549  16.17054  16.45848
 Alpha virt. eigenvalues --   16.82970  17.35764  17.56120  18.03323  18.33312
 Alpha virt. eigenvalues --   18.65552  19.41238  19.69953  20.60187  20.86409
 Alpha virt. eigenvalues --   21.25035
          Condensed to atoms (all electrons):
               1          2          3          4          5          6
     1  C    8.446983  -0.167075  -0.791961   0.132995   0.010737  -0.026225
     2  N   -0.167075   8.040706   0.312842  -0.170404  -0.361712  -0.078267
     3  C   -0.791961   0.312842   5.858545   0.275990   0.341388  -0.094110
     4  O    0.132995  -0.170404   0.275990   8.823868  -0.068172   0.012170
     5  O    0.010737  -0.361712   0.341388  -0.068172   8.645723   0.210057
     6  C   -0.026225  -0.078267  -0.094110   0.012170   0.210057   5.513048
     7  C   -0.019861  -0.011894   0.036644  -0.011768  -0.114423   0.065922
     8  C   -0.001900  -0.001206   0.002002  -0.004228  -0.001381  -0.041750
     9  C   -0.904378  -0.415887  -0.167856   0.030859  -0.100236  -0.021128
    10  C   -0.020254   0.136029   0.057025  -0.000698   0.014120   0.007074
    11  C   -0.392723   0.017544  -0.022069   0.003483  -0.000662  -0.005850
    12  C    0.047964   0.097322   0.112728   0.009982   0.014767   0.006885
    13  C   -0.324195  -0.388461   0.007707  -0.136174  -0.037068  -0.017438
    14  H    0.057773   0.245365  -0.096986   0.016652   0.083387   0.004312
    15  H   -0.011700   0.007069  -0.021788  -0.005180  -0.041628   0.318086
    16  H   -0.011449   0.004560  -0.021374  -0.004028  -0.041458   0.315242
    17  H   -0.003799  -0.008486  -0.000171   0.004943  -0.032609   0.048444
    18  H   -0.002305  -0.008418  -0.001091   0.005051  -0.034089   0.046780
    19  H    0.000595  -0.000375   0.003353   0.000052   0.000491  -0.003761
    20  H   -0.000006  -0.000455   0.002690  -0.000352   0.000976  -0.008609
    21  H    0.000399  -0.000344   0.003595   0.000065   0.000930  -0.003667
    22  H   -0.318234  -0.089631  -0.090641   0.003732  -0.035128  -0.006890
    23  Cl  -0.056528  -0.011347   0.005531  -0.006165   0.000043  -0.001338
    24  H   -0.331231  -0.089301  -0.080724  -0.139679  -0.013724  -0.033498
    25  C   -0.004156  -0.004249  -0.004353  -0.000696  -0.001642  -0.000619
    26  H    0.038737   0.013558   0.007803  -0.000023   0.000127  -0.000013
    27  F   -0.010962   0.003425  -0.000078  -0.000029   0.000000  -0.000022
    28  F    0.006848   0.000053   0.001220   0.000042   0.000160   0.000079
    29  F   -0.022011  -0.001087  -0.002284  -0.000022  -0.000163  -0.000077
               7          8          9         10         11         12
     1  C   -0.019861  -0.001900  -0.904378  -0.020254  -0.392723   0.047964
     2  N   -0.011894  -0.001206  -0.415887   0.136029   0.017544   0.097322
     3  C    0.036644   0.002002  -0.167856   0.057025  -0.022069   0.112728
     4  O   -0.011768  -0.004228   0.030859  -0.000698   0.003483   0.009982
     5  O   -0.114423  -0.001381  -0.100236   0.014120  -0.000662   0.014767
     6  C    0.065922  -0.041750  -0.021128   0.007074  -0.005850   0.006885
     7  C    5.527316   0.121196   0.005780   0.000322  -0.000148   0.000717
     8  C    0.121196   5.800615   0.000161   0.000090  -0.000049   0.000010
     9  C    0.005780   0.000161   9.635256  -1.319630   0.331853  -0.449634
    10  C    0.000322   0.000090  -1.319630   8.135963  -0.941217   0.173296
    11  C   -0.000148  -0.000049   0.331853  -0.941217   8.255351  -0.456039
    12  C    0.000717   0.000010  -0.449634   0.173296  -0.456039   6.786111
    13  C   -0.004753   0.000018  -0.049480  -0.289276   0.041304  -0.228766
    14  H    0.001643  -0.000231  -0.020632  -0.008250  -0.005536   0.000612
    15  H    0.015267  -0.002634  -0.000244   0.000203  -0.000310   0.000151
    16  H    0.014995  -0.001746  -0.000025   0.000325  -0.000325   0.000262
    17  H    0.404339  -0.038697   0.000694   0.000129  -0.000035   0.000058
    18  H    0.402941  -0.037339   0.000296   0.000179  -0.000041   0.000034
    19  H    0.036663   0.363276  -0.000061   0.000013  -0.000002   0.000010
    20  H   -0.028951   0.447167  -0.000029   0.000008  -0.000001   0.000001
    21  H    0.036132   0.362559   0.000013  -0.000002   0.000003   0.000015
    22  H   -0.000428  -0.000026   0.421513  -0.343840   0.017417   0.014725
    23  Cl  -0.000026  -0.000006   0.057786  -0.045055  -0.065414  -0.139211
    24  H   -0.002670  -0.000311   0.109355  -0.023990   0.107673  -0.420819
    25  C   -0.000044  -0.000000  -0.188137  -0.333578  -0.101876  -0.014058
    26  H    0.000004  -0.000001  -0.083826   0.059571   0.042947  -0.152257
    27  F   -0.000001  -0.000000  -0.002258   0.041931   0.033915  -0.010867
    28  F    0.000000  -0.000000  -0.003277  -0.047869   0.011261   0.008146
    29  F   -0.000013  -0.000000   0.051580   0.007060   0.005232  -0.011678
              13         14         15         16         17         18
     1  C   -0.324195   0.057773  -0.011700  -0.011449  -0.003799  -0.002305
     2  N   -0.388461   0.245365   0.007069   0.004560  -0.008486  -0.008418
     3  C    0.007707  -0.096986  -0.021788  -0.021374  -0.000171  -0.001091
     4  O   -0.136174   0.016652  -0.005180  -0.004028   0.004943   0.005051
     5  O   -0.037068   0.083387  -0.041628  -0.041458  -0.032609  -0.034089
     6  C   -0.017438   0.004312   0.318086   0.315242   0.048444   0.046780
     7  C   -0.004753   0.001643   0.015267   0.014995   0.404339   0.402941
     8  C    0.000018  -0.000231  -0.002634  -0.001746  -0.038697  -0.037339
     9  C   -0.049480  -0.020632  -0.000244  -0.000025   0.000694   0.000296
    10  C   -0.289276  -0.008250   0.000203   0.000325   0.000129   0.000179
    11  C    0.041304  -0.005536  -0.000310  -0.000325  -0.000035  -0.000041
    12  C   -0.228766   0.000612   0.000151   0.000262   0.000058   0.000034
    13  C    8.078183  -0.014247   0.002768   0.002516  -0.000262  -0.000273
    14  H   -0.014247   0.790960  -0.001426  -0.002160  -0.000746  -0.000992
    15  H    0.002768  -0.001426   0.413484   0.012997   0.018783  -0.017335
    16  H    0.002516  -0.002160   0.012997   0.417797  -0.017977   0.019774
    17  H   -0.000262  -0.000746   0.018783  -0.017977   0.406365   0.008372
    18  H   -0.000273  -0.000992  -0.017335   0.019774   0.008372   0.408060
    19  H   -0.000015   0.000132  -0.007720  -0.009284   0.000636   0.000604
    20  H   -0.000004   0.000010   0.000043  -0.000051  -0.002458  -0.002796
    21  H   -0.000023   0.000113  -0.009571  -0.007897   0.000575   0.000481
    22  H   -0.058401  -0.043690  -0.000474  -0.000353  -0.000094   0.000106
    23  Cl   0.122315   0.000430   0.000035   0.000039  -0.000008  -0.000008
    24  H    0.076673  -0.001156  -0.001307  -0.001673  -0.000355  -0.000289
    25  C    0.026058  -0.006036  -0.000011  -0.000023  -0.000002  -0.000001
    26  H   -0.032781  -0.000603  -0.000007   0.000017   0.000001   0.000002
    27  F    0.002365   0.000349   0.000001  -0.000001  -0.000001  -0.000000
    28  F   -0.003460   0.000110   0.000006  -0.000002   0.000005  -0.000003
    29  F    0.009363  -0.000083  -0.000001  -0.000003  -0.000006   0.000000
              19         20         21         22         23         24
     1  C    0.000595  -0.000006   0.000399  -0.318234  -0.056528  -0.331231
     2  N   -0.000375  -0.000455  -0.000344  -0.089631  -0.011347  -0.089301
     3  C    0.003353   0.002690   0.003595  -0.090641   0.005531  -0.080724
     4  O    0.000052  -0.000352   0.000065   0.003732  -0.006165  -0.139679
     5  O    0.000491   0.000976   0.000930  -0.035128   0.000043  -0.013724
     6  C   -0.003761  -0.008609  -0.003667  -0.006890  -0.001338  -0.033498
     7  C    0.036663  -0.028951   0.036132  -0.000428  -0.000026  -0.002670
     8  C    0.363276   0.447167   0.362559  -0.000026  -0.000006  -0.000311
     9  C   -0.000061  -0.000029   0.000013   0.421513   0.057786   0.109355
    10  C    0.000013   0.000008  -0.000002  -0.343840  -0.045055  -0.023990
    11  C   -0.000002  -0.000001   0.000003   0.017417  -0.065414   0.107673
    12  C    0.000010   0.000001   0.000015   0.014725  -0.139211  -0.420819
    13  C   -0.000015  -0.000004  -0.000023  -0.058401   0.122315   0.076673
    14  H    0.000132   0.000010   0.000113  -0.043690   0.000430  -0.001156
    15  H   -0.007720   0.000043  -0.009571  -0.000474   0.000035  -0.001307
    16  H   -0.009284  -0.000051  -0.007897  -0.000353   0.000039  -0.001673
    17  H    0.000636  -0.002458   0.000575  -0.000094  -0.000008  -0.000355
    18  H    0.000604  -0.002796   0.000481   0.000106  -0.000008  -0.000289
    19  H    0.314317   0.000417   0.021393   0.000009  -0.000002   0.000048
    20  H    0.000417   0.303869   0.000901  -0.000006  -0.000000  -0.000012
    21  H    0.021393   0.000901   0.315162  -0.000001  -0.000002   0.000018
    22  H    0.000009  -0.000006  -0.000001   1.233732   0.000008   0.009208
    23  Cl  -0.000002  -0.000000  -0.000002   0.000008  17.609001   0.020295
    24  H    0.000048  -0.000012   0.000018   0.009208   0.020295   1.141027
    25  C    0.000000  -0.000000  -0.000001  -0.053003   0.002956   0.007304
    26  H   -0.000000   0.000000   0.000000  -0.011810  -0.069593  -0.013363
    27  F    0.000000  -0.000000  -0.000000   0.000603   0.000477   0.000483
    28  F   -0.000000   0.000000   0.000000   0.000130  -0.000280  -0.000369
    29  F    0.000000  -0.000000  -0.000000   0.003828   0.000183   0.000604
              25         26         27         28         29
     1  C   -0.004156   0.038737  -0.010962   0.006848  -0.022011
     2  N   -0.004249   0.013558   0.003425   0.000053  -0.001087
     3  C   -0.004353   0.007803  -0.000078   0.001220  -0.002284
     4  O   -0.000696  -0.000023  -0.000029   0.000042  -0.000022
     5  O   -0.001642   0.000127   0.000000   0.000160  -0.000163
     6  C   -0.000619  -0.000013  -0.000022   0.000079  -0.000077
     7  C   -0.000044   0.000004  -0.000001   0.000000  -0.000013
     8  C   -0.000000  -0.000001  -0.000000  -0.000000  -0.000000
     9  C   -0.188137  -0.083826  -0.002258  -0.003277   0.051580
    10  C   -0.333578   0.059571   0.041931  -0.047869   0.007060
    11  C   -0.101876   0.042947   0.033915   0.011261   0.005232
    12  C   -0.014058  -0.152257  -0.010867   0.008146  -0.011678
    13  C    0.026058  -0.032781   0.002365  -0.003460   0.009363
    14  H   -0.006036  -0.000603   0.000349   0.000110  -0.000083
    15  H   -0.000011  -0.000007   0.000001   0.000006  -0.000001
    16  H   -0.000023   0.000017  -0.000001  -0.000002  -0.000003
    17  H   -0.000002   0.000001  -0.000001   0.000005  -0.000006
    18  H   -0.000001   0.000002  -0.000000  -0.000003   0.000000
    19  H    0.000000  -0.000000   0.000000  -0.000000   0.000000
    20  H   -0.000000   0.000000  -0.000000   0.000000  -0.000000
    21  H   -0.000001   0.000000  -0.000000   0.000000  -0.000000
    22  H   -0.053003  -0.011810   0.000603   0.000130   0.003828
    23  Cl   0.002956  -0.069593   0.000477  -0.000280   0.000183
    24  H    0.007304  -0.013363   0.000483  -0.000369   0.000604
    25  C    4.953158  -0.039879   0.143035   0.181560   0.163355
    26  H   -0.039879   0.762161  -0.001334   0.011217  -0.000262
    27  F    0.143035  -0.001334   9.282143  -0.035436  -0.054048
    28  F    0.181560   0.011217  -0.035436   9.298547  -0.040050
    29  F    0.163355  -0.000262  -0.054048  -0.040050   9.283074
 Mulliken charges:
               1
     1  C    0.677921
     2  N   -0.069875
     3  C    0.366422
     4  O   -0.772268
     5  O   -0.438810
     6  C   -0.204836
     7  C   -0.474900
     8  C   -0.965590
     9  C   -0.918427
    10  C    0.740320
    11  C   -0.875685
    12  C    0.609532
    13  C   -0.784191
    14  H    0.000925
    15  H    0.332444
    16  H    0.331304
    17  H    0.212360
    18  H    0.212299
    19  H    0.279211
    20  H    0.287650
    21  H    0.279156
    22  H    0.347639
    23  Cl  -0.424113
    24  H    0.681783
    25  C    1.274940
    26  H    0.469608
    27  F   -0.393690
    28  F   -0.388638
    29  F   -0.392489
 Sum of Mulliken charges =  -0.00000
 Mulliken charges with hydrogens summed into heavy atoms:
               1
     1  C    0.677921
     2  N   -0.068951
     3  C    0.366422
     4  O   -0.772268
     5  O   -0.438810
     6  C    0.458912
     7  C   -0.050241
     8  C   -0.119574
     9  C   -0.570787
    10  C    0.740320
    11  C   -0.406077
    12  C    0.609532
    13  C   -0.102407
    23  Cl  -0.424113
    25  C    1.274940
    27  F   -0.393690
    28  F   -0.388638
    29  F   -0.392489
 Electronic spatial extent (au):  <R**2>=           8267.4533
 Charge=              0.0000 electrons
 Dipole moment (field-independent basis, Debye):
    X=             -4.0238    Y=             -2.1744    Z=             -0.1001  Tot=              4.5748
 Quadrupole moment (field-independent basis, Debye-Ang):
   XX=           -103.0127   YY=           -116.3915   ZZ=           -112.2840
   XY=              9.1876   XZ=             -0.3106   YZ=              0.1431
 Traceless Quadrupole moment (field-independent basis, Debye-Ang):
   XX=              7.5501   YY=             -5.8288   ZZ=             -1.7213
   XY=              9.1876   XZ=             -0.3106   YZ=              0.1431
 Octapole moment (field-independent basis, Debye-Ang**2):
  XXX=            -82.7143  YYY=            -38.9780  ZZZ=             -0.7418  XYY=              6.1955
  XXY=             -2.0808  XXZ=             -0.3444  XZZ=              5.4301  YZZ=             -7.8059
  YYZ=              0.6173  XYZ=              0.9599
 Hexadecapole moment (field-independent basis, Debye-Ang**3):
 XXXX=          -7774.1127 YYYY=          -1892.4071 ZZZZ=           -199.5279 XXXY=             60.0841
 XXXZ=              3.7387 YYYX=            -79.0004 YYYZ=             -3.1474 ZZZX=             -3.7010
 ZZZY=              2.1056 XXYY=          -1752.2804 XXZZ=          -1410.7226 YYZZ=           -357.0224
 XXYZ=              3.9904 YYXZ=              0.5667 ZZXY=            -38.0796
 N-N= 1.417946332736D+03 E-N=-6.111808711885D+03  KE= 1.384123023674D+03
 Unable to Open any file for archive entry.
 1\1\GINC-GADI-CPU-CLX-0504\SP\RDSDPBEP86-FC\Aug-CC-pVTZ\C11H11Cl1F3N1O
 2\HIO507\10-Sep-2020\0\\# DSDPBEP86/AUG-cc-PVTZ SCF=Tight INT(grid=ult
 rafine) MaxDisk=60000MB\\NM3CA_c2.DSDPBEP86_AUG-cc-PVTZ\\0,1\C,0,-5.93
 63567378,1.4871685131,0.2139658711\N,0,-4.6853388909,0.8757892616,0.07
 95614564\C,0,-3.4511677975,1.475619194,0.1262232574\O,0,-3.2317298801,
 2.6470234401,0.2916282537\O,0,-2.5066698127,0.5366687427,-0.0444015202
 \C,0,-1.1517696602,1.0128764794,-0.0197271348\C,0,-0.2427370649,-0.179
 0216373,-0.2276800899\C,0,1.2234609946,0.2447063279,-0.2146277537\C,0,
 -7.0615804509,0.660212118,0.1419496509\C,0,-8.3271195545,1.206115539,0
 .2727268139\C,0,-8.5149941624,2.5682171936,0.4733689354\C,0,-7.3848828
 587,3.3682391418,0.5410166345\C,0,-6.0985697763,2.8603143526,0.4158612
 955\H,0,-4.6723450703,-0.1227935437,-0.066532715\H,0,-0.9676104547,1.5
 013770129,0.94019098\H,0,-1.0269831357,1.7608188425,-0.8064807907\H,0,
 -0.4933609552,-0.6560361718,-1.1790401409\H,0,-0.4342034094,-0.9141876
 367,0.5586463706\H,0,1.4351380334,0.9665312717,-1.0071614225\H,0,1.879
 898769,-0.6132456076,-0.3645154449\H,0,1.4945754304,0.7072008053,0.737
 5011861\H,0,-6.9461794053,-0.4076650211,-0.0076883987\Cl,0,-7.58078746
 19,5.0775547305,0.7976637603\H,0,-5.2427687981,3.5152890208,0.47710915
 32\C,0,-9.5291495216,0.3144669474,0.1321585646\H,0,-9.5047148548,2.992
 1872255,0.581214573\F,0,-10.5610352639,0.7458733944,0.8670596835\F,0,-
 9.9534568902,0.2592616547,-1.140819919\F,0,-9.2664013594,-0.9454615912
 ,0.5071688903\\Version=ES64L-G16RevC.01\State=1-A\HF=-1387.6235324\MP2
 =-1389.328069\RMSD=7.311e-09\PG=C01 [X(C11H11Cl1F3N1O2)]\\@
 The archive entry for this job was punched.


 CHARLIE BROWN -- WHICH DO YOU THINK LASTS LONGER IN LIFE, THE GOOD THINGS 
                  OR THE BAD THINGS?
 LINUS --         GOOD THINGS LAST EIGHT SECONDS ..
                  BAD THINGS LAST THREE WEEKS
 CHARLIE BROWN -- WHAT ABOUT IN BETWEEN?
 SNOOPY --        IN BETWEEN YOU SHOULD TAKE A NAP ...
 Job cpu time:       0 days 21 hours 23 minutes  6.5 seconds.
 Elapsed time:       0 days  3 hours 34 minutes 48.7 seconds.
 File lengths (MBytes):  RWF=    609 Int=      0 D2E=      0 Chk=     77 Scr=      1
 Normal termination of Gaussian 16 at Thu Sep 10 15:04:17 2020.
