 Entering Gaussian System, Link 0=/apps/gaussian/g09e01/g09/g09
 AtFile(1): /home/507/hio507/Basis/GTMP2LARGE.gbs
 Initial command:
 /apps/gaussian/g09e01/g09/l1.exe "/jobfs/local/4047189.r-man2/Gau-7442.inp" -scrdir="/jobfs/local/4047189.r-man2/"
 Entering Link 1 = /apps/gaussian/g09e01/g09/l1.exe PID=      7443.
  
 Copyright (c) 1988,1990,1992,1993,1995,1998,2003,2009,2015,
            Gaussian, Inc.  All Rights Reserved.
  
 This is part of the Gaussian(R) 09 program.  It is based on
 the Gaussian(R) 03 system (copyright 2003, Gaussian, Inc.),
 the Gaussian(R) 98 system (copyright 1998, Gaussian, Inc.),
 the Gaussian(R) 94 system (copyright 1995, Gaussian, Inc.),
 the Gaussian 92(TM) system (copyright 1992, Gaussian, Inc.),
 the Gaussian 90(TM) system (copyright 1990, Gaussian, Inc.),
 the Gaussian 88(TM) system (copyright 1988, Gaussian, Inc.),
 the Gaussian 86(TM) system (copyright 1986, Carnegie Mellon
 University), and the Gaussian 82(TM) system (copyright 1983,
 Carnegie Mellon University). Gaussian is a federally registered
 trademark of Gaussian, Inc.
  
 This software contains proprietary and confidential information,
 including trade secrets, belonging to Gaussian, Inc.
  
 This software is provided under written license and may be
 used, copied, transmitted, or stored only in accord with that
 written license.
  
 The following legend is applicable only to US Government
 contracts under FAR:
  
                    RESTRICTED RIGHTS LEGEND
  
 Use, reproduction and disclosure by the US Government is
 subject to restrictions as set forth in subparagraphs (a)
 and (c) of the Commercial Computer Software - Restricted
 Rights clause in FAR 52.227-19.
  
 Gaussian, Inc.
 340 Quinnipiac St., Bldg. 40, Wallingford CT 06492
  
  
 ---------------------------------------------------------------
 Warning -- This program may not be used in any manner that
 competes with the business of Gaussian, Inc. or will provide
 assistance to any competitor of Gaussian, Inc.  The licensee
 of this program is prohibited from giving any competitor of
 Gaussian, Inc. access to this program.  By using this program,
 the user acknowledges that Gaussian, Inc. is engaged in the
 business of creating and licensing software in the field of
 computational chemistry and represents and warrants to the
 licensee that it is not a competitor of Gaussian, Inc. and that
 it will not use this program in any manner prohibited above.
 ---------------------------------------------------------------
  

 Cite this work as:
 Gaussian 09, Revision E.01,
 M. J. Frisch, G. W. Trucks, H. B. Schlegel, G. E. Scuseria, 
 M. A. Robb, J. R. Cheeseman, G. Scalmani, V. Barone, B. Mennucci, 
 G. A. Petersson, H. Nakatsuji, M. Caricato, X. Li, H. P. Hratchian, 
 A. F. Izmaylov, J. Bloino, G. Zheng, J. L. Sonnenberg, M. Hada, 
 M. Ehara, K. Toyota, R. Fukuda, J. Hasegawa, M. Ishida, T. Nakajima, 
 Y. Honda, O. Kitao, H. Nakai, T. Vreven, J. A. Montgomery, Jr., 
 J. E. Peralta, F. Ogliaro, M. Bearpark, J. J. Heyd, E. Brothers, 
 K. N. Kudin, V. N. Staroverov, T. Keith, R. Kobayashi, J. Normand, 
 K. Raghavachari, A. Rendell, J. C. Burant, S. S. Iyengar, J. Tomasi, 
 M. Cossi, N. Rega, J. M. Millam, M. Klene, J. E. Knox, J. B. Cross, 
 V. Bakken, C. Adamo, J. Jaramillo, R. Gomperts, R. E. Stratmann, 
 O. Yazyev, A. J. Austin, R. Cammi, C. Pomelli, J. W. Ochterski, 
 R. L. Martin, K. Morokuma, V. G. Zakrzewski, G. A. Voth, 
 P. Salvador, J. J. Dannenberg, S. Dapprich, A. D. Daniels, 
 O. Farkas, J. B. Foresman, J. V. Ortiz, J. Cioslowski, 
 and D. J. Fox, Gaussian, Inc., Wallingford CT, 2013.
 
 ******************************************
 Gaussian 09:  ES64L-G09RevE.01 30-Nov-2015
                 9-Dec-2019 
 ******************************************
 %chk=NM3CA_c2.MP2_GTMP2LARGE.chk
 %mem=1114112000
 %nproc=4
 Will use up to    4 processors via shared memory.
 -------------------------------------------------------------
 # MP2/Gen 5D SCF=Tight INT(grid=ultrafine) maxdisk=3489660928
 -------------------------------------------------------------
 1/38=1/1;
 2/12=2,17=6,18=5,40=1/2;
 3/5=7,8=1,11=9,16=1,25=1,30=1,75=-5/1,2,3;
 4//1;
 5/5=2,32=2,38=5/2;
 8/10=1/1;
 9/16=-3/6;
 6/7=2,8=2,9=2,10=2/1;
 99/5=1,9=1/99;
 -----------------------
 NM3CA_c2.MP2_GTMP2LARGE
 -----------------------
 Symbolic Z-matrix:
 Charge =  0 Multiplicity = 1
 C                    -5.93636   1.48717   0.21397 
 N                    -4.68534   0.87579   0.07956 
 C                    -3.45117   1.47562   0.12622 
 O                    -3.23173   2.64702   0.29163 
 O                    -2.50667   0.53667  -0.0444 
 C                    -1.15177   1.01288  -0.01973 
 C                    -0.24274  -0.17902  -0.22768 
 C                     1.22346   0.24471  -0.21463 
 C                    -7.06158   0.66021   0.14195 
 C                    -8.32712   1.20612   0.27273 
 C                    -8.51499   2.56822   0.47337 
 C                    -7.38488   3.36824   0.54102 
 C                    -6.09857   2.86031   0.41586 
 H                    -4.67235  -0.12279  -0.06653 
 H                    -0.96761   1.50138   0.94019 
 H                    -1.02698   1.76082  -0.80648 
 H                    -0.49336  -0.65604  -1.17904 
 H                    -0.4342   -0.91419   0.55865 
 H                     1.43514   0.96653  -1.00716 
 H                     1.8799   -0.61325  -0.36452 
 H                     1.49458   0.7072    0.7375 
 H                    -6.94618  -0.40767  -0.00769 
 Cl                   -7.58079   5.07755   0.79766 
 H                    -5.24277   3.51529   0.47711 
 C                    -9.52915   0.31447   0.13216 
 H                    -9.50471   2.99219   0.58121 
 F                    -10.56104   0.74587   0.86706 
 F                    -9.95346   0.25926  -1.14082 
 F                    -9.2664   -0.94546   0.50717 
 
                          Input orientation:                          
 ---------------------------------------------------------------------
 Center     Atomic      Atomic             Coordinates (Angstroms)
 Number     Number       Type             X           Y           Z
 ---------------------------------------------------------------------
      1          6           0       -5.936357    1.487169    0.213966
      2          7           0       -4.685339    0.875789    0.079561
      3          6           0       -3.451168    1.475619    0.126223
      4          8           0       -3.231730    2.647023    0.291628
      5          8           0       -2.506670    0.536669   -0.044402
      6          6           0       -1.151770    1.012876   -0.019727
      7          6           0       -0.242737   -0.179022   -0.227680
      8          6           0        1.223461    0.244706   -0.214628
      9          6           0       -7.061580    0.660212    0.141950
     10          6           0       -8.327120    1.206116    0.272727
     11          6           0       -8.514994    2.568217    0.473369
     12          6           0       -7.384883    3.368239    0.541017
     13          6           0       -6.098570    2.860314    0.415861
     14          1           0       -4.672345   -0.122794   -0.066533
     15          1           0       -0.967610    1.501377    0.940191
     16          1           0       -1.026983    1.760819   -0.806481
     17          1           0       -0.493361   -0.656036   -1.179040
     18          1           0       -0.434203   -0.914188    0.558646
     19          1           0        1.435138    0.966531   -1.007161
     20          1           0        1.879899   -0.613246   -0.364515
     21          1           0        1.494575    0.707201    0.737501
     22          1           0       -6.946179   -0.407665   -0.007688
     23         17           0       -7.580787    5.077555    0.797664
     24          1           0       -5.242769    3.515289    0.477109
     25          6           0       -9.529150    0.314467    0.132159
     26          1           0       -9.504715    2.992187    0.581215
     27          9           0      -10.561035    0.745873    0.867060
     28          9           0       -9.953457    0.259262   -1.140820
     29          9           0       -9.266401   -0.945462    0.507169
 ---------------------------------------------------------------------
                    Distance matrix (angstroms):
                    1          2          3          4          5
     1  C    0.000000
     2  N    1.398891   0.000000
     3  C    2.486764   1.373008   0.000000
     4  O    2.943858   2.301135   1.203204   0.000000
     5  O    3.568327   2.208386   1.342690   2.256596   0.000000
     6  C    4.813714   3.537621   2.350035   2.663384   1.436362
     7  C    5.948827   4.576432   3.627273   4.146117   2.381427
     8  C    7.279450   5.949683   4.845976   5.086860   3.745410
     9  C    1.398275   2.386816   3.701380   4.317126   4.560395
    10  C    2.407943   3.661829   4.885591   5.295240   5.867398
    11  C    2.808082   4.205432   5.191976   5.286977   6.363587
    12  C    2.396584   3.703078   4.384995   4.222680   5.670755
    13  C    1.397356   2.459402   3.001668   2.877446   4.302664
    14  H    2.066006   1.009297   2.020731   3.142537   2.263963
    15  H    5.021558   3.866982   2.613669   2.619041   2.066105
    16  H    5.021767   3.866771   2.613034   2.617654   2.066103
    17  H    6.013318   4.637159   3.872504   4.535607   2.600647
    18  H    6.013236   4.637423   3.873014   4.536483   2.600725
    19  H    7.490070   6.216867   5.041797   5.127433   4.080384
    20  H    8.114199   6.746612   5.746690   6.098248   4.546071
    21  H    7.490073   6.217125   5.042272   5.128321   4.080492
    22  H    2.158533   2.601205   3.972379   4.818490   4.538982
    23  Cl   3.991958   5.153070   5.520736   5.007780   6.861151
    24  H    2.159533   2.726854   2.737372   2.198310   4.078037
    25  C    3.780222   4.876510   6.187905   6.717421   7.028212
    26  H    3.890133   5.287455   6.257190   6.289145   7.442688
    27  F    4.729028   5.929658   7.185512   7.593695   8.108473
    28  F    4.413649   5.442656   6.735331   7.275639   7.532179
    29  F    4.134351   4.948327   6.310602   7.026355   6.942255
                    6          7          8          9         10
     6  C    0.000000
     7  C    1.513343   0.000000
     8  C    2.503955   1.526254   0.000000
     9  C    5.922531   6.880230   8.303114   0.000000
    10  C    7.183907   8.217436   9.611213   1.384450   0.000000
    11  C    7.541837   8.744657  10.035415   2.421308   1.389559
    12  C    6.686843   8.011504   9.188636   2.756300   2.373724
    13  C    5.298452   6.628913   7.800709   2.417202   2.779082
    14  H    3.699512   4.432895   5.909105   2.522897   3.903649
    15  H    1.092699   2.170968   2.777341   6.203323   7.395611
    16  H    1.092690   2.170952   2.777298   6.207030   7.400296
    17  H    2.136066   1.093362   2.165388   6.827813   8.181871
    18  H    2.136116   1.093361   2.165373   6.824551   8.177748
    19  H    2.769344   2.176039   1.092679   8.579540   9.848715
    20  H    3.457480   2.170912   1.090623   9.045897  10.387462
    21  H    2.769472   2.176056   1.092682   8.576986   9.845335
    22  H    5.966009   6.710947   8.198258   1.084468   2.142409
    23  Cl   7.649968   9.084597  10.094352   4.495826   3.977513
    24  H    4.821326   6.256595   7.279240   3.401745   3.858403
    25  C    8.407814   9.306475  10.758427   2.491693   1.503221
    26  H    8.605260   9.823192  11.102962   3.405872   2.161469
    27  F    9.454732  10.417349  11.844643   3.574816   2.356997
    28  F    8.904745   9.763401  11.215237   3.188920   2.353640
    29  F    8.364207   9.085920  10.581810   2.751874   2.359343
                   11         12         13         14         15
    11  C    0.000000
    12  C    1.386277   0.000000
    13  C    2.434694   1.388615   0.000000
    14  H    4.722180   4.462543   3.341520   0.000000
    15  H    7.636692   6.695215   5.333702   4.168511   0.000000
    16  H    7.639386   6.694956   5.331416   4.169434   1.766833
    17  H    8.801867   8.163728   6.806379   4.357285   3.061125
    18  H    8.799636   8.164033   6.808252   4.356489   2.503009
    19  H   10.186388   9.271344   7.897352   6.274772   3.138701
    20  H   10.903098  10.124643   8.736737   6.577327   3.779179
    21  H   10.184529   9.271705   7.899064   6.274255   2.595026
    22  H    3.398304   3.840702   3.402576   2.292365   6.347141
    23  Cl   2.697162   1.739542   2.694234   6.020755   7.519539
    24  H    3.406526   2.148106   1.079416   3.722442   4.748396
    25  C    2.494860   3.753741   4.281437   4.880494   8.681107
    26  H    1.082094   2.153304   3.412705   5.785713   8.673726
    27  F    2.768070   4.131713   4.958633   6.025185   9.623406
    28  F    3.163235   4.369426   4.903966   5.402796   9.306927
    29  F    3.593285   4.706301   4.952517   4.702262   8.662820
                   16         17         18         19         20
    16  H    0.000000
    17  H    2.502947   0.000000
    18  H    3.061147   1.757753   0.000000
    19  H    2.594842   2.526139   3.079496   0.000000
    20  H    3.779084   2.509511   2.509554   1.762527   0.000000
    21  H    3.138829   3.079519   2.526079   1.764832   1.762525
    22  H    6.354312   6.562973   6.556152   8.551833   8.835680
    23  Cl   7.518402   9.328078   9.329082  10.071982  11.101372
    24  H    4.743271   6.534498   6.538288   7.300251   8.275598
    25  C    8.675241   9.181862   9.187466  11.042592  11.457474
    26  H    8.678358   9.879905   9.875953  11.238621  11.979273
    27  F    9.732883  10.368700  10.266628  12.143705  12.575405
    28  F    9.058057   9.504349   9.740706  11.411318  11.890846
    29  F    8.771410   8.938306   8.832403  10.975967  11.185267
                   21         22         23         24         25
    21  H    0.000000
    22  H    8.546612   0.000000
    23  Cl  10.073025   5.580229   0.000000
    24  H    7.303764   4.304208   2.830152   0.000000
    25  C   11.047316   2.685659   5.189029   5.360719   0.000000
    26  H   11.235211   4.295568   2.845541   4.295190   2.715223
    27  F   12.056369   3.893972   5.258342   6.008800   1.338275
    28  F   11.609745   3.282148   5.709924   5.950629   1.342966
    29  F   10.889581   2.436746   6.261183   6.007397   1.340556
                   26         27         28         29
    26  H    0.000000
    27  F    2.498689   0.000000
    28  F    3.261235   2.153491   0.000000
    29  F    3.945549   2.160142   2.153897   0.000000
 Stoichiometry    C11H11ClF3NO2
 Framework group  C1[X(C11H11ClF3NO2)]
 Deg. of freedom    81
 Full point group                 C1      NOp   1
 Largest Abelian subgroup         C1      NOp   1
 Largest concise Abelian subgroup C1      NOp   1
                         Standard orientation:                         
 ---------------------------------------------------------------------
 Center     Atomic      Atomic             Coordinates (Angstroms)
 Number     Number       Type             X           Y           Z
 ---------------------------------------------------------------------
      1          6           0        0.108098   -0.031467   -0.011090
      2          7           0       -1.202464   -0.520666   -0.008753
      3          6           0       -2.367263    0.206203   -0.001318
      4          8           0       -2.461043    1.405724    0.006077
      5          8           0       -3.407464   -0.642793   -0.003547
      6          6           0       -4.705593   -0.028014    0.003232
      7          6           0       -5.737464   -1.135010    0.000638
      8          6           0       -7.151982   -0.561823    0.007584
      9          6           0        1.140807   -0.973953   -0.031177
     10          6           0        2.459110   -0.551210   -0.039409
     11          6           0        2.790806    0.798109   -0.025620
     12          6           0        1.750354    1.713979   -0.005445
     13          6           0        0.415446    1.331604    0.002358
     14          1           0       -1.321603   -1.522880   -0.016078
     15          1           0       -4.796063    0.613444   -0.876732
     16          1           0       -4.791033    0.604591    0.890071
     17          1           0       -5.579394   -1.770915    0.875897
     18          1           0       -5.584492   -1.762141   -0.881827
     19          1           0       -7.326656    0.053404    0.893549
     20          1           0       -7.896838   -1.358469    0.005849
     21          1           0       -7.331832    0.062077   -0.871255
     22          1           0        0.912809   -2.034040   -0.048594
     23         17           0        2.127205    3.412173    0.005853
     24          1           0       -0.367102    2.074970    0.015180
     25          6           0        3.558579   -1.575528    0.000756
     26          1           0        3.821751    1.126633   -0.038010
     27          9           0        4.660841   -1.151610   -0.628760
     28          9           0        3.916631   -1.862384    1.262925
     29          9           0        3.188961   -2.731534   -0.568562
 ---------------------------------------------------------------------
 Rotational constants (GHZ):      0.5744266      0.1482224      0.1205582
 General basis read from cards:  (5D, 7F)
 There are   836 symmetry adapted cartesian basis functions of A   symmetry.
 There are   742 symmetry adapted basis functions of A   symmetry.
   742 basis functions,  1098 primitive gaussians,   836 cartesian basis functions
    72 alpha electrons       72 beta electrons
       nuclear repulsion energy      1417.9679324085 Hartrees.
 NAtoms=   29 NActive=   29 NUniq=   29 SFac= 1.00D+00 NAtFMM=   60 NAOKFM=F Big=F
 Integral buffers will be    131072 words long.
 Raffenetti 1 integral format.
 Two-electron integral symmetry is turned on.
 One-electron integrals computed using PRISM.
 NBasis=   742 RedAO= T EigKep=  2.14D-06  NBF=   742
 NBsUse=   739 1.00D-06 EigRej=  8.75D-07 NBFU=   739
 ExpMin= 3.60D-02 ExpMax= 1.06D+05 ExpMxC= 3.62D+03 IAcc=3 IRadAn=         5 AccDes= 0.00D+00
 Harris functional with IExCor=  205 and IRadAn=       5 diagonalized for initial guess.
 HarFok:  IExCor=  205 AccDes= 0.00D+00 IRadAn=         5 IDoV= 1 UseB2=F ITyADJ=14
 ICtDFT=  3500011 ScaDFX=  1.000000  1.000000  1.000000  1.000000
 FoFCou: FMM=F IPFlag=           0 FMFlag=      100000 FMFlg1=           0
         NFxFlg=           0 DoJE=T BraDBF=F KetDBF=T FulRan=T
         wScrn=  0.000000 ICntrl=     500 IOpCl=  0 I1Cent=   200000004 NGrid=           0
         NMat0=    1 NMatS0=      1 NMatT0=    0 NMatD0=    1 NMtDS0=    0 NMtDT0=    0
 Petite list used in FoFCou.
 Requested convergence on RMS density matrix=1.00D-08 within 128 cycles.
 Requested convergence on MAX density matrix=1.00D-06.
 Requested convergence on             energy=1.00D-06.
 No special actions if energy rises.
 Initial convergence to 1.0D-05 achieved.  Increase integral accuracy.
 SCF Done:  E(RHF) =  -1385.31996903     A.U. after   16 cycles
            NFock= 16  Conv=0.30D-08     -V/T= 2.0007
 ExpMin= 3.60D-02 ExpMax= 1.06D+05 ExpMxC= 3.62D+03 IAcc=3 IRadAn=         5 AccDes= 0.00D+00
 HarFok:  IExCor=  205 AccDes= 0.00D+00 IRadAn=         5 IDoV=-2 UseB2=F ITyADJ=14
 ICtDFT= 12500011 ScaDFX=  1.000000  1.000000  1.000000  1.000000
 Range of M.O.s used for correlation:    23   739
 NBasis=   742 NAE=    72 NBE=    72 NFC=    22 NFV=     0
 NROrb=    717 NOA=    50 NOB=    50 NVA=   667 NVB=   667

 **** Warning!!: The largest alpha MO coefficient is  0.11259967D+03

 Fully direct method using O(OVN) memory.
 JobTyp=1 Pass  1:  I=   1 to  10 NPSUse=  4 ParTrn=T ParDer=T DoDerP=F.
 JobTyp=1 Pass  2:  I=  11 to  24 NPSUse=  4 ParTrn=T ParDer=T DoDerP=F.
 JobTyp=1 Pass  3:  I=  25 to  50 NPSUse=  4 ParTrn=T ParDer=T DoDerP=F.
 Spin components of T(2) and E(2):
     alpha-alpha T2 =       0.1296727771D+00 E2=     -0.4345419564D+00
     alpha-beta  T2 =       0.6768892266D+00 E2=     -0.2465845237D+01
     beta-beta   T2 =       0.1296727771D+00 E2=     -0.4345419564D+00
 ANorm=    0.1391486536D+01
 E2 =    -0.3334929150D+01 EUMP2 =    -0.13886548981778D+04

 **********************************************************************

            Population analysis using the SCF density.

 **********************************************************************

 Orbital symmetries:
       Occupied  (A) (A) (A) (A) (A) (A) (A) (A) (A) (A) (A) (A)
                 (A) (A) (A) (A) (A) (A) (A) (A) (A) (A) (A) (A)
                 (A) (A) (A) (A) (A) (A) (A) (A) (A) (A) (A) (A)
                 (A) (A) (A) (A) (A) (A) (A) (A) (A) (A) (A) (A)
                 (A) (A) (A) (A) (A) (A) (A) (A) (A) (A) (A) (A)
                 (A) (A) (A) (A) (A) (A) (A) (A) (A) (A) (A) (A)
       Virtual   (A) (A) (A) (A) (A) (A) (A) (A) (A) (A) (A) (A)
                 (A) (A) (A) (A) (A) (A) (A) (A) (A) (A) (A) (A)
                 (A) (A) (A) (A) (A) (A) (A) (A) (A) (A) (A) (A)
                 (A) (A) (A) (A) (A) (A) (A) (A) (A) (A) (A) (A)
                 (A) (A) (A) (A) (A) (A) (A) (A) (A) (A) (A) (A)
                 (A) (A) (A) (A) (A) (A) (A) (A) (A) (A) (A) (A)
                 (A) (A) (A) (A) (A) (A) (A) (A) (A) (A) (A) (A)
                 (A) (A) (A) (A) (A) (A) (A) (A) (A) (A) (A) (A)
                 (A) (A) (A) (A) (A) (A) (A) (A) (A) (A) (A) (A)
                 (A) (A) (A) (A) (A) (A) (A) (A) (A) (A) (A) (A)
                 (A) (A) (A) (A) (A) (A) (A) (A) (A) (A) (A) (A)
                 (A) (A) (A) (A) (A) (A) (A) (A) (A) (A) (A) (A)
                 (A) (A) (A) (A) (A) (A) (A) (A) (A) (A) (A) (A)
                 (A) (A) (A) (A) (A) (A) (A) (A) (A) (A) (A) (A)
                 (A) (A) (A) (A) (A) (A) (A) (A) (A) (A) (A) (A)
                 (A) (A) (A) (A) (A) (A) (A) (A) (A) (A) (A) (A)
                 (A) (A) (A) (A) (A) (A) (A) (A) (A) (A) (A) (A)
                 (A) (A) (A) (A) (A) (A) (A) (A) (A) (A) (A) (A)
                 (A) (A) (A) (A) (A) (A) (A) (A) (A) (A) (A) (A)
                 (A) (A) (A) (A) (A) (A) (A) (A) (A) (A) (A) (A)
                 (A) (A) (A) (A) (A) (A) (A) (A) (A) (A) (A) (A)
                 (A) (A) (A) (A) (A) (A) (A) (A) (A) (A) (A) (A)
                 (A) (A) (A) (A) (A) (A) (A) (A) (A) (A) (A) (A)
                 (A) (A) (A) (A) (A) (A) (A) (A) (A) (A) (A) (A)
                 (A) (A) (A) (A) (A) (A) (A) (A) (A) (A) (A) (A)
                 (A) (A) (A) (A) (A) (A) (A) (A) (A) (A) (A) (A)
                 (A) (A) (A) (A) (A) (A) (A) (A) (A) (A) (A) (A)
                 (A) (A) (A) (A) (A) (A) (A) (A) (A) (A) (A) (A)
                 (A) (A) (A) (A) (A) (A) (A) (A) (A) (A) (A) (A)
                 (A) (A) (A) (A) (A) (A) (A) (A) (A) (A) (A) (A)
                 (A) (A) (A) (A) (A) (A) (A) (A) (A) (A) (A) (A)
                 (A) (A) (A) (A) (A) (A) (A) (A) (A) (A) (A) (A)
                 (A) (A) (A) (A) (A) (A) (A) (A) (A) (A) (A) (A)
                 (A) (A) (A) (A) (A) (A) (A) (A) (A) (A) (A) (A)
                 (A) (A) (A) (A) (A) (A) (A) (A) (A) (A) (A) (A)
                 (A) (A) (A) (A) (A) (A) (A) (A) (A) (A) (A) (A)
                 (A) (A) (A) (A) (A) (A) (A) (A) (A) (A) (A) (A)
                 (A) (A) (A) (A) (A) (A) (A) (A) (A) (A) (A) (A)
                 (A) (A) (A) (A) (A) (A) (A) (A) (A) (A) (A) (A)
                 (A) (A) (A) (A) (A) (A) (A) (A) (A) (A) (A) (A)
                 (A) (A) (A) (A) (A) (A) (A) (A) (A) (A) (A) (A)
                 (A) (A) (A) (A) (A) (A) (A) (A) (A) (A) (A) (A)
                 (A) (A) (A) (A) (A) (A) (A) (A) (A) (A) (A) (A)
                 (A) (A) (A) (A) (A) (A) (A) (A) (A) (A) (A) (A)
                 (A) (A) (A) (A) (A) (A) (A) (A) (A) (A) (A) (A)
                 (A) (A) (A) (A) (A) (A) (A) (A) (A) (A) (A) (A)
                 (A) (A) (A) (A) (A) (A) (A) (A) (A) (A) (A) (A)
                 (A) (A) (A) (A) (A) (A) (A) (A) (A) (A) (A) (A)
                 (A) (A) (A) (A) (A) (A) (A) (A) (A) (A) (A) (A)
                 (A) (A) (A) (A) (A) (A) (A) (A) (A) (A) (A) (A)
                 (A) (A) (A) (A) (A) (A) (A) (A) (A) (A) (A) (A)
                 (A) (A) (A) (A) (A) (A) (A) (A) (A) (A) (A) (A)
                 (A) (A) (A) (A) (A) (A) (A) (A) (A) (A) (A) (A)
                 (A) (A) (A) (A) (A) (A) (A) (A) (A) (A) (A) (A)
                 (A) (A) (A) (A) (A) (A) (A) (A) (A) (A) (A) (A)
                 (A) (A) (A) (A) (A) (A) (A)
 The electronic state is 1-A.
 Alpha  occ. eigenvalues -- -104.85174 -26.34532 -26.34421 -26.34006 -20.61718
 Alpha  occ. eigenvalues --  -20.55050 -15.62416 -11.51515 -11.42498 -11.32108
 Alpha  occ. eigenvalues --  -11.32048 -11.29690 -11.28330 -11.26683 -11.26270
 Alpha  occ. eigenvalues --  -11.25732 -11.23738 -11.22845 -10.57613  -8.04391
 Alpha  occ. eigenvalues --   -8.04219  -8.04216  -1.73696  -1.64178  -1.63680
 Alpha  occ. eigenvalues --   -1.48995  -1.38232  -1.28848  -1.20656  -1.14311
 Alpha  occ. eigenvalues --   -1.08840  -1.06648  -1.02430  -0.97773  -0.96083
 Alpha  occ. eigenvalues --   -0.89371  -0.87107  -0.83803  -0.82805  -0.82352
 Alpha  occ. eigenvalues --   -0.82205  -0.78199  -0.76514  -0.72187  -0.71805
 Alpha  occ. eigenvalues --   -0.71350  -0.71002  -0.70634  -0.68006  -0.66741
 Alpha  occ. eigenvalues --   -0.66608  -0.65327  -0.65226  -0.64255  -0.62096
 Alpha  occ. eigenvalues --   -0.61275  -0.60007  -0.58975  -0.56704  -0.55926
 Alpha  occ. eigenvalues --   -0.55650  -0.53605  -0.52827  -0.51407  -0.50159
 Alpha  occ. eigenvalues --   -0.49804  -0.47823  -0.47484  -0.46422  -0.46164
 Alpha  occ. eigenvalues --   -0.36433  -0.33602
 Alpha virt. eigenvalues --    0.03324   0.04127   0.05291   0.05497   0.05875
 Alpha virt. eigenvalues --    0.06257   0.07457   0.07816   0.08544   0.08816
 Alpha virt. eigenvalues --    0.08915   0.09208   0.09767   0.10571   0.10674
 Alpha virt. eigenvalues --    0.10958   0.11789   0.12694   0.13293   0.14174
 Alpha virt. eigenvalues --    0.14366   0.14665   0.15325   0.16284   0.16925
 Alpha virt. eigenvalues --    0.17040   0.17298   0.17670   0.17811   0.18374
 Alpha virt. eigenvalues --    0.18408   0.18635   0.18996   0.19126   0.19539
 Alpha virt. eigenvalues --    0.19863   0.20055   0.20684   0.21020   0.21276
 Alpha virt. eigenvalues --    0.22196   0.22401   0.23348   0.23579   0.24089
 Alpha virt. eigenvalues --    0.24348   0.24756   0.25146   0.25479   0.26243
 Alpha virt. eigenvalues --    0.26426   0.27737   0.28176   0.28769   0.29343
 Alpha virt. eigenvalues --    0.29723   0.30185   0.30611   0.31058   0.31350
 Alpha virt. eigenvalues --    0.31530   0.31955   0.33052   0.33150   0.33951
 Alpha virt. eigenvalues --    0.34637   0.35233   0.35909   0.36523   0.36973
 Alpha virt. eigenvalues --    0.37592   0.37846   0.38465   0.39190   0.39493
 Alpha virt. eigenvalues --    0.39866   0.40027   0.40190   0.40487   0.40743
 Alpha virt. eigenvalues --    0.41422   0.41649   0.41792   0.43099   0.43792
 Alpha virt. eigenvalues --    0.44254   0.44745   0.45220   0.45641   0.46248
 Alpha virt. eigenvalues --    0.46503   0.46540   0.46810   0.47735   0.48139
 Alpha virt. eigenvalues --    0.48811   0.49618   0.50893   0.51588   0.51805
 Alpha virt. eigenvalues --    0.52574   0.53795   0.54221   0.54628   0.54930
 Alpha virt. eigenvalues --    0.55230   0.56001   0.56241   0.56352   0.58046
 Alpha virt. eigenvalues --    0.58420   0.59648   0.59917   0.61131   0.61805
 Alpha virt. eigenvalues --    0.62866   0.63204   0.63854   0.64252   0.66475
 Alpha virt. eigenvalues --    0.67304   0.67661   0.68590   0.69598   0.69650
 Alpha virt. eigenvalues --    0.69900   0.70903   0.71347   0.71666   0.72381
 Alpha virt. eigenvalues --    0.73300   0.73464   0.73824   0.74812   0.75225
 Alpha virt. eigenvalues --    0.76208   0.77516   0.77986   0.78256   0.78803
 Alpha virt. eigenvalues --    0.78847   0.79731   0.80397   0.81180   0.82338
 Alpha virt. eigenvalues --    0.83050   0.83822   0.84105   0.84467   0.84822
 Alpha virt. eigenvalues --    0.85197   0.85828   0.86490   0.86932   0.87661
 Alpha virt. eigenvalues --    0.87850   0.88967   0.89700   0.90992   0.91414
 Alpha virt. eigenvalues --    0.92359   0.93319   0.93853   0.94646   0.95246
 Alpha virt. eigenvalues --    0.95852   0.96442   0.96507   0.97140   0.97701
 Alpha virt. eigenvalues --    0.99840   1.01183   1.01737   1.02545   1.03232
 Alpha virt. eigenvalues --    1.03613   1.04661   1.05499   1.06076   1.06301
 Alpha virt. eigenvalues --    1.06492   1.07933   1.08723   1.09523   1.10052
 Alpha virt. eigenvalues --    1.11114   1.12886   1.13786   1.14533   1.15771
 Alpha virt. eigenvalues --    1.17990   1.18502   1.20451   1.21226   1.21922
 Alpha virt. eigenvalues --    1.22503   1.23450   1.23802   1.24794   1.26193
 Alpha virt. eigenvalues --    1.27247   1.27614   1.29122   1.30047   1.30253
 Alpha virt. eigenvalues --    1.30559   1.31340   1.32185   1.32914   1.33422
 Alpha virt. eigenvalues --    1.34168   1.34902   1.35725   1.35938   1.36309
 Alpha virt. eigenvalues --    1.37963   1.38110   1.38533   1.39435   1.39540
 Alpha virt. eigenvalues --    1.40010   1.40335   1.41386   1.42072   1.43318
 Alpha virt. eigenvalues --    1.45333   1.45641   1.46229   1.47333   1.47933
 Alpha virt. eigenvalues --    1.48857   1.49485   1.49653   1.51106   1.51648
 Alpha virt. eigenvalues --    1.52604   1.53558   1.55322   1.56914   1.57187
 Alpha virt. eigenvalues --    1.57322   1.58156   1.58894   1.59487   1.60685
 Alpha virt. eigenvalues --    1.61266   1.61591   1.62895   1.63618   1.64214
 Alpha virt. eigenvalues --    1.64791   1.66410   1.66737   1.67349   1.67615
 Alpha virt. eigenvalues --    1.67668   1.68290   1.69592   1.70094   1.71017
 Alpha virt. eigenvalues --    1.71661   1.73164   1.73739   1.74325   1.74329
 Alpha virt. eigenvalues --    1.75002   1.77011   1.77381   1.77835   1.78576
 Alpha virt. eigenvalues --    1.79513   1.80881   1.81762   1.82584   1.82934
 Alpha virt. eigenvalues --    1.84864   1.84985   1.86463   1.87103   1.87599
 Alpha virt. eigenvalues --    1.91263   1.93052   1.93434   1.95031   1.95649
 Alpha virt. eigenvalues --    1.96280   1.97470   1.98782   2.01098   2.02386
 Alpha virt. eigenvalues --    2.04275   2.04957   2.08015   2.10296   2.11654
 Alpha virt. eigenvalues --    2.12631   2.14655   2.20164   2.21607   2.22740
 Alpha virt. eigenvalues --    2.26616   2.26962   2.28161   2.29067   2.32002
 Alpha virt. eigenvalues --    2.32728   2.33628   2.35321   2.38608   2.39375
 Alpha virt. eigenvalues --    2.43654   2.43979   2.45771   2.46732   2.47704
 Alpha virt. eigenvalues --    2.49956   2.50418   2.56672   2.57200   2.60139
 Alpha virt. eigenvalues --    2.62544   2.63110   2.64604   2.68012   2.72448
 Alpha virt. eigenvalues --    2.76907   2.81049   2.81765   2.84525   2.85331
 Alpha virt. eigenvalues --    2.87109   2.88507   2.91011   2.93538   2.94071
 Alpha virt. eigenvalues --    2.94787   2.95200   2.96896   2.98308   2.98517
 Alpha virt. eigenvalues --    2.99812   3.03083   3.03918   3.04109   3.05142
 Alpha virt. eigenvalues --    3.06814   3.08021   3.09846   3.10727   3.11184
 Alpha virt. eigenvalues --    3.11379   3.12146   3.13095   3.13740   3.13788
 Alpha virt. eigenvalues --    3.16953   3.17740   3.18032   3.19184   3.19706
 Alpha virt. eigenvalues --    3.20058   3.21061   3.22078   3.23804   3.24820
 Alpha virt. eigenvalues --    3.25514   3.25814   3.27402   3.28021   3.31283
 Alpha virt. eigenvalues --    3.32986   3.34378   3.35310   3.35949   3.37030
 Alpha virt. eigenvalues --    3.37418   3.39376   3.40832   3.41170   3.42440
 Alpha virt. eigenvalues --    3.43509   3.45258   3.45791   3.46192   3.47418
 Alpha virt. eigenvalues --    3.48721   3.48938   3.50360   3.50676   3.51786
 Alpha virt. eigenvalues --    3.52550   3.54161   3.55682   3.56297   3.56886
 Alpha virt. eigenvalues --    3.58113   3.59244   3.62117   3.62216   3.62660
 Alpha virt. eigenvalues --    3.65894   3.66674   3.66900   3.68058   3.68760
 Alpha virt. eigenvalues --    3.69232   3.69545   3.70583   3.70774   3.71475
 Alpha virt. eigenvalues --    3.72361   3.72455   3.72584   3.73378   3.75854
 Alpha virt. eigenvalues --    3.76330   3.77867   3.78661   3.80160   3.80747
 Alpha virt. eigenvalues --    3.81644   3.82450   3.83390   3.85560   3.86345
 Alpha virt. eigenvalues --    3.86819   3.87393   3.88272   3.89418   3.90482
 Alpha virt. eigenvalues --    3.91271   3.92049   3.93343   3.93398   3.94426
 Alpha virt. eigenvalues --    3.95447   3.97300   3.98530   3.99176   4.00124
 Alpha virt. eigenvalues --    4.00263   4.01323   4.03614   4.03970   4.04071
 Alpha virt. eigenvalues --    4.05588   4.07645   4.09853   4.10803   4.11487
 Alpha virt. eigenvalues --    4.13764   4.14474   4.16044   4.17061   4.17269
 Alpha virt. eigenvalues --    4.17670   4.20187   4.21794   4.23288   4.26312
 Alpha virt. eigenvalues --    4.26600   4.27543   4.28241   4.30972   4.32225
 Alpha virt. eigenvalues --    4.32728   4.33619   4.34859   4.36478   4.37543
 Alpha virt. eigenvalues --    4.38887   4.39392   4.40488   4.40948   4.42438
 Alpha virt. eigenvalues --    4.43380   4.46927   4.47759   4.49772   4.50768
 Alpha virt. eigenvalues --    4.52152   4.55943   4.56098   4.56346   4.59356
 Alpha virt. eigenvalues --    4.60988   4.61079   4.61497   4.64557   4.64712
 Alpha virt. eigenvalues --    4.67044   4.67785   4.69229   4.69262   4.70393
 Alpha virt. eigenvalues --    4.72693   4.72980   4.73417   4.74617   4.75987
 Alpha virt. eigenvalues --    4.78358   4.79225   4.79897   4.80227   4.81383
 Alpha virt. eigenvalues --    4.82417   4.83099   4.84629   4.85066   4.85544
 Alpha virt. eigenvalues --    4.85757   4.86730   4.88931   4.89734   4.90483
 Alpha virt. eigenvalues --    4.92288   4.92364   4.93190   4.94291   4.95796
 Alpha virt. eigenvalues --    4.96703   4.99781   4.99830   5.01124   5.03601
 Alpha virt. eigenvalues --    5.07017   5.07300   5.08710   5.10212   5.15815
 Alpha virt. eigenvalues --    5.16409   5.17489   5.18996   5.31637   5.33158
 Alpha virt. eigenvalues --    5.37536   5.38229   5.41256   5.42013   5.49847
 Alpha virt. eigenvalues --    5.52615   5.53884   5.55752   5.60449   5.62589
 Alpha virt. eigenvalues --    5.63914   5.66290   5.66345   5.67060   5.68346
 Alpha virt. eigenvalues --    5.71380   5.71520   5.73963   5.76965   5.79317
 Alpha virt. eigenvalues --    5.79941   5.84232   5.84697   5.87837   5.88388
 Alpha virt. eigenvalues --    5.94753   5.95148   5.99045   6.01283   6.02272
 Alpha virt. eigenvalues --    6.03873   6.05583   6.13706   6.14925   6.15126
 Alpha virt. eigenvalues --    6.17497   6.22434   6.23003   6.28224   6.29427
 Alpha virt. eigenvalues --    6.31858   6.39849   6.43794   6.48801   6.51393
 Alpha virt. eigenvalues --    6.63441   6.66227   6.86317   6.89277   6.93955
 Alpha virt. eigenvalues --    6.97115   6.98305   6.99539   7.01092   7.03721
 Alpha virt. eigenvalues --    7.06477   7.06529   7.08719   7.11402   7.11496
 Alpha virt. eigenvalues --    7.11573   7.11711   7.12987   7.14916   7.15269
 Alpha virt. eigenvalues --    7.16813   7.17171   7.23838   7.24806   7.26216
 Alpha virt. eigenvalues --    7.34594   7.36167   7.37754   7.38491   7.39194
 Alpha virt. eigenvalues --    7.52764   7.54716   7.56433   7.61658   7.67595
 Alpha virt. eigenvalues --    7.73420   7.76303   7.77038   7.79822   7.84491
 Alpha virt. eigenvalues --    7.87570   7.90031   7.91326   7.94974   8.15810
 Alpha virt. eigenvalues --    8.28706   8.35486   8.36672   8.42916   8.45641
 Alpha virt. eigenvalues --    9.68733   9.71060   9.72454   9.82708   9.83227
 Alpha virt. eigenvalues --    9.86519  10.02923  10.11907  10.12712  10.23003
 Alpha virt. eigenvalues --   10.39424  10.52217  10.57057  10.64716  10.75819
 Alpha virt. eigenvalues --   10.76525  21.80447  21.90740  22.19028  25.00559
 Alpha virt. eigenvalues --   25.38201  25.51135  25.58478  25.60285  25.66878
 Alpha virt. eigenvalues --   25.70192  25.86067  25.87817  26.11049  26.29613
 Alpha virt. eigenvalues --   37.36169  51.79498  51.94904  68.83788  68.84142
 Alpha virt. eigenvalues --   68.86133 220.08213
          Condensed to atoms (all electrons):
               1          2          3          4          5          6
     1  C   21.089670  -0.596723  -0.165172  -0.464087  -0.106264  -0.638600
     2  N   -0.596723   7.001666   0.512983   0.029123   0.092892  -0.164115
     3  C   -0.165172   0.512983   7.477069   0.412623   0.226595  -0.510325
     4  O   -0.464087   0.029123   0.412623   8.138437  -0.075310  -0.143024
     5  O   -0.106264   0.092892   0.226595  -0.075310   8.109142   0.263995
     6  C   -0.638600  -0.164115  -0.510325  -0.143024   0.263995   6.816368
     7  C    0.005449  -0.057480   0.094840   0.053182  -0.209331  -0.523632
     8  C   -0.018857  -0.004527  -0.181571   0.002257   0.029739   0.338184
     9  C    4.014928  -0.116911   0.086591  -0.054865   0.006645  -0.038863
    10  C   -6.850844   0.010807  -1.578263   0.008264   0.008449  -0.184450
    11  C   -1.852779  -0.004810  -0.112509   0.002771  -0.003100  -0.006278
    12  C   -5.532789   0.219994  -0.212347   0.168833  -0.000958   0.002033
    13  C   -0.815063   0.176655  -0.238043   0.379066  -0.020314  -0.123173
    14  H    0.113870   0.414555  -0.008801   0.005806  -0.010018  -0.004798
    15  H    0.000278   0.005898   0.037678  -0.009700  -0.048149   0.463257
    16  H   -0.001413   0.006704   0.035108  -0.009890  -0.048666   0.463759
    17  H    0.002339   0.001865   0.003139  -0.000983   0.000676  -0.022565
    18  H    0.002815   0.001915   0.003864  -0.001084   0.000454  -0.023070
    19  H    0.000453   0.000007   0.000016   0.000393  -0.000151  -0.022759
    20  H   -0.000397  -0.000783   0.001932   0.000444  -0.002386   0.015330
    21  H    0.000328   0.000053  -0.000274   0.000421  -0.000106  -0.022911
    22  H   -0.250361  -0.024755   0.006383  -0.000525   0.001519   0.003909
    23  Cl  -0.195114   0.009971  -0.017115   0.001578   0.000432   0.000006
    24  H   -0.082094  -0.016352   0.035348   0.004691   0.003886   0.001659
    25  C   -1.873502  -0.054368  -0.364499   0.001712  -0.000915  -0.018415
    26  H    0.033411   0.000465   0.000752   0.000129  -0.000009  -0.000058
    27  F    0.019975   0.000036   0.000149   0.000000   0.000000  -0.000004
    28  F   -0.025665  -0.000092  -0.002182   0.000002  -0.000003  -0.000031
    29  F    0.057293   0.001298  -0.001792  -0.000001  -0.000001  -0.000012
               7          8          9         10         11         12
     1  C    0.005449  -0.018857   4.014928  -6.850844  -1.852779  -5.532789
     2  N   -0.057480  -0.004527  -0.116911   0.010807  -0.004810   0.219994
     3  C    0.094840  -0.181571   0.086591  -1.578263  -0.112509  -0.212347
     4  O    0.053182   0.002257  -0.054865   0.008264   0.002771   0.168833
     5  O   -0.209331   0.029739   0.006645   0.008449  -0.003100  -0.000958
     6  C   -0.523632   0.338184  -0.038863  -0.184450  -0.006278   0.002033
     7  C    5.767945  -0.052586   0.001322   0.000733   0.000037  -0.003272
     8  C   -0.052586   5.169481   0.004102  -0.000620  -0.000115  -0.000510
     9  C    0.001322   0.004102  12.914327  -1.109132  -2.739341  -2.938291
    10  C    0.000733  -0.000620  -1.109132  20.199369   0.864248  -0.848561
    11  C    0.000037  -0.000115  -2.739341   0.864248   9.637157   1.018516
    12  C   -0.003272  -0.000510  -2.938291  -0.848561   1.018516  11.548937
    13  C   -0.002321  -0.006944  -1.860448  -2.349744  -1.155031   1.727007
    14  H   -0.007049  -0.005731  -0.114351  -0.184428  -0.001552   0.012500
    15  H   -0.070018  -0.007764   0.003367  -0.000055  -0.000217  -0.000836
    16  H   -0.069936  -0.007430   0.002112   0.000757  -0.000245   0.000117
    17  H    0.429338  -0.030187   0.000876   0.000315   0.000017  -0.000344
    18  H    0.427691  -0.029305   0.001487   0.000700   0.000012  -0.000381
    19  H   -0.006261   0.418560  -0.000128  -0.000011   0.000006   0.000006
    20  H   -0.036857   0.410254  -0.000083  -0.000051  -0.000000  -0.000005
    21  H   -0.005437   0.417856  -0.000271  -0.000033   0.000009   0.000032
    22  H    0.001171   0.000508   0.431032   0.183221   0.015659   0.036748
    23  Cl   0.000011  -0.000001   0.029077  -0.009637  -0.183190  -0.015808
    24  H    0.003220  -0.000257  -0.000996  -0.014245  -0.011958  -0.021493
    25  C   -0.000501  -0.000080  -1.987011  -1.669081   0.408729   0.250534
    26  H    0.000002  -0.000001   0.072591   0.013135   0.438766  -0.104401
    27  F    0.000000   0.000000   0.037409  -0.049454  -0.043009   0.052900
    28  F   -0.000001  -0.000000  -0.025607   0.127857  -0.092196  -0.027647
    29  F   -0.000003   0.000000   0.091186  -0.323352   0.062581   0.001645
              13         14         15         16         17         18
     1  C   -0.815063   0.113870   0.000278  -0.001413   0.002339   0.002815
     2  N    0.176655   0.414555   0.005898   0.006704   0.001865   0.001915
     3  C   -0.238043  -0.008801   0.037678   0.035108   0.003139   0.003864
     4  O    0.379066   0.005806  -0.009700  -0.009890  -0.000983  -0.001084
     5  O   -0.020314  -0.010018  -0.048149  -0.048666   0.000676   0.000454
     6  C   -0.123173  -0.004798   0.463257   0.463759  -0.022565  -0.023070
     7  C   -0.002321  -0.007049  -0.070018  -0.069936   0.429338   0.427691
     8  C   -0.006944  -0.005731  -0.007764  -0.007430  -0.030187  -0.029305
     9  C   -1.860448  -0.114351   0.003367   0.002112   0.000876   0.001487
    10  C   -2.349744  -0.184428  -0.000055   0.000757   0.000315   0.000700
    11  C   -1.155031  -0.001552  -0.000217  -0.000245   0.000017   0.000012
    12  C    1.727007   0.012500  -0.000836   0.000117  -0.000344  -0.000381
    13  C   10.184105   0.109863  -0.005861  -0.003042  -0.001716  -0.001924
    14  H    0.109863   0.463104   0.000168   0.000153   0.000661   0.000541
    15  H   -0.005861   0.000168   0.587921  -0.052539   0.007434  -0.010186
    16  H   -0.003042   0.000153  -0.052539   0.588320  -0.010136   0.007476
    17  H   -0.001716   0.000661   0.007434  -0.010136   0.626542  -0.047036
    18  H   -0.001924   0.000541  -0.010186   0.007476  -0.047036   0.626740
    19  H    0.000061   0.000084   0.000305  -0.000291  -0.007741   0.005401
    20  H   -0.000044  -0.000009  -0.001878  -0.001906  -0.005747  -0.005878
    21  H    0.000230   0.000119  -0.000200   0.000273   0.005424  -0.007800
    22  H    0.000334  -0.008150   0.000066  -0.000056  -0.000052  -0.000099
    23  Cl  -0.138139  -0.000490   0.000012  -0.000083  -0.000004  -0.000007
    24  H    0.420466  -0.001541  -0.000917  -0.001140  -0.000115  -0.000121
    25  C    0.111126  -0.004682  -0.000148   0.000154   0.000001   0.000055
    26  H   -0.014355   0.000914  -0.000002  -0.000007  -0.000001  -0.000001
    27  F    0.006866  -0.000230   0.000000   0.000000   0.000000   0.000000
    28  F   -0.004845   0.000251  -0.000000   0.000000  -0.000000   0.000000
    29  F    0.003163   0.003538  -0.000001   0.000000  -0.000000  -0.000001
              19         20         21         22         23         24
     1  C    0.000453  -0.000397   0.000328  -0.250361  -0.195114  -0.082094
     2  N    0.000007  -0.000783   0.000053  -0.024755   0.009971  -0.016352
     3  C    0.000016   0.001932  -0.000274   0.006383  -0.017115   0.035348
     4  O    0.000393   0.000444   0.000421  -0.000525   0.001578   0.004691
     5  O   -0.000151  -0.002386  -0.000106   0.001519   0.000432   0.003886
     6  C   -0.022759   0.015330  -0.022911   0.003909   0.000006   0.001659
     7  C   -0.006261  -0.036857  -0.005437   0.001171   0.000011   0.003220
     8  C    0.418560   0.410254   0.417856   0.000508  -0.000001  -0.000257
     9  C   -0.000128  -0.000083  -0.000271   0.431032   0.029077  -0.000996
    10  C   -0.000011  -0.000051  -0.000033   0.183221  -0.009637  -0.014245
    11  C    0.000006  -0.000000   0.000009   0.015659  -0.183190  -0.011958
    12  C    0.000006  -0.000005   0.000032   0.036748  -0.015808  -0.021493
    13  C    0.000061  -0.000044   0.000230   0.000334  -0.138139   0.420466
    14  H    0.000084  -0.000009   0.000119  -0.008150  -0.000490  -0.001541
    15  H    0.000305  -0.001878  -0.000200   0.000066   0.000012  -0.000917
    16  H   -0.000291  -0.001906   0.000273  -0.000056  -0.000083  -0.001140
    17  H   -0.007741  -0.005747   0.005424  -0.000052  -0.000004  -0.000115
    18  H    0.005401  -0.005878  -0.007800  -0.000099  -0.000007  -0.000121
    19  H    0.622160  -0.025742  -0.042670  -0.000004   0.000001   0.000020
    20  H   -0.025742   0.588716  -0.025648   0.000010   0.000000   0.000030
    21  H   -0.042670  -0.025648   0.622264  -0.000006   0.000000   0.000010
    22  H   -0.000004   0.000010  -0.000006   0.521002   0.000301   0.002584
    23  Cl   0.000001   0.000000   0.000000   0.000301  17.709637   0.025492
    24  H    0.000020   0.000030   0.000010   0.002584   0.025492   0.400484
    25  C   -0.000000  -0.000005   0.000001  -0.046287  -0.038876  -0.003757
    26  H    0.000000   0.000000   0.000000  -0.000727   0.002954   0.000956
    27  F   -0.000000   0.000000  -0.000000   0.001477   0.001978   0.000171
    28  F    0.000000  -0.000000   0.000000  -0.001549   0.000627   0.000066
    29  F    0.000000  -0.000000   0.000000  -0.015960  -0.000069   0.000024
              25         26         27         28         29
     1  C   -1.873502   0.033411   0.019975  -0.025665   0.057293
     2  N   -0.054368   0.000465   0.000036  -0.000092   0.001298
     3  C   -0.364499   0.000752   0.000149  -0.002182  -0.001792
     4  O    0.001712   0.000129   0.000000   0.000002  -0.000001
     5  O   -0.000915  -0.000009   0.000000  -0.000003  -0.000001
     6  C   -0.018415  -0.000058  -0.000004  -0.000031  -0.000012
     7  C   -0.000501   0.000002   0.000000  -0.000001  -0.000003
     8  C   -0.000080  -0.000001   0.000000  -0.000000   0.000000
     9  C   -1.987011   0.072591   0.037409  -0.025607   0.091186
    10  C   -1.669081   0.013135  -0.049454   0.127857  -0.323352
    11  C    0.408729   0.438766  -0.043009  -0.092196   0.062581
    12  C    0.250534  -0.104401   0.052900  -0.027647   0.001645
    13  C    0.111126  -0.014355   0.006866  -0.004845   0.003163
    14  H   -0.004682   0.000914  -0.000230   0.000251   0.003538
    15  H   -0.000148  -0.000002   0.000000  -0.000000  -0.000001
    16  H    0.000154  -0.000007   0.000000   0.000000   0.000000
    17  H    0.000001  -0.000001   0.000000  -0.000000  -0.000000
    18  H    0.000055  -0.000001   0.000000   0.000000  -0.000001
    19  H   -0.000000   0.000000  -0.000000   0.000000   0.000000
    20  H   -0.000005   0.000000   0.000000  -0.000000  -0.000000
    21  H    0.000001   0.000000  -0.000000   0.000000   0.000000
    22  H   -0.046287  -0.000727   0.001477  -0.001549  -0.015960
    23  Cl  -0.038876   0.002954   0.001978   0.000627  -0.000069
    24  H   -0.003757   0.000956   0.000171   0.000066   0.000024
    25  C    9.445392  -0.059118   0.141335   0.237711   0.296369
    26  H   -0.059118   0.449351  -0.001364   0.000264   0.000520
    27  F    0.141335  -0.001364   9.064779   0.009843   0.030068
    28  F    0.237711   0.000264   0.009843   9.040192   0.007915
    29  F    0.296369   0.000520   0.030068   0.007915   9.066079
 Mulliken charges:
               1
     1  C    0.128914
     2  N   -0.445970
     3  C    0.457822
     4  O   -0.450263
     5  O   -0.218744
     6  C    0.078584
     7  C    0.259744
     8  C   -0.444455
     9  C   -0.710754
    10  C   -0.245896
    11  C   -0.242177
    12  C    0.667843
    13  C   -0.377933
    14  H    0.225704
    15  H    0.102085
    16  H    0.101847
    17  H    0.048000
    18  H    0.047743
    19  H    0.058286
    20  H    0.090703
    21  H    0.058337
    22  H    0.142608
    23  Cl  -0.183546
    24  H    0.255879
    25  C    1.228130
    26  H    0.165833
    27  F   -0.272926
    28  F   -0.244910
    29  F   -0.280486
 Sum of Mulliken charges =  -0.00000
 Mulliken charges with hydrogens summed into heavy atoms:
               1
     1  C    0.128914
     2  N   -0.220266
     3  C    0.457822
     4  O   -0.450263
     5  O   -0.218744
     6  C    0.282516
     7  C    0.355487
     8  C   -0.237129
     9  C   -0.568146
    10  C   -0.245896
    11  C   -0.076344
    12  C    0.667843
    13  C   -0.122055
    23  Cl  -0.183546
    25  C    1.228130
    27  F   -0.272926
    28  F   -0.244910
    29  F   -0.280486
 Electronic spatial extent (au):  <R**2>=           8269.0883
 Charge=             -0.0000 electrons
 Dipole moment (field-independent basis, Debye):
    X=             -4.1205    Y=             -2.1778    Z=             -0.1025  Tot=              4.6618
 Quadrupole moment (field-independent basis, Debye-Ang):
   XX=           -103.8158   YY=           -117.1532   ZZ=           -112.9182
   XY=              9.4993   XZ=             -0.3106   YZ=              0.1396
 Traceless Quadrupole moment (field-independent basis, Debye-Ang):
   XX=              7.4800   YY=             -5.8575   ZZ=             -1.6225
   XY=              9.4993   XZ=             -0.3106   YZ=              0.1396
 Octapole moment (field-independent basis, Debye-Ang**2):
  XXX=            -86.3367  YYY=            -39.2334  ZZZ=             -0.8817  XYY=              5.5610
  XXY=             -0.5039  XXZ=             -0.2326  XZZ=              4.4530  YZZ=             -7.8011
  YYZ=              0.7344  XYZ=              0.9892
 Hexadecapole moment (field-independent basis, Debye-Ang**3):
 XXXX=          -7806.9031 YYYY=          -1897.0684 ZZZZ=           -200.0906 XXXY=             60.7273
 XXXZ=              4.9057 YYYX=            -77.6950 YYYZ=             -3.7014 ZZZX=             -4.2548
 ZZZY=              2.3789 XXYY=          -1759.8233 XXZZ=          -1415.9991 YYZZ=           -358.4052
 XXYZ=              4.1633 YYXZ=              0.7957 ZZXY=            -37.7163
 N-N= 1.417967932408D+03 E-N=-6.111248763075D+03  KE= 1.384381854437D+03
 1\1\GINC-R3719\SP\RMP2-FC\Gen\C11H11Cl1F3N1O2\ROOT\09-Dec-2019\0\\# MP
 2/Gen 5D SCF=Tight INT(grid=ultrafine) maxdisk=3489660928\\NM3CA_c2.MP
 2_GTMP2LARGE\\0,1\C,0,-5.9363567378,1.4871685131,0.2139658711\N,0,-4.6
 853388909,0.8757892616,0.0795614564\C,0,-3.4511677975,1.475619194,0.12
 62232574\O,0,-3.2317298801,2.6470234401,0.2916282537\O,0,-2.5066698127
 ,0.5366687427,-0.0444015202\C,0,-1.1517696602,1.0128764794,-0.01972713
 48\C,0,-0.2427370649,-0.1790216373,-0.2276800899\C,0,1.2234609946,0.24
 47063279,-0.2146277537\C,0,-7.0615804509,0.660212118,0.1419496509\C,0,
 -8.3271195545,1.206115539,0.2727268139\C,0,-8.5149941624,2.5682171936,
 0.4733689354\C,0,-7.3848828587,3.3682391418,0.5410166345\C,0,-6.098569
 7763,2.8603143526,0.4158612955\H,0,-4.6723450703,-0.1227935437,-0.0665
 32715\H,0,-0.9676104547,1.5013770129,0.94019098\H,0,-1.0269831357,1.76
 08188425,-0.8064807907\H,0,-0.4933609552,-0.6560361718,-1.1790401409\H
 ,0,-0.4342034094,-0.9141876367,0.5586463706\H,0,1.4351380334,0.9665312
 717,-1.0071614225\H,0,1.879898769,-0.6132456076,-0.3645154449\H,0,1.49
 45754304,0.7072008053,0.7375011861\H,0,-6.9461794053,-0.4076650211,-0.
 0076883987\Cl,0,-7.5807874619,5.0775547305,0.7976637603\H,0,-5.2427687
 981,3.5152890208,0.4771091532\C,0,-9.5291495216,0.3144669474,0.1321585
 646\H,0,-9.5047148548,2.9921872255,0.581214573\F,0,-10.5610352639,0.74
 58733944,0.8670596835\F,0,-9.9534568902,0.2592616547,-1.140819919\F,0,
 -9.2664013594,-0.9454615912,0.5071688903\\Version=ES64L-G09RevE.01\Sta
 te=1-A\HF=-1385.319969\MP2=-1388.6548982\RMSD=3.006e-09\PG=C01 [X(C11H
 11Cl1F3N1O2)]\\@


 IF YOU PERCEIVE THAT THERE ARE FOUR POSSIBLE WAYS IN
 WHICH A PROCEDURE CAN GO WRONG AND CIRCUMVENT THESE, 
 THEN A FIFTH WAY WILL DEVELOP.

                              -- MURPHY'S TWELFTH LAW
 Job cpu time:       0 days  3 hours 22 minutes 29.0 seconds.
 File lengths (MBytes):  RWF=    295 Int=      0 D2E=      0 Chk=     33 Scr=      1
 Normal termination of Gaussian 09 at Mon Dec  9 12:27:02 2019.
pbs_rusage has been removed.
Please contact help@nci.org.au if you require this functionality.
