 Entering Gaussian System, Link 0=/apps/gaussian/g09e01/g09/g09
 Initial command:
 /apps/gaussian/g09e01/g09/l1.exe "/jobfs/local/3588870.r-man2/Gau-6727.inp" -scrdir="/jobfs/local/3588870.r-man2/"
 Entering Link 1 = /apps/gaussian/g09e01/g09/l1.exe PID=      6728.
  
 Copyright (c) 1988,1990,1992,1993,1995,1998,2003,2009,2015,
            Gaussian, Inc.  All Rights Reserved.
  
 This is part of the Gaussian(R) 09 program.  It is based on
 the Gaussian(R) 03 system (copyright 2003, Gaussian, Inc.),
 the Gaussian(R) 98 system (copyright 1998, Gaussian, Inc.),
 the Gaussian(R) 94 system (copyright 1995, Gaussian, Inc.),
 the Gaussian 92(TM) system (copyright 1992, Gaussian, Inc.),
 the Gaussian 90(TM) system (copyright 1990, Gaussian, Inc.),
 the Gaussian 88(TM) system (copyright 1988, Gaussian, Inc.),
 the Gaussian 86(TM) system (copyright 1986, Carnegie Mellon
 University), and the Gaussian 82(TM) system (copyright 1983,
 Carnegie Mellon University). Gaussian is a federally registered
 trademark of Gaussian, Inc.
  
 This software contains proprietary and confidential information,
 including trade secrets, belonging to Gaussian, Inc.
  
 This software is provided under written license and may be
 used, copied, transmitted, or stored only in accord with that
 written license.
  
 The following legend is applicable only to US Government
 contracts under FAR:
  
                    RESTRICTED RIGHTS LEGEND
  
 Use, reproduction and disclosure by the US Government is
 subject to restrictions as set forth in subparagraphs (a)
 and (c) of the Commercial Computer Software - Restricted
 Rights clause in FAR 52.227-19.
  
 Gaussian, Inc.
 340 Quinnipiac St., Bldg. 40, Wallingford CT 06492
  
  
 ---------------------------------------------------------------
 Warning -- This program may not be used in any manner that
 competes with the business of Gaussian, Inc. or will provide
 assistance to any competitor of Gaussian, Inc.  The licensee
 of this program is prohibited from giving any competitor of
 Gaussian, Inc. access to this program.  By using this program,
 the user acknowledges that Gaussian, Inc. is engaged in the
 business of creating and licensing software in the field of
 computational chemistry and represents and warrants to the
 licensee that it is not a competitor of Gaussian, Inc. and that
 it will not use this program in any manner prohibited above.
 ---------------------------------------------------------------
  

 Cite this work as:
 Gaussian 09, Revision E.01,
 M. J. Frisch, G. W. Trucks, H. B. Schlegel, G. E. Scuseria, 
 M. A. Robb, J. R. Cheeseman, G. Scalmani, V. Barone, B. Mennucci, 
 G. A. Petersson, H. Nakatsuji, M. Caricato, X. Li, H. P. Hratchian, 
 A. F. Izmaylov, J. Bloino, G. Zheng, J. L. Sonnenberg, M. Hada, 
 M. Ehara, K. Toyota, R. Fukuda, J. Hasegawa, M. Ishida, T. Nakajima, 
 Y. Honda, O. Kitao, H. Nakai, T. Vreven, J. A. Montgomery, Jr., 
 J. E. Peralta, F. Ogliaro, M. Bearpark, J. J. Heyd, E. Brothers, 
 K. N. Kudin, V. N. Staroverov, T. Keith, R. Kobayashi, J. Normand, 
 K. Raghavachari, A. Rendell, J. C. Burant, S. S. Iyengar, J. Tomasi, 
 M. Cossi, N. Rega, J. M. Millam, M. Klene, J. E. Knox, J. B. Cross, 
 V. Bakken, C. Adamo, J. Jaramillo, R. Gomperts, R. E. Stratmann, 
 O. Yazyev, A. J. Austin, R. Cammi, C. Pomelli, J. W. Ochterski, 
 R. L. Martin, K. Morokuma, V. G. Zakrzewski, G. A. Voth, 
 P. Salvador, J. J. Dannenberg, S. Dapprich, A. D. Daniels, 
 O. Farkas, J. B. Foresman, J. V. Ortiz, J. Cioslowski, 
 and D. J. Fox, Gaussian, Inc., Wallingford CT, 2013.
 
 ******************************************
 Gaussian 09:  ES64L-G09RevE.01 30-Nov-2015
                14-Nov-2019 
 ******************************************
 %chk=NM3CA_c2.M062X_6-311pGd_opt_GD3.chk
 %mem=196608000
 %nproc=4
 Will use up to    4 processors via shared memory.
 ----------------------------------------------------------------------
 # M062X/6-311+G* SCF=Tight INT(grid=ultrafine) OPT IOP(2/17=4) Empiric
 alDispersion=GD3 maxdisk=2147483648
 ----------------------------------------------------------------------
 1/14=-1,18=20,19=15,26=4,38=1/1,3;
 2/9=110,12=2,17=4,18=5,40=1/2;
 3/5=4,6=6,7=11,11=2,16=1,25=1,30=1,71=1,74=-55,75=-5,124=31/1,2,3;
 4//1;
 5/5=2,32=2,38=5/2;
 6/7=2,8=2,9=2,10=2,28=1/1;
 7//1,2,3,16;
 1/14=-1,18=20,19=15,26=4/3(2);
 2/9=110,17=4/2;
 99//99;
 2/9=110,17=4/2;
 3/5=4,6=6,7=11,11=2,16=1,25=1,30=1,71=1,74=-55,75=-5,124=31/1,2,3;
 4/5=5,16=3,69=1/1;
 5/5=2,32=2,38=5/2;
 7//1,2,3,16;
 1/14=-1,18=20,19=15,26=4/3(-5);
 2/9=110,17=4/2;
 6/7=2,8=2,9=2,10=2,19=2,28=1/1;
 99/9=1/99;
 -------------------------------
 NM3CA_c2.M062X_6-311pGd_opt_GD3
 -------------------------------
 Symbolic Z-matrix:
 Charge =  0 Multiplicity = 1
 C                    -5.93636   1.48717   0.21397 
 N                    -4.68534   0.87579   0.07956 
 C                    -3.45117   1.47562   0.12622 
 O                    -3.23173   2.64702   0.29163 
 O                    -2.50667   0.53667  -0.0444 
 C                    -1.15177   1.01288  -0.01973 
 C                    -0.24274  -0.17902  -0.22768 
 C                     1.22346   0.24471  -0.21463 
 C                    -7.06158   0.66021   0.14195 
 C                    -8.32712   1.20612   0.27273 
 C                    -8.51499   2.56822   0.47337 
 C                    -7.38488   3.36824   0.54102 
 C                    -6.09857   2.86031   0.41586 
 H                    -4.67235  -0.12279  -0.06653 
 H                    -0.96761   1.50138   0.94019 
 H                    -1.02698   1.76082  -0.80648 
 H                    -0.49336  -0.65604  -1.17904 
 H                    -0.4342   -0.91419   0.55865 
 H                     1.43514   0.96653  -1.00716 
 H                     1.8799   -0.61325  -0.36452 
 H                     1.49458   0.7072    0.7375 
 H                    -6.94618  -0.40767  -0.00769 
 Cl                   -7.58079   5.07755   0.79766 
 H                    -5.24277   3.51529   0.47711 
 C                    -9.52915   0.31447   0.13216 
 H                    -9.50471   2.99219   0.58121 
 F                    -10.56104   0.74587   0.86706 
 F                    -9.95346   0.25926  -1.14082 
 F                    -9.2664   -0.94546   0.50717 
 

 GradGradGradGradGradGradGradGradGradGradGradGradGradGradGradGradGradGrad
 Berny optimization.
 Initialization pass.
                           ----------------------------
                           !    Initial Parameters    !
                           ! (Angstroms and Degrees)  !
 --------------------------                            --------------------------
 ! Name  Definition              Value          Derivative Info.                !
 --------------------------------------------------------------------------------
 ! R1    R(1,2)                  1.3989         estimate D2E/DX2                !
 ! R2    R(1,9)                  1.3983         estimate D2E/DX2                !
 ! R3    R(1,13)                 1.3974         estimate D2E/DX2                !
 ! R4    R(2,3)                  1.373          estimate D2E/DX2                !
 ! R5    R(2,14)                 1.0093         estimate D2E/DX2                !
 ! R6    R(3,4)                  1.2032         estimate D2E/DX2                !
 ! R7    R(3,5)                  1.3427         estimate D2E/DX2                !
 ! R8    R(5,6)                  1.4364         estimate D2E/DX2                !
 ! R9    R(6,7)                  1.5133         estimate D2E/DX2                !
 ! R10   R(6,15)                 1.0927         estimate D2E/DX2                !
 ! R11   R(6,16)                 1.0927         estimate D2E/DX2                !
 ! R12   R(7,8)                  1.5263         estimate D2E/DX2                !
 ! R13   R(7,17)                 1.0934         estimate D2E/DX2                !
 ! R14   R(7,18)                 1.0934         estimate D2E/DX2                !
 ! R15   R(8,19)                 1.0927         estimate D2E/DX2                !
 ! R16   R(8,20)                 1.0906         estimate D2E/DX2                !
 ! R17   R(8,21)                 1.0927         estimate D2E/DX2                !
 ! R18   R(9,10)                 1.3845         estimate D2E/DX2                !
 ! R19   R(9,22)                 1.0845         estimate D2E/DX2                !
 ! R20   R(10,11)                1.3896         estimate D2E/DX2                !
 ! R21   R(10,25)                1.5032         estimate D2E/DX2                !
 ! R22   R(11,12)                1.3863         estimate D2E/DX2                !
 ! R23   R(11,26)                1.0821         estimate D2E/DX2                !
 ! R24   R(12,13)                1.3886         estimate D2E/DX2                !
 ! R25   R(12,23)                1.7395         estimate D2E/DX2                !
 ! R26   R(13,24)                1.0794         estimate D2E/DX2                !
 ! R27   R(25,27)                1.3383         estimate D2E/DX2                !
 ! R28   R(25,28)                1.343          estimate D2E/DX2                !
 ! R29   R(25,29)                1.3406         estimate D2E/DX2                !
 ! A1    A(2,1,9)              117.1445         estimate D2E/DX2                !
 ! A2    A(2,1,13)             123.1731         estimate D2E/DX2                !
 ! A3    A(9,1,13)             119.6823         estimate D2E/DX2                !
 ! A4    A(1,2,3)              127.5652         estimate D2E/DX2                !
 ! A5    A(1,2,14)             117.247          estimate D2E/DX2                !
 ! A6    A(3,2,14)             115.1875         estimate D2E/DX2                !
 ! A7    A(2,3,4)              126.4367         estimate D2E/DX2                !
 ! A8    A(2,3,5)              108.813          estimate D2E/DX2                !
 ! A9    A(4,3,5)              124.7503         estimate D2E/DX2                !
 ! A10   A(3,5,6)              115.4367         estimate D2E/DX2                !
 ! A11   A(5,6,7)              107.646          estimate D2E/DX2                !
 ! A12   A(5,6,15)             108.8012         estimate D2E/DX2                !
 ! A13   A(5,6,16)             108.8016         estimate D2E/DX2                !
 ! A14   A(7,6,15)             111.8131         estimate D2E/DX2                !
 ! A15   A(7,6,16)             111.8123         estimate D2E/DX2                !
 ! A16   A(15,6,16)            107.8945         estimate D2E/DX2                !
 ! A17   A(6,7,8)              110.929          estimate D2E/DX2                !
 ! A18   A(6,7,17)             108.9952         estimate D2E/DX2                !
 ! A19   A(6,7,18)             108.9993         estimate D2E/DX2                !
 ! A20   A(8,7,17)             110.412          estimate D2E/DX2                !
 ! A21   A(8,7,18)             110.4108         estimate D2E/DX2                !
 ! A22   A(17,7,18)            106.9948         estimate D2E/DX2                !
 ! A23   A(7,8,19)             111.3028         estimate D2E/DX2                !
 ! A24   A(7,8,20)             111.0164         estimate D2E/DX2                !
 ! A25   A(7,8,21)             111.304          estimate D2E/DX2                !
 ! A26   A(19,8,20)            107.6612         estimate D2E/DX2                !
 ! A27   A(19,8,21)            107.7184         estimate D2E/DX2                !
 ! A28   A(20,8,21)            107.6608         estimate D2E/DX2                !
 ! A29   A(1,9,10)             119.8374         estimate D2E/DX2                !
 ! A30   A(1,9,22)             120.2543         estimate D2E/DX2                !
 ! A31   A(10,9,22)            119.9064         estimate D2E/DX2                !
 ! A32   A(9,10,11)            121.5841         estimate D2E/DX2                !
 ! A33   A(9,10,25)            119.2245         estimate D2E/DX2                !
 ! A34   A(11,10,25)           119.1322         estimate D2E/DX2                !
 ! A35   A(10,11,12)           117.5501         estimate D2E/DX2                !
 ! A36   A(10,11,26)           121.4743         estimate D2E/DX2                !
 ! A37   A(12,11,26)           120.9739         estimate D2E/DX2                !
 ! A38   A(11,12,13)           122.6609         estimate D2E/DX2                !
 ! A39   A(11,12,23)           118.8465         estimate D2E/DX2                !
 ! A40   A(13,12,23)           118.4923         estimate D2E/DX2                !
 ! A41   A(1,13,12)            118.6851         estimate D2E/DX2                !
 ! A42   A(1,13,24)            120.8261         estimate D2E/DX2                !
 ! A43   A(12,13,24)           120.4884         estimate D2E/DX2                !
 ! A44   A(10,25,27)           111.9627         estimate D2E/DX2                !
 ! A45   A(10,25,28)           111.4485         estimate D2E/DX2                !
 ! A46   A(10,25,29)           111.9994         estimate D2E/DX2                !
 ! A47   A(27,25,28)           106.8675         estimate D2E/DX2                !
 ! A48   A(27,25,29)           107.4865         estimate D2E/DX2                !
 ! A49   A(28,25,29)           106.7655         estimate D2E/DX2                !
 ! D1    D(9,1,2,3)           -179.4419         estimate D2E/DX2                !
 ! D2    D(9,1,2,14)             0.359          estimate D2E/DX2                !
 ! D3    D(13,1,2,3)             0.4035         estimate D2E/DX2                !
 ! D4    D(13,1,2,14)         -179.7956         estimate D2E/DX2                !
 ! D5    D(2,1,9,10)           179.7649         estimate D2E/DX2                !
 ! D6    D(2,1,9,22)             0.2708         estimate D2E/DX2                !
 ! D7    D(13,1,9,10)           -0.0862         estimate D2E/DX2                !
 ! D8    D(13,1,9,22)         -179.5802         estimate D2E/DX2                !
 ! D9    D(2,1,13,12)         -179.8061         estimate D2E/DX2                !
 ! D10   D(2,1,13,24)           -0.0112         estimate D2E/DX2                !
 ! D11   D(9,1,13,12)            0.0356         estimate D2E/DX2                !
 ! D12   D(9,1,13,24)          179.8304         estimate D2E/DX2                !
 ! D13   D(1,2,3,4)             -0.0908         estimate D2E/DX2                !
 ! D14   D(1,2,3,5)            179.9117         estimate D2E/DX2                !
 ! D15   D(14,2,3,4)          -179.8951         estimate D2E/DX2                !
 ! D16   D(14,2,3,5)             0.1074         estimate D2E/DX2                !
 ! D17   D(2,3,5,6)           -179.9845         estimate D2E/DX2                !
 ! D18   D(4,3,5,6)              0.0179         estimate D2E/DX2                !
 ! D19   D(3,5,6,7)           -179.9551         estimate D2E/DX2                !
 ! D20   D(3,5,6,15)            58.699          estimate D2E/DX2                !
 ! D21   D(3,5,6,16)           -58.61           estimate D2E/DX2                !
 ! D22   D(5,6,7,8)            179.9983         estimate D2E/DX2                !
 ! D23   D(5,6,7,17)            58.2251         estimate D2E/DX2                !
 ! D24   D(5,6,7,18)           -58.2272         estimate D2E/DX2                !
 ! D25   D(15,6,7,8)           -60.5561         estimate D2E/DX2                !
 ! D26   D(15,6,7,17)          177.6706         estimate D2E/DX2                !
 ! D27   D(15,6,7,18)           61.2183         estimate D2E/DX2                !
 ! D28   D(16,6,7,8)            60.5527         estimate D2E/DX2                !
 ! D29   D(16,6,7,17)          -61.2205         estimate D2E/DX2                !
 ! D30   D(16,6,7,18)         -177.6728         estimate D2E/DX2                !
 ! D31   D(6,7,8,19)           -60.0818         estimate D2E/DX2                !
 ! D32   D(6,7,8,20)          -179.9929         estimate D2E/DX2                !
 ! D33   D(6,7,8,21)            60.0957         estimate D2E/DX2                !
 ! D34   D(17,7,8,19)           60.8588         estimate D2E/DX2                !
 ! D35   D(17,7,8,20)          -59.0523         estimate D2E/DX2                !
 ! D36   D(17,7,8,21)         -178.9637         estimate D2E/DX2                !
 ! D37   D(18,7,8,19)          178.9733         estimate D2E/DX2                !
 ! D38   D(18,7,8,20)           59.0622         estimate D2E/DX2                !
 ! D39   D(18,7,8,21)          -60.8492         estimate D2E/DX2                !
 ! D40   D(1,9,10,11)            0.1235         estimate D2E/DX2                !
 ! D41   D(1,9,10,25)          177.3013         estimate D2E/DX2                !
 ! D42   D(22,9,10,11)         179.6193         estimate D2E/DX2                !
 ! D43   D(22,9,10,25)          -3.2029         estimate D2E/DX2                !
 ! D44   D(9,10,11,12)          -0.1056         estimate D2E/DX2                !
 ! D45   D(9,10,11,26)        -179.6322         estimate D2E/DX2                !
 ! D46   D(25,10,11,12)       -177.286          estimate D2E/DX2                !
 ! D47   D(25,10,11,26)          3.1874         estimate D2E/DX2                !
 ! D48   D(9,10,25,27)         150.0383         estimate D2E/DX2                !
 ! D49   D(9,10,25,28)         -90.3198         estimate D2E/DX2                !
 ! D50   D(9,10,25,29)          29.2169         estimate D2E/DX2                !
 ! D51   D(11,10,25,27)        -32.714          estimate D2E/DX2                !
 ! D52   D(11,10,25,28)         86.928          estimate D2E/DX2                !
 ! D53   D(11,10,25,29)       -153.5353         estimate D2E/DX2                !
 ! D54   D(10,11,12,13)          0.0542         estimate D2E/DX2                !
 ! D55   D(10,11,12,23)       -179.7592         estimate D2E/DX2                !
 ! D56   D(26,11,12,13)        179.5832         estimate D2E/DX2                !
 ! D57   D(26,11,12,23)         -0.2302         estimate D2E/DX2                !
 ! D58   D(11,12,13,1)          -0.0206         estimate D2E/DX2                !
 ! D59   D(11,12,13,24)       -179.8162         estimate D2E/DX2                !
 ! D60   D(23,12,13,1)         179.7934         estimate D2E/DX2                !
 ! D61   D(23,12,13,24)         -0.0021         estimate D2E/DX2                !
 --------------------------------------------------------------------------------
 Trust Radius=3.00D-01 FncErr=1.00D-07 GrdErr=1.00D-06
 Number of steps in this run=    149 maximum allowed number of steps=    174.
 GradGradGradGradGradGradGradGradGradGradGradGradGradGradGradGradGradGrad

                          Input orientation:                          
 ---------------------------------------------------------------------
 Center     Atomic      Atomic             Coordinates (Angstroms)
 Number     Number       Type             X           Y           Z
 ---------------------------------------------------------------------
      1          6           0       -5.936357    1.487169    0.213966
      2          7           0       -4.685339    0.875789    0.079561
      3          6           0       -3.451168    1.475619    0.126223
      4          8           0       -3.231730    2.647023    0.291628
      5          8           0       -2.506670    0.536669   -0.044402
      6          6           0       -1.151770    1.012876   -0.019727
      7          6           0       -0.242737   -0.179022   -0.227680
      8          6           0        1.223461    0.244706   -0.214628
      9          6           0       -7.061580    0.660212    0.141950
     10          6           0       -8.327120    1.206116    0.272727
     11          6           0       -8.514994    2.568217    0.473369
     12          6           0       -7.384883    3.368239    0.541017
     13          6           0       -6.098570    2.860314    0.415861
     14          1           0       -4.672345   -0.122794   -0.066533
     15          1           0       -0.967610    1.501377    0.940191
     16          1           0       -1.026983    1.760819   -0.806481
     17          1           0       -0.493361   -0.656036   -1.179040
     18          1           0       -0.434203   -0.914188    0.558646
     19          1           0        1.435138    0.966531   -1.007161
     20          1           0        1.879899   -0.613246   -0.364515
     21          1           0        1.494575    0.707201    0.737501
     22          1           0       -6.946179   -0.407665   -0.007688
     23         17           0       -7.580787    5.077555    0.797664
     24          1           0       -5.242769    3.515289    0.477109
     25          6           0       -9.529150    0.314467    0.132159
     26          1           0       -9.504715    2.992187    0.581215
     27          9           0      -10.561035    0.745873    0.867060
     28          9           0       -9.953457    0.259262   -1.140820
     29          9           0       -9.266401   -0.945462    0.507169
 ---------------------------------------------------------------------
                    Distance matrix (angstroms):
                    1          2          3          4          5
     1  C    0.000000
     2  N    1.398891   0.000000
     3  C    2.486764   1.373008   0.000000
     4  O    2.943858   2.301135   1.203204   0.000000
     5  O    3.568327   2.208386   1.342690   2.256596   0.000000
     6  C    4.813714   3.537621   2.350035   2.663384   1.436362
     7  C    5.948827   4.576432   3.627273   4.146117   2.381427
     8  C    7.279450   5.949683   4.845976   5.086860   3.745410
     9  C    1.398275   2.386816   3.701380   4.317126   4.560395
    10  C    2.407943   3.661829   4.885591   5.295240   5.867398
    11  C    2.808082   4.205432   5.191976   5.286977   6.363587
    12  C    2.396584   3.703078   4.384995   4.222680   5.670755
    13  C    1.397356   2.459402   3.001668   2.877446   4.302664
    14  H    2.066006   1.009297   2.020731   3.142537   2.263963
    15  H    5.021558   3.866982   2.613669   2.619041   2.066105
    16  H    5.021767   3.866771   2.613034   2.617654   2.066103
    17  H    6.013318   4.637159   3.872504   4.535607   2.600647
    18  H    6.013236   4.637423   3.873014   4.536483   2.600725
    19  H    7.490070   6.216867   5.041797   5.127433   4.080384
    20  H    8.114199   6.746612   5.746690   6.098248   4.546071
    21  H    7.490073   6.217125   5.042272   5.128321   4.080492
    22  H    2.158533   2.601205   3.972379   4.818490   4.538982
    23  Cl   3.991958   5.153070   5.520736   5.007780   6.861151
    24  H    2.159533   2.726854   2.737372   2.198310   4.078037
    25  C    3.780222   4.876510   6.187905   6.717421   7.028212
    26  H    3.890133   5.287455   6.257190   6.289145   7.442688
    27  F    4.729028   5.929658   7.185512   7.593695   8.108473
    28  F    4.413649   5.442656   6.735331   7.275639   7.532179
    29  F    4.134351   4.948327   6.310602   7.026355   6.942255
                    6          7          8          9         10
     6  C    0.000000
     7  C    1.513343   0.000000
     8  C    2.503955   1.526254   0.000000
     9  C    5.922531   6.880230   8.303114   0.000000
    10  C    7.183907   8.217436   9.611213   1.384450   0.000000
    11  C    7.541837   8.744657  10.035415   2.421308   1.389559
    12  C    6.686843   8.011504   9.188636   2.756300   2.373724
    13  C    5.298452   6.628913   7.800709   2.417202   2.779082
    14  H    3.699512   4.432895   5.909105   2.522897   3.903649
    15  H    1.092699   2.170968   2.777341   6.203323   7.395611
    16  H    1.092690   2.170952   2.777298   6.207030   7.400296
    17  H    2.136066   1.093362   2.165388   6.827813   8.181871
    18  H    2.136116   1.093361   2.165373   6.824551   8.177748
    19  H    2.769344   2.176039   1.092679   8.579540   9.848715
    20  H    3.457480   2.170912   1.090623   9.045897  10.387462
    21  H    2.769472   2.176056   1.092682   8.576986   9.845335
    22  H    5.966009   6.710947   8.198258   1.084468   2.142409
    23  Cl   7.649968   9.084597  10.094352   4.495826   3.977513
    24  H    4.821326   6.256595   7.279240   3.401745   3.858403
    25  C    8.407814   9.306475  10.758427   2.491693   1.503221
    26  H    8.605260   9.823192  11.102962   3.405872   2.161469
    27  F    9.454732  10.417349  11.844643   3.574816   2.356997
    28  F    8.904745   9.763401  11.215237   3.188920   2.353640
    29  F    8.364207   9.085920  10.581810   2.751874   2.359343
                   11         12         13         14         15
    11  C    0.000000
    12  C    1.386277   0.000000
    13  C    2.434694   1.388615   0.000000
    14  H    4.722180   4.462543   3.341520   0.000000
    15  H    7.636692   6.695215   5.333702   4.168511   0.000000
    16  H    7.639386   6.694956   5.331416   4.169434   1.766833
    17  H    8.801867   8.163728   6.806379   4.357285   3.061125
    18  H    8.799636   8.164033   6.808252   4.356489   2.503009
    19  H   10.186388   9.271344   7.897352   6.274772   3.138701
    20  H   10.903098  10.124643   8.736737   6.577327   3.779179
    21  H   10.184529   9.271705   7.899064   6.274255   2.595026
    22  H    3.398304   3.840702   3.402576   2.292365   6.347141
    23  Cl   2.697162   1.739542   2.694234   6.020755   7.519539
    24  H    3.406526   2.148106   1.079416   3.722442   4.748396
    25  C    2.494860   3.753741   4.281437   4.880494   8.681107
    26  H    1.082094   2.153304   3.412705   5.785713   8.673726
    27  F    2.768070   4.131713   4.958633   6.025185   9.623406
    28  F    3.163235   4.369426   4.903966   5.402796   9.306927
    29  F    3.593285   4.706301   4.952517   4.702262   8.662820
                   16         17         18         19         20
    16  H    0.000000
    17  H    2.502947   0.000000
    18  H    3.061147   1.757753   0.000000
    19  H    2.594842   2.526139   3.079496   0.000000
    20  H    3.779084   2.509511   2.509554   1.762527   0.000000
    21  H    3.138829   3.079519   2.526079   1.764832   1.762525
    22  H    6.354312   6.562973   6.556152   8.551833   8.835680
    23  Cl   7.518402   9.328078   9.329082  10.071982  11.101372
    24  H    4.743271   6.534498   6.538288   7.300251   8.275598
    25  C    8.675241   9.181862   9.187466  11.042592  11.457474
    26  H    8.678358   9.879905   9.875953  11.238621  11.979273
    27  F    9.732883  10.368700  10.266628  12.143705  12.575405
    28  F    9.058057   9.504349   9.740706  11.411318  11.890846
    29  F    8.771410   8.938306   8.832403  10.975967  11.185267
                   21         22         23         24         25
    21  H    0.000000
    22  H    8.546612   0.000000
    23  Cl  10.073025   5.580229   0.000000
    24  H    7.303764   4.304208   2.830152   0.000000
    25  C   11.047316   2.685659   5.189029   5.360719   0.000000
    26  H   11.235211   4.295568   2.845541   4.295190   2.715223
    27  F   12.056369   3.893972   5.258342   6.008800   1.338275
    28  F   11.609745   3.282148   5.709924   5.950629   1.342966
    29  F   10.889581   2.436746   6.261183   6.007397   1.340556
                   26         27         28         29
    26  H    0.000000
    27  F    2.498689   0.000000
    28  F    3.261235   2.153491   0.000000
    29  F    3.945549   2.160142   2.153897   0.000000
 Stoichiometry    C11H11ClF3NO2
 Framework group  C1[X(C11H11ClF3NO2)]
 Deg. of freedom    81
 Full point group                 C1      NOp   1
 Largest Abelian subgroup         C1      NOp   1
 Largest concise Abelian subgroup C1      NOp   1
                         Standard orientation:                         
 ---------------------------------------------------------------------
 Center     Atomic      Atomic             Coordinates (Angstroms)
 Number     Number       Type             X           Y           Z
 ---------------------------------------------------------------------
      1          6           0        0.108098   -0.031467   -0.011090
      2          7           0       -1.202464   -0.520666   -0.008753
      3          6           0       -2.367263    0.206203   -0.001318
      4          8           0       -2.461043    1.405724    0.006077
      5          8           0       -3.407464   -0.642793   -0.003547
      6          6           0       -4.705593   -0.028014    0.003232
      7          6           0       -5.737464   -1.135010    0.000638
      8          6           0       -7.151982   -0.561823    0.007584
      9          6           0        1.140807   -0.973953   -0.031177
     10          6           0        2.459110   -0.551210   -0.039409
     11          6           0        2.790806    0.798109   -0.025620
     12          6           0        1.750354    1.713979   -0.005445
     13          6           0        0.415446    1.331604    0.002358
     14          1           0       -1.321603   -1.522880   -0.016078
     15          1           0       -4.796063    0.613444   -0.876732
     16          1           0       -4.791033    0.604591    0.890071
     17          1           0       -5.579394   -1.770915    0.875897
     18          1           0       -5.584492   -1.762141   -0.881827
     19          1           0       -7.326656    0.053404    0.893549
     20          1           0       -7.896838   -1.358469    0.005849
     21          1           0       -7.331832    0.062077   -0.871255
     22          1           0        0.912809   -2.034040   -0.048594
     23         17           0        2.127205    3.412173    0.005853
     24          1           0       -0.367102    2.074970    0.015180
     25          6           0        3.558579   -1.575528    0.000756
     26          1           0        3.821751    1.126633   -0.038010
     27          9           0        4.660841   -1.151610   -0.628760
     28          9           0        3.916631   -1.862384    1.262925
     29          9           0        3.188961   -2.731534   -0.568562
 ---------------------------------------------------------------------
 Rotational constants (GHZ):      0.5744266      0.1482224      0.1205582
 Standard basis: 6-311+G(d) (5D, 7F)
 There are   455 symmetry adapted cartesian basis functions of A   symmetry.
 There are   437 symmetry adapted basis functions of A   symmetry.
   437 basis functions,   720 primitive gaussians,   455 cartesian basis functions
    72 alpha electrons       72 beta electrons
       nuclear repulsion energy      1417.9679324085 Hartrees.
 NAtoms=   29 NActive=   29 NUniq=   29 SFac= 1.00D+00 NAtFMM=   60 NAOKFM=F Big=F
 Integral buffers will be    131072 words long.
 Raffenetti 2 integral format.
 Two-electron integral symmetry is turned on.
 Nuclear repulsion after empirical dispersion term =     1417.9666462671 Hartrees.
 One-electron integrals computed using PRISM.
 NBasis=   437 RedAO= T EigKep=  1.45D-06  NBF=   437
 NBsUse=   435 1.00D-06 EigRej=  8.08D-07 NBFU=   435
 ExpMin= 4.38D-02 ExpMax= 1.06D+05 ExpMxC= 3.62D+03 IAcc=3 IRadAn=         5 AccDes= 0.00D+00
 Harris functional with IExCor= 1009 and IRadAn=       5 diagonalized for initial guess.
 HarFok:  IExCor= 1009 AccDes= 0.00D+00 IRadAn=         5 IDoV= 1 UseB2=F ITyADJ=14
 ICtDFT=  3500011 ScaDFX=  1.000000  1.000000  1.000000  1.000000
 FoFCou: FMM=F IPFlag=           0 FMFlag=      100000 FMFlg1=           0
         NFxFlg=           0 DoJE=T BraDBF=F KetDBF=T FulRan=T
         wScrn=  0.000000 ICntrl=     500 IOpCl=  0 I1Cent=   200000004 NGrid=           0
         NMat0=    1 NMatS0=      1 NMatT0=    0 NMatD0=    1 NMtDS0=    0 NMtDT0=    0
 Petite list used in FoFCou.
 Requested convergence on RMS density matrix=1.00D-08 within 128 cycles.
 Requested convergence on MAX density matrix=1.00D-06.
 Requested convergence on             energy=1.00D-06.
 No special actions if energy rises.
 SCF Done:  E(RM062X) =  -1390.67507457     A.U. after   15 cycles
            NFock= 15  Conv=0.42D-08     -V/T= 2.0028

 **********************************************************************

            Population analysis using the SCF density.

 **********************************************************************

 Orbital symmetries:
       Occupied  (A) (A) (A) (A) (A) (A) (A) (A) (A) (A) (A) (A)
                 (A) (A) (A) (A) (A) (A) (A) (A) (A) (A) (A) (A)
                 (A) (A) (A) (A) (A) (A) (A) (A) (A) (A) (A) (A)
                 (A) (A) (A) (A) (A) (A) (A) (A) (A) (A) (A) (A)
                 (A) (A) (A) (A) (A) (A) (A) (A) (A) (A) (A) (A)
                 (A) (A) (A) (A) (A) (A) (A) (A) (A) (A) (A) (A)
       Virtual   (A) (A) (A) (A) (A) (A) (A) (A) (A) (A) (A) (A)
                 (A) (A) (A) (A) (A) (A) (A) (A) (A) (A) (A) (A)
                 (A) (A) (A) (A) (A) (A) (A) (A) (A) (A) (A) (A)
                 (A) (A) (A) (A) (A) (A) (A) (A) (A) (A) (A) (A)
                 (A) (A) (A) (A) (A) (A) (A) (A) (A) (A) (A) (A)
                 (A) (A) (A) (A) (A) (A) (A) (A) (A) (A) (A) (A)
                 (A) (A) (A) (A) (A) (A) (A) (A) (A) (A) (A) (A)
                 (A) (A) (A) (A) (A) (A) (A) (A) (A) (A) (A) (A)
                 (A) (A) (A) (A) (A) (A) (A) (A) (A) (A) (A) (A)
                 (A) (A) (A) (A) (A) (A) (A) (A) (A) (A) (A) (A)
                 (A) (A) (A) (A) (A) (A) (A) (A) (A) (A) (A) (A)
                 (A) (A) (A) (A) (A) (A) (A) (A) (A) (A) (A) (A)
                 (A) (A) (A) (A) (A) (A) (A) (A) (A) (A) (A) (A)
                 (A) (A) (A) (A) (A) (A) (A) (A) (A) (A) (A) (A)
                 (A) (A) (A) (A) (A) (A) (A) (A) (A) (A) (A) (A)
                 (A) (A) (A) (A) (A) (A) (A) (A) (A) (A) (A) (A)
                 (A) (A) (A) (A) (A) (A) (A) (A) (A) (A) (A) (A)
                 (A) (A) (A) (A) (A) (A) (A) (A) (A) (A) (A) (A)
                 (A) (A) (A) (A) (A) (A) (A) (A) (A) (A) (A) (A)
                 (A) (A) (A) (A) (A) (A) (A) (A) (A) (A) (A) (A)
                 (A) (A) (A) (A) (A) (A) (A) (A) (A) (A) (A) (A)
                 (A) (A) (A) (A) (A) (A) (A) (A) (A) (A) (A) (A)
                 (A) (A) (A) (A) (A) (A) (A) (A) (A) (A) (A) (A)
                 (A) (A) (A) (A) (A) (A) (A) (A) (A) (A) (A) (A)
                 (A) (A) (A) (A) (A) (A) (A) (A) (A) (A) (A) (A)
                 (A) (A) (A) (A) (A) (A) (A) (A) (A) (A) (A) (A)
                 (A) (A) (A) (A) (A) (A) (A) (A) (A) (A) (A) (A)
                 (A) (A) (A) (A) (A) (A) (A) (A) (A) (A) (A) (A)
                 (A) (A) (A) (A) (A) (A) (A) (A) (A) (A) (A) (A)
                 (A) (A) (A) (A) (A) (A) (A) (A) (A) (A) (A) (A)
                 (A) (A) (A)
 The electronic state is 1-A.
 Alpha  occ. eigenvalues -- -102.68591 -25.28664 -25.28557 -25.28131 -19.68501
 Alpha  occ. eigenvalues --  -19.62470 -14.81432 -10.81230 -10.72076 -10.63034
 Alpha  occ. eigenvalues --  -10.62925 -10.60819 -10.59477 -10.58078 -10.57651
 Alpha  occ. eigenvalues --  -10.57206 -10.55188 -10.54141  -9.82861  -7.55376
 Alpha  occ. eigenvalues --   -7.54696  -7.54681  -1.47940  -1.38665  -1.38166
 Alpha  occ. eigenvalues --   -1.26597  -1.16688  -1.09035  -1.01901  -0.96641
 Alpha  occ. eigenvalues --   -0.91852  -0.89726  -0.86232  -0.82458  -0.81277
 Alpha  occ. eigenvalues --   -0.75631  -0.73800  -0.71006  -0.70221  -0.69963
 Alpha  occ. eigenvalues --   -0.69271  -0.65915  -0.65255  -0.60755  -0.60525
 Alpha  occ. eigenvalues --   -0.60215  -0.58641  -0.58198  -0.56881  -0.55627
 Alpha  occ. eigenvalues --   -0.55105  -0.54121  -0.53841  -0.52431  -0.52202
 Alpha  occ. eigenvalues --   -0.51943  -0.50539  -0.50096  -0.48147  -0.47434
 Alpha  occ. eigenvalues --   -0.46526  -0.45005  -0.44724  -0.43900  -0.42079
 Alpha  occ. eigenvalues --   -0.41879  -0.39613  -0.39304  -0.39007  -0.38216
 Alpha  occ. eigenvalues --   -0.32859  -0.30237
 Alpha virt. eigenvalues --   -0.01939  -0.00954  -0.00376   0.01237   0.01985
 Alpha virt. eigenvalues --    0.02693   0.02782   0.03147   0.03853   0.04365
 Alpha virt. eigenvalues --    0.04796   0.05095   0.05348   0.06217   0.06435
 Alpha virt. eigenvalues --    0.06770   0.06892   0.07534   0.07776   0.08012
 Alpha virt. eigenvalues --    0.08692   0.09191   0.09621   0.09855   0.10984
 Alpha virt. eigenvalues --    0.11495   0.11767   0.12106   0.12831   0.13071
 Alpha virt. eigenvalues --    0.13137   0.13963   0.14273   0.14877   0.15355
 Alpha virt. eigenvalues --    0.16582   0.16822   0.17169   0.17691   0.17874
 Alpha virt. eigenvalues --    0.18223   0.18775   0.19213   0.19603   0.19948
 Alpha virt. eigenvalues --    0.20193   0.20401   0.20487   0.21417   0.22119
 Alpha virt. eigenvalues --    0.22377   0.22515   0.22885   0.23257   0.23971
 Alpha virt. eigenvalues --    0.24242   0.24455   0.24865   0.25346   0.25720
 Alpha virt. eigenvalues --    0.26646   0.26826   0.26854   0.27178   0.27521
 Alpha virt. eigenvalues --    0.27857   0.28537   0.28788   0.29191   0.29424
 Alpha virt. eigenvalues --    0.29929   0.30630   0.31038   0.31666   0.31756
 Alpha virt. eigenvalues --    0.32511   0.33200   0.33877   0.33923   0.34960
 Alpha virt. eigenvalues --    0.36406   0.36757   0.37034   0.37618   0.38479
 Alpha virt. eigenvalues --    0.38773   0.39480   0.40325   0.40473   0.41728
 Alpha virt. eigenvalues --    0.42195   0.42437   0.43131   0.44488   0.45293
 Alpha virt. eigenvalues --    0.45415   0.46888   0.47245   0.47594   0.48138
 Alpha virt. eigenvalues --    0.48742   0.49023   0.49650   0.50817   0.51022
 Alpha virt. eigenvalues --    0.51878   0.53045   0.54106   0.54492   0.55819
 Alpha virt. eigenvalues --    0.58100   0.58351   0.59504   0.59820   0.61372
 Alpha virt. eigenvalues --    0.62680   0.63032   0.63347   0.63513   0.65594
 Alpha virt. eigenvalues --    0.65895   0.66585   0.66693   0.67117   0.68047
 Alpha virt. eigenvalues --    0.68269   0.69067   0.70003   0.71407   0.71847
 Alpha virt. eigenvalues --    0.72339   0.72882   0.73552   0.73868   0.75064
 Alpha virt. eigenvalues --    0.75882   0.76571   0.77350   0.77748   0.78967
 Alpha virt. eigenvalues --    0.80229   0.81037   0.81955   0.84298   0.87964
 Alpha virt. eigenvalues --    0.88725   0.89846   0.90388   0.91123   0.91451
 Alpha virt. eigenvalues --    0.92259   0.93274   0.94444   0.95316   0.96579
 Alpha virt. eigenvalues --    0.98620   0.99814   0.99967   1.02480   1.03673
 Alpha virt. eigenvalues --    1.04028   1.04857   1.05959   1.07284   1.07835
 Alpha virt. eigenvalues --    1.10860   1.11251   1.12577   1.14245   1.14909
 Alpha virt. eigenvalues --    1.17787   1.18863   1.21111   1.21514   1.23049
 Alpha virt. eigenvalues --    1.23824   1.24442   1.26990   1.27726   1.29900
 Alpha virt. eigenvalues --    1.30363   1.33485   1.35702   1.38392   1.39540
 Alpha virt. eigenvalues --    1.39966   1.42808   1.43236   1.45833   1.46472
 Alpha virt. eigenvalues --    1.47205   1.48503   1.48834   1.49008   1.50245
 Alpha virt. eigenvalues --    1.53202   1.54112   1.56337   1.56576   1.57198
 Alpha virt. eigenvalues --    1.57694   1.58903   1.59960   1.60087   1.61377
 Alpha virt. eigenvalues --    1.61804   1.62969   1.63743   1.66788   1.70357
 Alpha virt. eigenvalues --    1.72488   1.74586   1.76788   1.77116   1.77450
 Alpha virt. eigenvalues --    1.78187   1.78605   1.80538   1.83149   1.85184
 Alpha virt. eigenvalues --    1.86104   1.87084   1.87693   1.89563   1.91735
 Alpha virt. eigenvalues --    1.92011   1.93994   1.97642   1.98344   2.00183
 Alpha virt. eigenvalues --    2.02684   2.04369   2.07610   2.08108   2.09640
 Alpha virt. eigenvalues --    2.10846   2.16584   2.17663   2.18662   2.21257
 Alpha virt. eigenvalues --    2.23269   2.29231   2.30251   2.32576   2.35057
 Alpha virt. eigenvalues --    2.35812   2.40226   2.42479   2.46788   2.49596
 Alpha virt. eigenvalues --    2.50966   2.53756   2.54073   2.55246   2.58923
 Alpha virt. eigenvalues --    2.59250   2.60197   2.63915   2.64492   2.69099
 Alpha virt. eigenvalues --    2.70273   2.73020   2.75282   2.79474   2.81018
 Alpha virt. eigenvalues --    2.82496   2.85289   2.91278   2.92169   2.93049
 Alpha virt. eigenvalues --    2.95868   3.00574   3.00984   3.02551   3.03312
 Alpha virt. eigenvalues --    3.04298   3.05796   3.08746   3.11007   3.11378
 Alpha virt. eigenvalues --    3.17269   3.17928   3.20273   3.23464   3.25284
 Alpha virt. eigenvalues --    3.27931   3.28639   3.28961   3.34180   3.35298
 Alpha virt. eigenvalues --    3.38251   3.40392   3.44093   3.45642   3.50688
 Alpha virt. eigenvalues --    3.54935   3.66371   3.70620   3.72612   3.76022
 Alpha virt. eigenvalues --    3.80421   3.81153   3.83830   3.84470   3.86060
 Alpha virt. eigenvalues --    3.86854   3.87390   3.90293   3.96114   3.96630
 Alpha virt. eigenvalues --    3.99595   4.01768   4.01849   4.06971   4.09768
 Alpha virt. eigenvalues --    4.11017   4.18128   4.21917   4.27853   4.30804
 Alpha virt. eigenvalues --    4.55406   4.75005   4.79166   4.98572   5.01535
 Alpha virt. eigenvalues --    5.07806   5.09478   5.15474   5.36438   5.49689
 Alpha virt. eigenvalues --    5.79841   5.95395   6.46372   6.48236   6.50597
 Alpha virt. eigenvalues --    6.52476   6.53538   6.54787   6.60685   6.88102
 Alpha virt. eigenvalues --    6.89541   9.96910  23.44834  23.56295  23.63955
 Alpha virt. eigenvalues --   23.71084  23.80542  23.91401  23.92374  23.96145
 Alpha virt. eigenvalues --   24.08647  24.10582  24.19309  25.93523  26.23820
 Alpha virt. eigenvalues --   26.71417  35.64836  50.01119  50.13293  66.88923
 Alpha virt. eigenvalues --   66.90070  66.95160 216.07025
          Condensed to atoms (all electrons):
               1          2          3          4          5          6
     1  C   31.345918  -0.496502  -1.228398  -0.265554  -0.351534  -0.773863
     2  N   -0.496502   7.637631   0.203100   0.006608  -0.232180  -0.266798
     3  C   -1.228398   0.203100   8.751681   0.465075   0.294941  -0.558137
     4  O   -0.265554   0.006608   0.465075   8.049546  -0.199415  -0.178882
     5  O   -0.351534  -0.232180   0.294941  -0.199415   8.357987   0.371039
     6  C   -0.773863  -0.266798  -0.558137  -0.178882   0.371039   8.195825
     7  C   -0.028272   0.026422   0.111188   0.027951  -0.173779  -0.914037
     8  C   -0.019298  -0.004047  -0.242527   0.001788   0.034055   0.314157
     9  C   -0.920322   0.134946   0.010921  -0.139605  -0.053821  -0.013514
    10  C   -3.735827   0.276482  -1.315235   0.009565  -0.004709  -0.167832
    11  C  -13.741040   0.107698  -0.665407  -0.045046  -0.011083  -0.038933
    12  C   -0.805091   0.103296   0.004317   0.119536   0.031796  -0.018190
    13  C    1.091468  -0.254108   0.152088   0.433813   0.060628  -0.168907
    14  H   -0.037586   0.262451   0.002351   0.000529   0.024857  -0.006906
    15  H    0.010751   0.005138   0.048933  -0.002442  -0.044214   0.344810
    16  H    0.007616   0.005043   0.041559  -0.002160  -0.044259   0.354443
    17  H    0.000339  -0.000765   0.008988  -0.000309   0.000903  -0.065607
    18  H   -0.000308  -0.000772   0.006382  -0.000298   0.000872  -0.063225
    19  H   -0.000126  -0.000047  -0.001169  -0.000075  -0.000447  -0.047567
    20  H    0.000138   0.000037   0.007878   0.000030  -0.000667   0.090487
    21  H   -0.000090  -0.000046  -0.000896  -0.000077  -0.000450  -0.047633
    22  H    0.113948  -0.022938  -0.013618   0.000072  -0.001028  -0.001371
    23  Cl  -0.001594   0.002268   0.052751   0.000658   0.000789   0.005254
    24  H    0.027890  -0.028422   0.103171   0.004290   0.002387   0.011390
    25  C   -3.751883   0.016723  -0.297851  -0.001308   0.000379  -0.016461
    26  H    0.062401   0.000793   0.003304   0.000004   0.000002   0.000036
    27  F    0.040844   0.000699  -0.001149   0.000003   0.000001  -0.000014
    28  F   -0.045945   0.001055  -0.001850   0.000000   0.000001  -0.000017
    29  F    0.151480   0.000530  -0.000579   0.000000   0.000005   0.000010
               7          8          9         10         11         12
     1  C   -0.028272  -0.019298  -0.920322  -3.735827 -13.741040  -0.805091
     2  N    0.026422  -0.004047   0.134946   0.276482   0.107698   0.103296
     3  C    0.111188  -0.242527   0.010921  -1.315235  -0.665407   0.004317
     4  O    0.027951   0.001788  -0.139605   0.009565  -0.045046   0.119536
     5  O   -0.173779   0.034055  -0.053821  -0.004709  -0.011083   0.031796
     6  C   -0.914037   0.314157  -0.013514  -0.167832  -0.038933  -0.018190
     7  C    6.497575  -0.139953   0.019099  -0.003328   0.003263  -0.006878
     8  C   -0.139953   6.062872  -0.001710  -0.002147  -0.000069   0.000241
     9  C    0.019099  -0.001710  19.780271  -1.021004  -0.053160  -7.058498
    10  C   -0.003328  -0.002147  -1.021004  27.506139  -7.055703   0.865907
    11  C    0.003263  -0.000069  -0.053160  -7.055703  38.622230 -11.112070
    12  C   -0.006878   0.000241  -7.058498   0.865907 -11.112070  23.337851
    13  C   -0.009669  -0.006374  -4.175832  -3.570053  -5.327845   3.649218
    14  H   -0.001771  -0.000550  -0.065319  -0.001246  -0.024631   0.027406
    15  H   -0.024067  -0.015704   0.001854   0.000171   0.000231  -0.000290
    16  H   -0.024374  -0.014774   0.000985   0.000036   0.000152  -0.000192
    17  H    0.442180  -0.045831   0.000311   0.000040   0.000011  -0.000000
    18  H    0.442453  -0.045176   0.000161  -0.000003   0.000007   0.000010
    19  H    0.013924   0.379747   0.000011  -0.000001   0.000000  -0.000002
    20  H   -0.137135   0.391837  -0.000017   0.000001  -0.000000   0.000001
    21  H    0.013701   0.379743   0.000018  -0.000000   0.000000  -0.000003
    22  H    0.000012  -0.000002   0.292136  -0.037482  -0.085646   0.007563
    23  Cl  -0.000158   0.000041   0.009877  -0.144109  -0.201336  -0.795210
    24  H   -0.000366   0.000076   0.025995  -0.012326   0.027307  -0.134538
    25  C   -0.000145  -0.000100  -0.237142  -4.860743   6.147907  -3.393684
    26  H   -0.000000   0.000000  -0.048803   0.106366   0.060972   0.143217
    27  F    0.000000  -0.000000   0.017605  -0.045220  -0.235447   0.206174
    28  F    0.000000   0.000000  -0.137440   0.461038  -0.222392   0.003129
    29  F    0.000001   0.000000  -0.002214  -0.133719  -0.096341   0.063239
              13         14         15         16         17         18
     1  C    1.091468  -0.037586   0.010751   0.007616   0.000339  -0.000308
     2  N   -0.254108   0.262451   0.005138   0.005043  -0.000765  -0.000772
     3  C    0.152088   0.002351   0.048933   0.041559   0.008988   0.006382
     4  O    0.433813   0.000529  -0.002442  -0.002160  -0.000309  -0.000298
     5  O    0.060628   0.024857  -0.044214  -0.044259   0.000903   0.000872
     6  C   -0.168907  -0.006906   0.344810   0.354443  -0.065607  -0.063225
     7  C   -0.009669  -0.001771  -0.024067  -0.024374   0.442180   0.442453
     8  C   -0.006374  -0.000550  -0.015704  -0.014774  -0.045831  -0.045176
     9  C   -4.175832  -0.065319   0.001854   0.000985   0.000311   0.000161
    10  C   -3.570053  -0.001246   0.000171   0.000036   0.000040  -0.000003
    11  C   -5.327845  -0.024631   0.000231   0.000152   0.000011   0.000007
    12  C    3.649218   0.027406  -0.000290  -0.000192  -0.000000   0.000010
    13  C   14.072637   0.081693  -0.003283  -0.002144  -0.000019   0.000143
    14  H    0.081693   0.320038  -0.000019  -0.000004  -0.000002   0.000006
    15  H   -0.003283  -0.000019   0.449399  -0.040509   0.005457  -0.007870
    16  H   -0.002144  -0.000004  -0.040509   0.449077  -0.007851   0.005449
    17  H   -0.000019  -0.000002   0.005457  -0.007851   0.445147  -0.036944
    18  H    0.000143   0.000006  -0.007870   0.005449  -0.036944   0.445225
    19  H   -0.000001  -0.000000  -0.000550   0.003782  -0.008121   0.006157
    20  H    0.000048   0.000000  -0.000202  -0.000204  -0.003249  -0.003242
    21  H   -0.000021  -0.000000   0.003774  -0.000539   0.006148  -0.008111
    22  H    0.016402   0.006935  -0.000000  -0.000000  -0.000000  -0.000000
    23  Cl   0.356678   0.000434  -0.000000   0.000001   0.000000   0.000000
    24  H    0.301913  -0.000094  -0.000029  -0.000027  -0.000000  -0.000000
    25  C   -0.454522   0.004334   0.000007   0.000002   0.000001   0.000000
    26  H    0.016182  -0.000003  -0.000000  -0.000000   0.000000   0.000000
    27  F    0.016635  -0.000008   0.000000  -0.000000   0.000000  -0.000000
    28  F   -0.001339  -0.000016   0.000000  -0.000000   0.000000   0.000000
    29  F    0.008338   0.000090  -0.000000   0.000000  -0.000000   0.000000
              19         20         21         22         23         24
     1  C   -0.000126   0.000138  -0.000090   0.113948  -0.001594   0.027890
     2  N   -0.000047   0.000037  -0.000046  -0.022938   0.002268  -0.028422
     3  C   -0.001169   0.007878  -0.000896  -0.013618   0.052751   0.103171
     4  O   -0.000075   0.000030  -0.000077   0.000072   0.000658   0.004290
     5  O   -0.000447  -0.000667  -0.000450  -0.001028   0.000789   0.002387
     6  C   -0.047567   0.090487  -0.047633  -0.001371   0.005254   0.011390
     7  C    0.013924  -0.137135   0.013701   0.000012  -0.000158  -0.000366
     8  C    0.379747   0.391837   0.379743  -0.000002   0.000041   0.000076
     9  C    0.000011  -0.000017   0.000018   0.292136   0.009877   0.025995
    10  C   -0.000001   0.000001  -0.000000  -0.037482  -0.144109  -0.012326
    11  C    0.000000  -0.000000   0.000000  -0.085646  -0.201336   0.027307
    12  C   -0.000002   0.000001  -0.000003   0.007563  -0.795210  -0.134538
    13  C   -0.000001   0.000048  -0.000021   0.016402   0.356678   0.301913
    14  H   -0.000000   0.000000  -0.000000   0.006935   0.000434  -0.000094
    15  H   -0.000550  -0.000202   0.003774  -0.000000  -0.000000  -0.000029
    16  H    0.003782  -0.000204  -0.000539  -0.000000   0.000001  -0.000027
    17  H   -0.008121  -0.003249   0.006148  -0.000000   0.000000  -0.000000
    18  H    0.006157  -0.003242  -0.008111  -0.000000   0.000000  -0.000000
    19  H    0.457339  -0.024932  -0.037766  -0.000000  -0.000000  -0.000000
    20  H   -0.024932   0.429641  -0.024926   0.000000   0.000000   0.000000
    21  H   -0.037766  -0.024926   0.457327  -0.000000  -0.000000  -0.000000
    22  H   -0.000000   0.000000  -0.000000   0.406760   0.000487  -0.000050
    23  Cl  -0.000000   0.000000  -0.000000   0.000487  17.416205  -0.008333
    24  H   -0.000000   0.000000  -0.000000  -0.000050  -0.008333   0.347617
    25  C   -0.000000   0.000000  -0.000000   0.048895  -0.117075   0.000820
    26  H    0.000000   0.000000   0.000000  -0.000234  -0.014468  -0.000251
    27  F   -0.000000   0.000000  -0.000000   0.000411  -0.000254  -0.000008
    28  F   -0.000000  -0.000000  -0.000000  -0.000869  -0.000654   0.000000
    29  F    0.000000  -0.000000   0.000000   0.006643  -0.000318  -0.000000
              25         26         27         28         29
     1  C   -3.751883   0.062401   0.040844  -0.045945   0.151480
     2  N    0.016723   0.000793   0.000699   0.001055   0.000530
     3  C   -0.297851   0.003304  -0.001149  -0.001850  -0.000579
     4  O   -0.001308   0.000004   0.000003   0.000000   0.000000
     5  O    0.000379   0.000002   0.000001   0.000001   0.000005
     6  C   -0.016461   0.000036  -0.000014  -0.000017   0.000010
     7  C   -0.000145  -0.000000   0.000000   0.000000   0.000001
     8  C   -0.000100   0.000000  -0.000000   0.000000   0.000000
     9  C   -0.237142  -0.048803   0.017605  -0.137440  -0.002214
    10  C   -4.860743   0.106366  -0.045220   0.461038  -0.133719
    11  C    6.147907   0.060972  -0.235447  -0.222392  -0.096341
    12  C   -3.393684   0.143217   0.206174   0.003129   0.063239
    13  C   -0.454522   0.016182   0.016635  -0.001339   0.008338
    14  H    0.004334  -0.000003  -0.000008  -0.000016   0.000090
    15  H    0.000007  -0.000000   0.000000   0.000000  -0.000000
    16  H    0.000002  -0.000000  -0.000000  -0.000000   0.000000
    17  H    0.000001   0.000000   0.000000   0.000000  -0.000000
    18  H    0.000000   0.000000  -0.000000   0.000000   0.000000
    19  H   -0.000000   0.000000  -0.000000  -0.000000   0.000000
    20  H    0.000000   0.000000   0.000000  -0.000000  -0.000000
    21  H   -0.000000   0.000000  -0.000000  -0.000000   0.000000
    22  H    0.048895  -0.000234   0.000411  -0.000869   0.006643
    23  Cl  -0.117075  -0.014468  -0.000254  -0.000654  -0.000318
    24  H    0.000820  -0.000251  -0.000008   0.000000  -0.000000
    25  C   11.860676  -0.019364   0.149794   0.130021   0.157534
    26  H   -0.019364   0.380967   0.005057  -0.000402   0.000597
    27  F    0.149794   0.005057   9.010420  -0.049364  -0.024183
    28  F    0.130021  -0.000402  -0.049364   8.957213  -0.046320
    29  F    0.157534   0.000597  -0.024183  -0.046320   9.024592
 Mulliken charges:
               1
     1  C   -0.649556
     2  N   -0.484296
     3  C    0.058186
     4  O   -0.284298
     5  O   -0.063058
     6  C   -0.339557
     7  C   -0.133835
     8  C   -1.026296
     9  C   -0.365792
    10  C   -1.115060
    11  C   -0.053629
    12  C    0.761745
    13  C   -0.283769
    14  H    0.407032
    15  H    0.268655
    16  H    0.268895
    17  H    0.259172
    18  H    0.259084
    19  H    0.259841
    20  H    0.274474
    21  H    0.259849
    22  H    0.262976
    23  Cl   0.438067
    24  H    0.331588
    25  C    0.633188
    26  H    0.303626
    27  F   -0.091994
    28  F   -0.045851
    29  F   -0.109383
 Sum of Mulliken charges =  -0.00000
 Mulliken charges with hydrogens summed into heavy atoms:
               1
     1  C   -0.649556
     2  N   -0.077264
     3  C    0.058186
     4  O   -0.284298
     5  O   -0.063058
     6  C    0.197992
     7  C    0.384420
     8  C   -0.232132
     9  C   -0.102815
    10  C   -1.115060
    11  C    0.249997
    12  C    0.761745
    13  C    0.047819
    23  Cl   0.438067
    25  C    0.633188
    27  F   -0.091994
    28  F   -0.045851
    29  F   -0.109383
 Electronic spatial extent (au):  <R**2>=           8268.2229
 Charge=             -0.0000 electrons
 Dipole moment (field-independent basis, Debye):
    X=             -4.1094    Y=             -1.9710    Z=             -0.0950  Tot=              4.5586
 Quadrupole moment (field-independent basis, Debye-Ang):
   XX=           -103.0829   YY=           -116.3211   ZZ=           -113.3191
   XY=              9.3702   XZ=             -0.2923   YZ=              0.1338
 Traceless Quadrupole moment (field-independent basis, Debye-Ang):
   XX=              7.8248   YY=             -5.4134   ZZ=             -2.4114
   XY=              9.3702   XZ=             -0.2923   YZ=              0.1338
 Octapole moment (field-independent basis, Debye-Ang**2):
  XXX=            -87.8398  YYY=            -35.3115  ZZZ=             -0.8017  XYY=              6.9743
  XXY=             -0.5829  XXZ=             -0.1961  XZZ=              4.9761  YZZ=             -7.1832
  YYZ=              0.7110  XYZ=              0.9249
 Hexadecapole moment (field-independent basis, Debye-Ang**3):
 XXXX=          -7802.3813 YYYY=          -1896.1236 ZZZZ=           -203.2592 XXXY=             72.0365
 XXXZ=              4.6254 YYYX=            -69.1562 YYYZ=             -3.4767 ZZZX=             -3.9304
 ZZZY=              2.2083 XXYY=          -1759.1969 XXZZ=          -1423.2555 YYZZ=           -359.7990
 XXYZ=              3.8648 YYXZ=              0.8374 ZZXY=            -37.0659
 N-N= 1.417966646267D+03 E-N=-6.114389376239D+03  KE= 1.386781632848D+03
 Calling FoFJK, ICntrl=      2127 FMM=F ISym2X=0 I1Cent= 0 IOpClX= 0 NMat=1 NMatS=1 NMatT=0.
 ***** Axes restored to original set *****
 -------------------------------------------------------------------
 Center     Atomic                   Forces (Hartrees/Bohr)
 Number     Number              X              Y              Z
 -------------------------------------------------------------------
      1        6           0.000000859    0.000001085   -0.000001243
      2        7          -0.000002690   -0.000001191    0.000002120
      3        6           0.000000105   -0.000000124   -0.000001544
      4        8           0.000003235    0.000001354   -0.000001167
      5        8          -0.000000335   -0.000000182    0.000000267
      6        6           0.000003379    0.000001750    0.000000198
      7        6           0.000000848    0.000001725    0.000000480
      8        6           0.000000293    0.000003032    0.000000234
      9        6          -0.000000715   -0.000002023   -0.000001707
     10        6           0.000000621   -0.000002422    0.000002622
     11        6          -0.000001836   -0.000001152   -0.000000346
     12        6          -0.000001791   -0.000002110   -0.000001992
     13        6          -0.000002731    0.000000952    0.000000493
     14        1           0.000000675   -0.000000250    0.000000760
     15        1          -0.000000147    0.000002515   -0.000000623
     16        1          -0.000000359    0.000001580   -0.000000512
     17        1           0.000000837    0.000001497    0.000000852
     18        1           0.000001231    0.000002592    0.000001003
     19        1           0.000000112    0.000002432   -0.000000117
     20        1           0.000001067    0.000003281    0.000000777
     21        1           0.000000380    0.000003608   -0.000000135
     22        1           0.000001089   -0.000001642    0.000001365
     23       17          -0.000002044   -0.000001469   -0.000002073
     24        1          -0.000003122   -0.000000347   -0.000001372
     25        6           0.000000175   -0.000002765    0.000002072
     26        1          -0.000000974   -0.000002716   -0.000000550
     27        9           0.000000805   -0.000002697   -0.000000567
     28        9          -0.000000809   -0.000003194   -0.000000496
     29        9           0.000001841   -0.000003121    0.000001200
 -------------------------------------------------------------------
 Cartesian Forces:  Max     0.000003608 RMS     0.000001676

 GradGradGradGradGradGradGradGradGradGradGradGradGradGradGradGradGradGrad
 Berny optimization.
 FormGI is forming the generalized inverse of G from B-inverse, IUseBI=4.
 GSVD:  received Info=                   1 from GESDD.
 Internal  Forces:  Max     0.000011766 RMS     0.000001947
 Search for a local minimum.
 Step number   1 out of a maximum of  149
 All quantities printed in internal units (Hartrees-Bohrs-Radians)
 Mixed Optimization -- En-DIIS/RFO-DIIS
 Second derivative matrix not updated -- first step.
 ITU=  0
     Eigenvalues ---    0.00419   0.00589   0.00723   0.01211   0.01662
     Eigenvalues ---    0.01706   0.01875   0.01999   0.02049   0.02135
     Eigenvalues ---    0.02179   0.02179   0.02202   0.02237   0.02246
     Eigenvalues ---    0.02256   0.02261   0.02450   0.03810   0.04967
     Eigenvalues ---    0.05393   0.05503   0.05538   0.05715   0.08125
     Eigenvalues ---    0.10697   0.10866   0.11290   0.12022   0.13614
     Eigenvalues ---    0.15999   0.15999   0.16000   0.16000   0.16000
     Eigenvalues ---    0.16000   0.16000   0.21882   0.21941   0.22000
     Eigenvalues ---    0.23485   0.23492   0.23509   0.24971   0.25000
     Eigenvalues ---    0.25000   0.25000   0.25000   0.25000   0.25000
     Eigenvalues ---    0.25000   0.25000   0.29772   0.31017   0.31523
     Eigenvalues ---    0.32042   0.34427   0.34427   0.34503   0.34504
     Eigenvalues ---    0.34505   0.34505   0.34741   0.35460   0.35742
     Eigenvalues ---    0.36065   0.40089   0.42617   0.43055   0.45805
     Eigenvalues ---    0.46090   0.46401   0.46930   0.47694   0.48068
     Eigenvalues ---    0.50403   0.56545   0.56606   0.57081   0.57593
     Eigenvalues ---    1.03230
 RFO step:  Lambda= 0.00000000D+00 EMin= 4.18652023D-03
 Linear search not attempted -- first point.
 Iteration  1 RMS(Cart)=  0.00012332 RMS(Int)=  0.00000000
 Iteration  2 RMS(Cart)=  0.00000001 RMS(Int)=  0.00000000
 Variable       Old X    -DE/DX   Delta X   Delta X   Delta X     New X
                                 (Linear)    (Quad)   (Total)
    R1        2.64352   0.00000   0.00000   0.00001   0.00001   2.64353
    R2        2.64236   0.00000   0.00000   0.00000   0.00000   2.64236
    R3        2.64062   0.00000   0.00000   0.00001   0.00001   2.64063
    R4        2.59461   0.00001   0.00000   0.00001   0.00001   2.59462
    R5        1.90729   0.00000   0.00000   0.00000   0.00000   1.90729
    R6        2.27373   0.00000   0.00000   0.00000   0.00000   2.27373
    R7        2.53732   0.00000   0.00000   0.00000   0.00000   2.53732
    R8        2.71433   0.00000   0.00000   0.00001   0.00001   2.71434
    R9        2.85980   0.00000   0.00000   0.00000   0.00000   2.85980
   R10        2.06490  -0.00000   0.00000  -0.00000  -0.00000   2.06490
   R11        2.06488   0.00000   0.00000   0.00000   0.00000   2.06488
   R12        2.88420   0.00000   0.00000   0.00000   0.00000   2.88420
   R13        2.06616  -0.00000   0.00000  -0.00000  -0.00000   2.06616
   R14        2.06615  -0.00000   0.00000  -0.00000  -0.00000   2.06615
   R15        2.06486  -0.00000   0.00000  -0.00000  -0.00000   2.06486
   R16        2.06098  -0.00000   0.00000  -0.00000  -0.00000   2.06098
   R17        2.06487  -0.00000   0.00000  -0.00000  -0.00000   2.06487
   R18        2.61623   0.00000   0.00000  -0.00000  -0.00000   2.61623
   R19        2.04935   0.00000   0.00000   0.00000   0.00000   2.04935
   R20        2.62589  -0.00000   0.00000  -0.00000  -0.00000   2.62589
   R21        2.84068   0.00000   0.00000   0.00000   0.00000   2.84068
   R22        2.61968  -0.00000   0.00000  -0.00000  -0.00000   2.61968
   R23        2.04486  -0.00000   0.00000  -0.00000  -0.00000   2.04486
   R24        2.62410   0.00000   0.00000   0.00000   0.00000   2.62410
   R25        3.28726  -0.00000   0.00000  -0.00000  -0.00000   3.28726
   R26        2.03980  -0.00000   0.00000  -0.00000  -0.00000   2.03980
   R27        2.52897  -0.00000   0.00000  -0.00000  -0.00000   2.52897
   R28        2.53784   0.00000   0.00000   0.00000   0.00000   2.53784
   R29        2.53328   0.00000   0.00000   0.00000   0.00000   2.53328
    A1        2.04456  -0.00001   0.00000  -0.00003  -0.00003   2.04453
    A2        2.14978   0.00001   0.00000   0.00004   0.00004   2.14981
    A3        2.08885  -0.00000   0.00000  -0.00001  -0.00001   2.08884
    A4        2.22643   0.00001   0.00000   0.00005   0.00005   2.22649
    A5        2.04635  -0.00001   0.00000  -0.00003  -0.00003   2.04632
    A6        2.01040  -0.00001   0.00000  -0.00003  -0.00003   2.01037
    A7        2.20674   0.00001   0.00000   0.00002   0.00002   2.20676
    A8        1.89914  -0.00000   0.00000  -0.00001  -0.00001   1.89914
    A9        2.17730  -0.00000   0.00000  -0.00001  -0.00001   2.17729
   A10        2.01475   0.00000   0.00000   0.00001   0.00001   2.01476
   A11        1.87878   0.00000   0.00000   0.00000   0.00000   1.87878
   A12        1.89894  -0.00000   0.00000   0.00000   0.00000   1.89894
   A13        1.89895  -0.00000   0.00000  -0.00000  -0.00000   1.89895
   A14        1.95151  -0.00000   0.00000  -0.00000  -0.00000   1.95150
   A15        1.95149   0.00000   0.00000   0.00000   0.00000   1.95149
   A16        1.88311  -0.00000   0.00000  -0.00000  -0.00000   1.88311
   A17        1.93608  -0.00000   0.00000  -0.00000  -0.00000   1.93608
   A18        1.90233   0.00000   0.00000   0.00000   0.00000   1.90233
   A19        1.90240  -0.00000   0.00000  -0.00000  -0.00000   1.90240
   A20        1.92705   0.00000   0.00000   0.00000   0.00000   1.92705
   A21        1.92703  -0.00000   0.00000  -0.00000  -0.00000   1.92703
   A22        1.86741   0.00000   0.00000   0.00000   0.00000   1.86741
   A23        1.94260   0.00000   0.00000   0.00000   0.00000   1.94260
   A24        1.93760   0.00000   0.00000   0.00000   0.00000   1.93760
   A25        1.94262   0.00000   0.00000   0.00000   0.00000   1.94262
   A26        1.87904  -0.00000   0.00000  -0.00000  -0.00000   1.87904
   A27        1.88004  -0.00000   0.00000  -0.00000  -0.00000   1.88004
   A28        1.87904  -0.00000   0.00000  -0.00000  -0.00000   1.87903
   A29        2.09156   0.00000   0.00000   0.00001   0.00001   2.09156
   A30        2.09883  -0.00000   0.00000  -0.00000  -0.00000   2.09883
   A31        2.09276  -0.00000   0.00000  -0.00000  -0.00000   2.09276
   A32        2.12204   0.00000   0.00000   0.00000   0.00000   2.12204
   A33        2.08086   0.00000   0.00000  -0.00000  -0.00000   2.08086
   A34        2.07925  -0.00000   0.00000  -0.00000  -0.00000   2.07925
   A35        2.05164  -0.00000   0.00000  -0.00000  -0.00000   2.05163
   A36        2.12013   0.00000   0.00000   0.00000   0.00000   2.12013
   A37        2.11139   0.00000   0.00000   0.00000   0.00000   2.11140
   A38        2.14084   0.00000   0.00000   0.00000   0.00000   2.14084
   A39        2.07426  -0.00000   0.00000  -0.00000  -0.00000   2.07426
   A40        2.06808  -0.00000   0.00000  -0.00000  -0.00000   2.06808
   A41        2.07145   0.00000   0.00000   0.00000   0.00000   2.07145
   A42        2.10881   0.00000   0.00000   0.00001   0.00001   2.10882
   A43        2.10292  -0.00000   0.00000  -0.00001  -0.00001   2.10291
   A44        1.95412  -0.00000   0.00000  -0.00000  -0.00000   1.95412
   A45        1.94514   0.00000   0.00000   0.00000   0.00000   1.94514
   A46        1.95476  -0.00000   0.00000  -0.00000  -0.00000   1.95476
   A47        1.86519  -0.00000   0.00000  -0.00001  -0.00001   1.86518
   A48        1.87599   0.00000   0.00000   0.00001   0.00001   1.87600
   A49        1.86341   0.00000   0.00000   0.00000   0.00000   1.86341
    D1       -3.13185  -0.00000   0.00000  -0.00004  -0.00004  -3.13189
    D2        0.00627  -0.00000   0.00000  -0.00003  -0.00003   0.00623
    D3        0.00704  -0.00000   0.00000  -0.00006  -0.00006   0.00698
    D4       -3.13803  -0.00000   0.00000  -0.00005  -0.00005  -3.13808
    D5        3.13749  -0.00000   0.00000  -0.00004  -0.00004   3.13745
    D6        0.00473  -0.00000   0.00000  -0.00002  -0.00002   0.00471
    D7       -0.00150  -0.00000   0.00000  -0.00002  -0.00002  -0.00153
    D8       -3.13427   0.00000   0.00000   0.00000   0.00000  -3.13426
    D9       -3.13821   0.00000   0.00000   0.00003   0.00003  -3.13818
   D10       -0.00020   0.00000   0.00000   0.00003   0.00003  -0.00017
   D11        0.00062   0.00000   0.00000   0.00001   0.00001   0.00063
   D12        3.13863   0.00000   0.00000   0.00000   0.00000   3.13864
   D13       -0.00158  -0.00000   0.00000  -0.00001  -0.00001  -0.00160
   D14        3.14005  -0.00000   0.00000  -0.00004  -0.00004   3.14001
   D15       -3.13976  -0.00000   0.00000  -0.00002  -0.00002  -3.13978
   D16        0.00187  -0.00000   0.00000  -0.00005  -0.00005   0.00182
   D17       -3.14132   0.00000   0.00000   0.00001   0.00001  -3.14131
   D18        0.00031  -0.00000   0.00000  -0.00001  -0.00001   0.00030
   D19       -3.14081  -0.00000   0.00000  -0.00003  -0.00003  -3.14084
   D20        1.02449  -0.00000   0.00000  -0.00003  -0.00003   1.02446
   D21       -1.02294  -0.00000   0.00000  -0.00003  -0.00003  -1.02296
   D22        3.14156   0.00000   0.00000  -0.00000  -0.00000   3.14156
   D23        1.01622  -0.00000   0.00000  -0.00001  -0.00001   1.01621
   D24       -1.01626  -0.00000   0.00000  -0.00001  -0.00001  -1.01626
   D25       -1.05690   0.00000   0.00000  -0.00000  -0.00000  -1.05691
   D26        3.10094   0.00000   0.00000  -0.00001  -0.00001   3.10093
   D27        1.06846   0.00000   0.00000  -0.00001  -0.00001   1.06846
   D28        1.05684  -0.00000   0.00000  -0.00001  -0.00001   1.05684
   D29       -1.06850  -0.00000   0.00000  -0.00001  -0.00001  -1.06851
   D30       -3.10098  -0.00000   0.00000  -0.00001  -0.00001  -3.10098
   D31       -1.04863  -0.00000   0.00000  -0.00001  -0.00001  -1.04864
   D32       -3.14147  -0.00000   0.00000  -0.00001  -0.00001  -3.14148
   D33        1.04887  -0.00000   0.00000  -0.00001  -0.00001   1.04886
   D34        1.06219  -0.00000   0.00000  -0.00001  -0.00001   1.06218
   D35       -1.03066  -0.00000   0.00000  -0.00001  -0.00001  -1.03067
   D36       -3.12351  -0.00000   0.00000  -0.00001  -0.00001  -3.12352
   D37        3.12367   0.00000   0.00000  -0.00001  -0.00001   3.12366
   D38        1.03083   0.00000   0.00000  -0.00001  -0.00001   1.03082
   D39       -1.06202   0.00000   0.00000  -0.00001  -0.00001  -1.06203
   D40        0.00215   0.00000   0.00000   0.00001   0.00001   0.00217
   D41        3.09449  -0.00000   0.00000  -0.00001  -0.00001   3.09448
   D42        3.13495  -0.00000   0.00000  -0.00001  -0.00001   3.13494
   D43       -0.05590  -0.00000   0.00000  -0.00004  -0.00004  -0.05594
   D44       -0.00184   0.00000   0.00000   0.00001   0.00001  -0.00184
   D45       -3.13517  -0.00000   0.00000  -0.00000  -0.00000  -3.13518
   D46       -3.09422   0.00000   0.00000   0.00003   0.00003  -3.09419
   D47        0.05563   0.00000   0.00000   0.00002   0.00002   0.05565
   D48        2.61866   0.00000   0.00000  -0.00002  -0.00002   2.61864
   D49       -1.57638  -0.00000   0.00000  -0.00003  -0.00003  -1.57641
   D50        0.50993  -0.00000   0.00000  -0.00003  -0.00003   0.50991
   D51       -0.57097   0.00000   0.00000  -0.00005  -0.00005  -0.57101
   D52        1.51718  -0.00000   0.00000  -0.00005  -0.00005   1.51713
   D53       -2.67970  -0.00000   0.00000  -0.00005  -0.00005  -2.67975
   D54        0.00095  -0.00000   0.00000  -0.00002  -0.00002   0.00093
   D55       -3.13739  -0.00000   0.00000  -0.00000  -0.00000  -3.13740
   D56        3.13432  -0.00000   0.00000  -0.00001  -0.00001   3.13431
   D57       -0.00402   0.00000   0.00000   0.00000   0.00000  -0.00401
   D58       -0.00036   0.00000   0.00000   0.00001   0.00001  -0.00035
   D59       -3.13838   0.00000   0.00000   0.00002   0.00002  -3.13837
   D60        3.13799  -0.00000   0.00000  -0.00000  -0.00000   3.13798
   D61       -0.00004   0.00000   0.00000   0.00000   0.00000  -0.00003
         Item               Value     Threshold  Converged?
 Maximum Force            0.000012     0.000450     YES
 RMS     Force            0.000002     0.000300     YES
 Maximum Displacement     0.000378     0.001800     YES
 RMS     Displacement     0.000123     0.001200     YES
 Predicted change in Energy=-1.287182D-09
 Optimization completed.
    -- Stationary point found.
                           ----------------------------
                           !   Optimized Parameters   !
                           ! (Angstroms and Degrees)  !
 --------------------------                            --------------------------
 ! Name  Definition              Value          Derivative Info.                !
 --------------------------------------------------------------------------------
 ! R1    R(1,2)                  1.3989         -DE/DX =    0.0                 !
 ! R2    R(1,9)                  1.3983         -DE/DX =    0.0                 !
 ! R3    R(1,13)                 1.3974         -DE/DX =    0.0                 !
 ! R4    R(2,3)                  1.373          -DE/DX =    0.0                 !
 ! R5    R(2,14)                 1.0093         -DE/DX =    0.0                 !
 ! R6    R(3,4)                  1.2032         -DE/DX =    0.0                 !
 ! R7    R(3,5)                  1.3427         -DE/DX =    0.0                 !
 ! R8    R(5,6)                  1.4364         -DE/DX =    0.0                 !
 ! R9    R(6,7)                  1.5133         -DE/DX =    0.0                 !
 ! R10   R(6,15)                 1.0927         -DE/DX =    0.0                 !
 ! R11   R(6,16)                 1.0927         -DE/DX =    0.0                 !
 ! R12   R(7,8)                  1.5263         -DE/DX =    0.0                 !
 ! R13   R(7,17)                 1.0934         -DE/DX =    0.0                 !
 ! R14   R(7,18)                 1.0934         -DE/DX =    0.0                 !
 ! R15   R(8,19)                 1.0927         -DE/DX =    0.0                 !
 ! R16   R(8,20)                 1.0906         -DE/DX =    0.0                 !
 ! R17   R(8,21)                 1.0927         -DE/DX =    0.0                 !
 ! R18   R(9,10)                 1.3845         -DE/DX =    0.0                 !
 ! R19   R(9,22)                 1.0845         -DE/DX =    0.0                 !
 ! R20   R(10,11)                1.3896         -DE/DX =    0.0                 !
 ! R21   R(10,25)                1.5032         -DE/DX =    0.0                 !
 ! R22   R(11,12)                1.3863         -DE/DX =    0.0                 !
 ! R23   R(11,26)                1.0821         -DE/DX =    0.0                 !
 ! R24   R(12,13)                1.3886         -DE/DX =    0.0                 !
 ! R25   R(12,23)                1.7395         -DE/DX =    0.0                 !
 ! R26   R(13,24)                1.0794         -DE/DX =    0.0                 !
 ! R27   R(25,27)                1.3383         -DE/DX =    0.0                 !
 ! R28   R(25,28)                1.343          -DE/DX =    0.0                 !
 ! R29   R(25,29)                1.3406         -DE/DX =    0.0                 !
 ! A1    A(2,1,9)              117.1445         -DE/DX =    0.0                 !
 ! A2    A(2,1,13)             123.1731         -DE/DX =    0.0                 !
 ! A3    A(9,1,13)             119.6823         -DE/DX =    0.0                 !
 ! A4    A(1,2,3)              127.5652         -DE/DX =    0.0                 !
 ! A5    A(1,2,14)             117.247          -DE/DX =    0.0                 !
 ! A6    A(3,2,14)             115.1875         -DE/DX =    0.0                 !
 ! A7    A(2,3,4)              126.4367         -DE/DX =    0.0                 !
 ! A8    A(2,3,5)              108.813          -DE/DX =    0.0                 !
 ! A9    A(4,3,5)              124.7503         -DE/DX =    0.0                 !
 ! A10   A(3,5,6)              115.4367         -DE/DX =    0.0                 !
 ! A11   A(5,6,7)              107.646          -DE/DX =    0.0                 !
 ! A12   A(5,6,15)             108.8012         -DE/DX =    0.0                 !
 ! A13   A(5,6,16)             108.8016         -DE/DX =    0.0                 !
 ! A14   A(7,6,15)             111.8131         -DE/DX =    0.0                 !
 ! A15   A(7,6,16)             111.8123         -DE/DX =    0.0                 !
 ! A16   A(15,6,16)            107.8945         -DE/DX =    0.0                 !
 ! A17   A(6,7,8)              110.929          -DE/DX =    0.0                 !
 ! A18   A(6,7,17)             108.9952         -DE/DX =    0.0                 !
 ! A19   A(6,7,18)             108.9993         -DE/DX =    0.0                 !
 ! A20   A(8,7,17)             110.412          -DE/DX =    0.0                 !
 ! A21   A(8,7,18)             110.4108         -DE/DX =    0.0                 !
 ! A22   A(17,7,18)            106.9948         -DE/DX =    0.0                 !
 ! A23   A(7,8,19)             111.3028         -DE/DX =    0.0                 !
 ! A24   A(7,8,20)             111.0164         -DE/DX =    0.0                 !
 ! A25   A(7,8,21)             111.304          -DE/DX =    0.0                 !
 ! A26   A(19,8,20)            107.6612         -DE/DX =    0.0                 !
 ! A27   A(19,8,21)            107.7184         -DE/DX =    0.0                 !
 ! A28   A(20,8,21)            107.6608         -DE/DX =    0.0                 !
 ! A29   A(1,9,10)             119.8374         -DE/DX =    0.0                 !
 ! A30   A(1,9,22)             120.2543         -DE/DX =    0.0                 !
 ! A31   A(10,9,22)            119.9064         -DE/DX =    0.0                 !
 ! A32   A(9,10,11)            121.5841         -DE/DX =    0.0                 !
 ! A33   A(9,10,25)            119.2245         -DE/DX =    0.0                 !
 ! A34   A(11,10,25)           119.1322         -DE/DX =    0.0                 !
 ! A35   A(10,11,12)           117.5501         -DE/DX =    0.0                 !
 ! A36   A(10,11,26)           121.4743         -DE/DX =    0.0                 !
 ! A37   A(12,11,26)           120.9739         -DE/DX =    0.0                 !
 ! A38   A(11,12,13)           122.6609         -DE/DX =    0.0                 !
 ! A39   A(11,12,23)           118.8465         -DE/DX =    0.0                 !
 ! A40   A(13,12,23)           118.4923         -DE/DX =    0.0                 !
 ! A41   A(1,13,12)            118.6851         -DE/DX =    0.0                 !
 ! A42   A(1,13,24)            120.8261         -DE/DX =    0.0                 !
 ! A43   A(12,13,24)           120.4884         -DE/DX =    0.0                 !
 ! A44   A(10,25,27)           111.9627         -DE/DX =    0.0                 !
 ! A45   A(10,25,28)           111.4485         -DE/DX =    0.0                 !
 ! A46   A(10,25,29)           111.9994         -DE/DX =    0.0                 !
 ! A47   A(27,25,28)           106.8675         -DE/DX =    0.0                 !
 ! A48   A(27,25,29)           107.4865         -DE/DX =    0.0                 !
 ! A49   A(28,25,29)           106.7655         -DE/DX =    0.0                 !
 ! D1    D(9,1,2,3)           -179.4419         -DE/DX =    0.0                 !
 ! D2    D(9,1,2,14)             0.359          -DE/DX =    0.0                 !
 ! D3    D(13,1,2,3)             0.4035         -DE/DX =    0.0                 !
 ! D4    D(13,1,2,14)         -179.7956         -DE/DX =    0.0                 !
 ! D5    D(2,1,9,10)           179.7649         -DE/DX =    0.0                 !
 ! D6    D(2,1,9,22)             0.2708         -DE/DX =    0.0                 !
 ! D7    D(13,1,9,10)           -0.0862         -DE/DX =    0.0                 !
 ! D8    D(13,1,9,22)         -179.5802         -DE/DX =    0.0                 !
 ! D9    D(2,1,13,12)         -179.8061         -DE/DX =    0.0                 !
 ! D10   D(2,1,13,24)           -0.0112         -DE/DX =    0.0                 !
 ! D11   D(9,1,13,12)            0.0356         -DE/DX =    0.0                 !
 ! D12   D(9,1,13,24)          179.8304         -DE/DX =    0.0                 !
 ! D13   D(1,2,3,4)             -0.0908         -DE/DX =    0.0                 !
 ! D14   D(1,2,3,5)            179.9117         -DE/DX =    0.0                 !
 ! D15   D(14,2,3,4)          -179.8951         -DE/DX =    0.0                 !
 ! D16   D(14,2,3,5)             0.1074         -DE/DX =    0.0                 !
 ! D17   D(2,3,5,6)           -179.9845         -DE/DX =    0.0                 !
 ! D18   D(4,3,5,6)              0.0179         -DE/DX =    0.0                 !
 ! D19   D(3,5,6,7)           -179.9551         -DE/DX =    0.0                 !
 ! D20   D(3,5,6,15)            58.699          -DE/DX =    0.0                 !
 ! D21   D(3,5,6,16)           -58.61           -DE/DX =    0.0                 !
 ! D22   D(5,6,7,8)            179.9983         -DE/DX =    0.0                 !
 ! D23   D(5,6,7,17)            58.2251         -DE/DX =    0.0                 !
 ! D24   D(5,6,7,18)           -58.2272         -DE/DX =    0.0                 !
 ! D25   D(15,6,7,8)           -60.5561         -DE/DX =    0.0                 !
 ! D26   D(15,6,7,17)          177.6706         -DE/DX =    0.0                 !
 ! D27   D(15,6,7,18)           61.2183         -DE/DX =    0.0                 !
 ! D28   D(16,6,7,8)            60.5527         -DE/DX =    0.0                 !
 ! D29   D(16,6,7,17)          -61.2205         -DE/DX =    0.0                 !
 ! D30   D(16,6,7,18)         -177.6728         -DE/DX =    0.0                 !
 ! D31   D(6,7,8,19)           -60.0818         -DE/DX =    0.0                 !
 ! D32   D(6,7,8,20)          -179.9929         -DE/DX =    0.0                 !
 ! D33   D(6,7,8,21)            60.0957         -DE/DX =    0.0                 !
 ! D34   D(17,7,8,19)           60.8588         -DE/DX =    0.0                 !
[...]
 -0.00000231,0.00019915,0.00003033,-0.00002267,0.04137146,0.00239673,0.
 00472515,-0.00020369,0.00165867,-0.00105388,-0.00020913,-0.00350316,-0
 .00131963,-0.00008711,0.00104701,0.00108648,0.00011443,0.00177160,-0.0
 0034156,-0.00010818,-0.00075041,-0.00022542,-0.00000569,0.00006224,0.0
 0008500,0.00001066,-0.00000839,-0.00007956,-0.00001170,0.00006690,-0.0
 0279407,-0.00028635,-0.00573693,0.00144044,-0.00038046,0.00402455,-0.0
 4008989,-0.00662284,0.01451805,-0.17233951,-0.02200981,0.00690339,-0.0
 3327991,-0.00569948,0.00013598,0.00005388,0.00003448,0.00008022,0.0000
 2773,0.00001941,0.00007902,0.00003316,-0.00001630,-0.00001357,-0.00000
 357,0.00001361,-0.00001492,0.00000101,-0.00001326,0.00000024,0.0000183
 9,-0.00001194,0.00004650,-0.00000906,-0.00000288,0.00000102,0.00001397
 ,0.00001660,0.00009666,-0.00002177,0.00009210,-0.02358883,0.24378902,0
 .00071939,-0.00000058,0.00528564,0.00023582,-0.00020731,-0.00002093,-0
 .00054775,-0.00019455,0.00004681,0.00016772,0.00014714,0.00009098,0.00
 028133,-0.00005481,-0.00003729,-0.00011866,-0.00003487,-0.00000797,0.0
 0000987,0.00001350,-0.00000063,-0.00000113,-0.00001281,-0.00000082,-0.
 00009289,-0.00026579,-0.00105856,-0.00041027,-0.00041965,0.00480257,0.
 00057524,-0.00559054,0.00379058,0.00297529,-0.02205481,-0.02653815,0.0
 0119428,-0.00667284,0.00316681,0.00002585,0.00003044,-0.00017284,0.000
 01293,0.00000466,0.00000534,0.00001088,0.00000503,-0.00000019,-0.00000
 295,0.00000079,0.00000298,-0.00000127,-0.00000157,-0.00000153,-0.00000
 061,0.00000242,-0.00000150,0.00000746,-0.00000145,-0.00000071,0.000000
 85,0.00000250,0.00000289,-0.00000858,0.00006215,-0.00048337,-0.0046906
 7,0.03445332,0.01634722,0.01216330,0.00300406,0.00019308,-0.00365751,-
 0.00177070,-0.00027274,0.00293362,0.00832613,0.00110679,-0.00788585,-0
 .00272988,-0.00016854,0.00049556,-0.00163376,-0.00024047,-0.00050824,-
 0.00009233,0.00001176,-0.00000153,0.00004234,0.00000640,0.00000191,-0.
 00004687,-0.00000689,0.00000782,0.00203642,0.00052245,0.00036349,0.001
 07308,0.00002336,-0.00304818,0.00251842,0.00074465,-0.01701864,-0.0153
 8169,-0.00146960,-0.24382602,-0.14844937,-0.01329871,-0.00015112,-0.00
 011585,-0.00002339,-0.00001854,0.00004340,-0.00000617,-0.00001936,0.00
 004083,0.00001787,0.00000409,-0.00001367,-0.00000717,0.00000416,-0.000
 01425,0.00000243,-0.00000501,0.00001126,0.00000299,0.00002874,-0.00001
 044,-0.00000258,-0.00000544,0.00001141,0.00000049,0.00044545,0.0005044
 5,0.00005616,0.00106036,-0.00086808,-0.00027194,0.25929404,-0.02520000
 ,-0.01200978,-0.00149683,0.00081805,0.00206084,0.00078439,0.00044363,-
 0.00533923,-0.00078581,-0.00124557,0.00237726,0.00050851,-0.00059276,0
 .00109355,0.00010186,0.00039871,0.00011304,-0.00002463,-0.00000750,-0.
 00003234,-0.00000290,0.00000517,0.00003800,0.00000442,0.00170511,-0.00
 467398,-0.00161938,0.00108520,-0.00075443,-0.00007398,0.00327907,-0.00
 053509,-0.00112730,0.01152234,0.01103848,0.00079464,-0.14686974,-0.171
 18387,-0.01359700,-0.00005840,-0.00004133,0.00005531,-0.00000770,-0.00
 001725,0.00001028,-0.00000421,-0.00001934,-0.00000587,-0.00000476,0.00
 001088,0.00000250,-0.00000344,0.00000697,0.00000187,0.00000105,-0.0000
 0875,0.00000426,-0.00002420,0.00000417,0.00000167,0.00000223,-0.000006
 37,-0.00000540,-0.00110854,-0.00061049,-0.00003489,0.00102346,0.000650
 48,0.00045393,0.15433728,0.17719053,-0.00383422,-0.00244449,0.00498792
 ,0.00008783,0.00085681,-0.00351530,-0.00002293,-0.00098670,-0.00018712
 ,0.00006454,0.00053863,-0.00080703,-0.00008448,0.00011537,0.00059447,0
 .00007856,-0.00000854,0.00018075,-0.00000182,-0.00000476,-0.00000967,0
 .00000101,0.00000559,0.00000836,0.00035513,-0.00161195,0.00595783,0.00
 016095,0.00000108,-0.00069970,0.00084744,-0.00117981,0.00593834,0.0025
 6046,0.00186608,0.00276045,-0.01313670,-0.01361941,-0.03899494,-0.0000
 1486,0.00005758,-0.00040698,0.00001324,-0.00001535,-0.00003513,-0.0000
 1587,0.00001756,-0.00003164,0.00000370,-0.00001155,-0.00000678,-0.0000
 0555,0.00001631,-0.00000276,0.00000589,0.00000227,-0.00000333,-0.00000
 446,0.00000112,-0.00000121,-0.00000532,-0.00000380,-0.00000526,-0.0001
 5116,-0.00007912,-0.00013966,-0.00000876,0.00052149,-0.00270618,0.0131
 2761,0.01588144,0.02746958,-0.00668401,0.00370879,0.00132930,0.0043239
 9,0.00002206,-0.00014331,-0.00587906,-0.00034561,0.00020304,0.00197326
 ,0.00064150,0.00002408,0.00341458,-0.00126669,-0.00032240,-0.00150333,
 -0.00030379,-0.00000147,0.00008146,0.00017591,0.00002865,-0.00000998,-
 0.00016218,-0.00002359,-0.02374372,-0.01350734,-0.00308313,-0.17411518
 ,-0.06066390,-0.01072132,0.01093604,-0.00756233,-0.00012460,0.00375202
 ,0.00006560,0.00051036,0.00040484,0.00335976,0.00029652,-0.00051752,0.
 00020820,0.00010229,0.00012826,0.00007154,0.00000403,0.00012998,0.0000
 7413,0.00000666,-0.00002034,-0.00001856,0.00000010,-0.00002232,-0.0000
 1462,-0.00000643,-0.00001211,0.00004384,-0.00000350,0.00011194,-0.0000
 4154,-0.00000921,-0.00001302,0.00003922,0.00001565,-0.00064379,-0.0004
 5586,0.00002750,0.00014698,0.00415618,0.00044827,-0.00069957,0.0000657
 2,-0.00003425,0.60439430,0.00306438,0.00280133,-0.00016170,0.00532695,
 0.00040904,-0.00026259,-0.00424895,0.00016526,0.00000627,0.00134274,-0
 .00011740,-0.00003516,0.00287991,-0.00138180,-0.00026299,-0.00101695,-
 0.00020225,0.00000620,0.00006889,0.00019302,0.00001397,0.00001816,-0.0
 0014035,-0.00001999,0.00156362,0.01689611,0.00435406,-0.06132309,-0.13
 735177,-0.01246630,-0.02408623,-0.01637030,-0.00390857,-0.00035630,-0.
 00737713,-0.00175944,0.00383665,-0.00206080,-0.00038388,0.00027726,0.0
 0066147,-0.00000913,0.00009152,0.00005657,-0.00001486,0.00008558,0.000
 04160,0.00002824,-0.00000135,-0.00001087,-0.00003787,0.00000454,-0.000
 03009,0.00003978,-0.00002221,0.00001691,0.00001628,0.00008971,-0.00002
 405,-0.00000885,-0.00001928,0.00002567,-0.00000533,0.00418368,-0.00162
 376,-0.00037667,-0.00030223,0.00048924,0.00013490,-0.00030647,-0.00036
 714,-0.00001899,0.03214047,0.58242017,0.00114601,0.00010324,0.00674560
 ,0.00098124,0.00017816,-0.00016259,-0.00083446,-0.00011364,0.00023589,
 0.00027621,0.00006219,-0.00012149,0.00056263,-0.00020977,-0.00021645,-
 0.00020226,-0.00005789,0.00007989,0.00001839,0.00002905,0.00005127,0.0
 0000176,-0.00002621,-0.00000662,0.00249866,0.00282800,0.00038939,-0.00
 770818,-0.01011390,-0.06886322,-0.00377584,-0.00072674,-0.00029213,0.0
 0094280,-0.00206101,0.00612356,0.00071571,-0.00010444,-0.00113630,-0.0
 0000585,-0.00001211,0.00044918,0.00000837,-0.00000352,-0.00001877,0.00
 003034,0.00003098,-0.00000720,0.00000291,-0.00001994,-0.00002302,-0.00
 000739,0.00001613,-0.00001046,0.00000545,0.00001904,-0.00000457,0.0000
 1709,-0.00000575,0.00000740,-0.00001118,-0.00000631,-0.00001030,-0.000
 06021,0.00019839,-0.00226776,-0.00004372,0.00016217,0.00007884,-0.0000
 4520,0.00002197,-0.00042380,-0.00254027,0.00892900,0.51459892,-0.00022
 560,-0.00078269,-0.00016338,0.00054039,0.00003992,-0.00004418,-0.00025
 670,-0.00041542,-0.00005397,-0.00013882,0.00027565,0.00003973,0.000032
 51,0.00003956,0.00001007,-0.00000483,0.00000272,0.00000004,0.00000155,
 0.00000202,0.00000030,0.00000030,-0.00000057,0.00000002,0.00174492,-0.
 00052499,0.00019078,0.00203503,0.00086030,0.00031796,-0.30489702,0.105
 23007,0.02752445,-0.01748594,0.01164363,0.00251691,-0.00187470,-0.0036
 5973,-0.00014452,-0.00001493,0.00002596,0.00000787,0.00000406,-0.00000
 130,0.00000049,0.00000352,-0.00000053,-0.00000173,-0.00000077,0.000000
 50,-0.00000022,-0.00000076,0.00000062,0.00000034,-0.00000008,0.0000001
 8,0.00000012,0.00000059,-0.00000033,-0.00000006,-0.00000018,0.00000016
 ,-0.00000012,0.00015627,-0.00015526,-0.00000620,0.00098565,0.00058002,
 -0.00011598,-0.00051911,0.00059056,0.00014231,-0.00022718,-0.00016242,
 -0.00012259,0.32092937,-0.00038892,-0.00101094,-0.00001492,0.00003757,
 0.00030270,0.00013587,-0.00001454,-0.00025239,-0.00000130,-0.00012101,
 0.00018358,0.00003443,-0.00002265,0.00007710,-0.00000281,0.00001349,0.
 00000070,-0.00000643,0.00000132,-0.00000110,-0.00000061,0.00000015,0.0
 0000110,0.00000037,-0.00103254,-0.00516297,-0.00160887,0.02750973,-0.0
 0604091,-0.00235236,0.10680580,-0.10251829,-0.01512928,-0.01808241,0.0
 1020969,0.00189537,-0.00329863,-0.00228953,-0.00103526,-0.00014384,-0.
 00000825,-0.00000896,-0.00000029,0.00000056,0.00000167,0.00000094,-0.0
 0000111,-0.00000033,-0.00000080,0.00000066,0.00000071,-0.00000068,0.00
 000023,-0.00000023,0.00000012,-0.00000024,0.00000028,-0.00000050,-0.00
 000002,-0.00000005,0.00000045,0.00000002,-0.00000010,0.00143071,-0.000
 31831,-0.00019762,-0.00065787,0.00073753,0.00053397,-0.00068873,0.0006
 7479,0.00010232,0.00375027,-0.00146156,-0.00064594,-0.11214174,0.10555
 896,-0.00013918,-0.00002489,-0.00076972,0.00003282,0.00012817,-0.00060
 672,-0.00004342,-0.00001399,-0.00020133,-0.00000406,0.00003561,-0.0000
 3381,0.00001430,-0.00000939,0.00009392,-0.00000314,-0.00000596,0.00003
 248,0.00000058,0.00000035,0.00000171,-0.00000014,-0.00000020,-0.000000
 38,0.00006257,-0.00148981,0.00574077,0.00408406,-0.00105388,0.00252649
 ,0.02851143,-0.01549463,-0.03731580,-0.00190149,0.00068478,0.00243297,
 -0.00018411,-0.00104922,0.00551630,-0.00001450,-0.00001458,0.00009646,
 0.00000490,-0.00000492,-0.00000648,-0.00000372,0.00000686,-0.00000449,
 0.00000022,-0.00000197,-0.00000144,-0.00000063,0.00000237,-0.00000077,
 0.00000100,0.00000110,-0.00000069,0.00000038,-0.00000014,0.00000035,-0
 .00000111,-0.00000064,-0.00000092,0.00022219,-0.00013894,0.00064209,-0
 .00027369,0.00048794,-0.00254479,-0.00007267,0.00003779,0.00032241,0.0
 0023340,0.00030783,-0.00206455,-0.03020051,0.01727660,0.02798966,-0.00
 032791,0.00050458,-0.00127075,-0.00239498,-0.00086812,-0.00024717,0.00
 238446,0.00062024,-0.00002514,-0.00075587,-0.00044508,-0.00006556,-0.0
 0151167,0.00042415,0.00011816,0.00062949,0.00015622,0.00002645,-0.0000
 4304,-0.00007627,-0.00000649,0.00000391,0.00007010,0.00001007,-0.00213
 588,-0.00821750,0.00059486,-0.04111024,0.01481752,0.02776481,-0.001581
 87,0.00180697,-0.00013619,0.00014028,0.00167791,-0.00051691,-0.0007371
 7,-0.00026177,0.00025615,0.00024422,-0.00010043,0.00001995,-0.00005754
 ,-0.00003182,-0.00000758,-0.00005647,-0.00002972,-0.00000085,0.0000105
 3,0.00000472,-0.00000558,0.00001004,0.00000749,0.00000352,0.00000504,-
 0.00001682,0.00000224,-0.00004636,0.00001653,0.00000479,0.00000318,-0.
 00001788,-0.00000970,0.00064148,0.00019896,0.00052693,0.00013424,-0.00
 124290,-0.00014488,0.00023197,-0.00007670,0.00003473,-0.22377120,0.032
 44959,0.08759930,-0.00081808,-0.00207402,0.00060245,0.27690303,-0.0002
 7872,-0.00001911,-0.00027963,-0.00103016,0.00004408,0.00002356,0.00066
 488,0.00002846,-0.00003383,-0.00018488,0.00000195,0.00000902,-0.000416
 97,0.00021863,0.00004835,0.00013527,0.00002238,-0.00000006,-0.00000978
 ,-0.00003013,-0.00000325,-0.00000423,0.00002064,0.00000248,-0.00100996
 ,-0.00222821,-0.00001613,-0.01196338,0.01016325,0.00454602,-0.00073575
 ,-0.00296369,0.00103299,0.00022603,0.00153681,0.00044416,-0.00066271,0
 .00029633,0.00011825,-0.00007377,-0.00011979,-0.00000332,-0.00001245,-
 0.00000703,0.00000411,-0.00001327,-0.00000561,-0.00000476,-0.00000067,
 0.00000236,0.00000838,-0.00000157,0.00000444,-0.00000742,0.00000336,-0
 .00000203,-0.00000324,-0.00001281,0.00000304,0.00000091,0.00000360,-0.
 00000281,0.00000243,-0.00059714,0.00017433,0.00019326,-0.00003125,-0.0
 0003844,0.00000592,-0.00005329,0.00010239,-0.00002066,0.03938709,-0.09
 050716,-0.02696774,-0.00198309,0.00045839,0.00005669,-0.08521436,0.119
 60592,-0.00012718,-0.00111933,-0.00040886,0.00052632,0.00040222,0.0000
 7454,-0.00050692,-0.00025997,-0.00008861,0.00016678,0.00017290,0.00006
 361,0.00031660,-0.00003826,0.00001422,-0.00014114,-0.00003808,-0.00002
 325,0.00001018,0.00001450,-0.00000784,-0.00000261,-0.00001390,-0.00000
 191,0.00149743,0.00244137,0.00089249,0.01003472,-0.00529107,0.00219328
 ,-0.00019057,-0.00192036,0.00060008,0.00052399,-0.00001143,0.00030734,
 -0.00036476,0.00057363,0.00002495,-0.00011222,0.00000616,-0.00006835,0
 .00001605,0.00000997,0.00000702,0.00001064,0.00000285,0.00000055,-0.00
 000442,0.00000276,0.00000836,-0.00000250,-0.00000485,-0.00000109,-0.00
 000194,0.00000150,-0.00000048,0.00000943,-0.00000337,-0.00000279,0.000
 00201,0.00000650,0.00000582,-0.00024239,0.00004704,-0.00006913,-0.0000
 4264,0.00038826,0.00006303,-0.00006476,0.00006688,-0.00004455,0.090125
 20,-0.02315771,-0.12763545,-0.00011692,0.00079103,-0.00061612,-0.14356
 257,0.06208568,0.18546135,0.00142439,-0.00075756,0.00150569,-0.0014480
 1,-0.00021227,0.00004614,0.00182069,0.00006366,-0.00015115,-0.00063235
 ,-0.00013806,0.00003218,-0.00112946,0.00042619,0.00012034,0.00048249,0
 .00010242,-0.00000228,-0.00002786,-0.00006116,-0.00001298,0.00000213,0
 .00005405,0.00000665,0.00090044,-0.00178454,-0.00058880,-0.01114992,-0
 .00914710,-0.03613539,-0.00239133,0.00174777,-0.00054043,-0.00127148,0
 .00039817,0.00181218,-0.00030996,-0.00094689,-0.00045445,0.00011415,-0
 .00008847,-0.00005408,-0.00004007,-0.00002228,0.00000180,-0.00004282,-
 0.00002550,-0.00000265,0.00000520,0.00000796,0.00000393,0.00000668,0.0
 0000332,0.00000139,0.00000382,-0.00001506,0.00000095,-0.00003673,0.000
 01325,0.00000210,0.00000575,-0.00001120,-0.00000297,-0.00001572,0.0003
 9984,-0.00075266,0.00003125,-0.00095174,-0.00007774,0.00021235,0.00003
 246,-0.00011227,-0.10939874,-0.01201485,-0.07454173,-0.00005885,-0.000
 40152,-0.00106832,0.01369588,0.00740253,0.03856879,0.10630377,-0.00021
 384,-0.00149964,0.00081684,-0.00100876,-0.00002618,0.00016063,0.001070
 85,-0.00010947,-0.00003408,-0.00035061,0.00003933,0.00002586,-0.000706
 06,0.00033826,0.00007110,0.00027083,0.00005081,-0.00000451,-0.00001710
 ,-0.00004513,-0.00000805,-0.00000257,0.00003405,0.00000527,0.00087265,
 -0.00204933,-0.00139276,-0.01405665,0.00575254,-0.02075055,-0.00035508
 ,0.00030565,0.00014531,0.00071411,0.00118730,0.00094045,-0.00107570,0.
 00054345,-0.00006294,-0.00002626,-0.00011522,-0.00004617,-0.00002350,-
 0.00001314,0.00000423,-0.00002315,-0.00001226,-0.00000556,0.00000088,0
 .00000366,0.00000888,0.00000065,0.00000538,-0.00000693,0.00000476,-0.0
 0000613,-0.00000294,-0.00002284,0.00000678,0.00000165,0.00000515,-0.00
 000620,0.00000102,-0.00061777,0.00020414,-0.00054972,-0.00001590,-0.00
 028150,-0.00008666,0.00010790,0.00007506,-0.00004846,-0.01208878,-0.07
 769357,-0.02124967,0.00019064,0.00017594,-0.00017875,0.00384281,0.0076
 1767,-0.02317280,-0.00026421,0.07744595,0.00010062,-0.00109023,0.00076
 744,-0.00142736,-0.00027508,0.00032337,0.00151092,0.00013279,-0.000137
 88,-0.00050352,-0.00013673,0.00008711,-0.00096592,0.00036068,0.0001449
 9,0.00037984,0.00009322,-0.00004962,-0.00002619,-0.00005180,-0.0000317
 5,-0.00000015,0.00004549,0.00000836,0.00028627,-0.00250940,-0.00009197
 ,-0.01581381,-0.00472616,-0.02044319,-0.00171087,0.00048451,0.00072374
 ,-0.00047348,0.00046300,0.00118162,-0.00061746,-0.00012627,-0.00018877
 ,0.00007745,-0.00004369,-0.00024268,-0.00002871,-0.00001362,0.00000944
 ,-0.00003955,-0.00002992,0.00000061,0.00000124,0.00001416,0.00001283,0
 .00000690,-0.00000387,0.00000533,-0.00000004,-0.00001703,0.00000219,-0
 .00002975,0.00000992,-0.00000185,0.00000838,-0.00000404,0.00000313,-0.
 00005951,0.00043466,-0.00123283,-0.00003926,-0.00080558,-0.00008010,0.
 00013183,0.00004456,-0.00015658,-0.07354365,-0.02111399,-0.23927302,0.
 00017306,0.00020431,-0.00118386,0.02055124,-0.01982152,-0.07413459,0.0
 9553651,0.00955971,0.37763753,0.00210258,-0.00063112,-0.00024157,-0.00
 098724,-0.00010412,0.00009253,0.00128468,0.00029582,0.00000040,-0.0003
 8808,-0.00027566,-0.00002719,-0.00070313,0.00020934,0.00006516,0.00031
 147,0.00006714,-0.00000522,-0.00001818,-0.00003350,-0.00000763,0.00000
 276,0.00003233,0.00000501,-0.00304534,-0.00083003,0.00152814,0.0083087
 8,-0.02522084,0.00442409,-0.00402910,-0.00042062,0.00084316,-0.0000981
 3,-0.00038295,-0.00067743,-0.00010233,-0.00074609,0.00002475,0.0001975
 7,-0.00001263,-0.00006607,-0.00002876,-0.00001396,-0.00000169,-0.00002
 917,-0.00001636,0.00000081,0.00000521,0.00000402,-0.00000167,0.0000065
 0,0.00000125,0.00000389,0.00000148,-0.00000985,0.00000171,-0.00002262,
 0.00000857,0.00000166,0.00000215,-0.00000789,-0.00000377,-0.00085792,-
 0.00242418,-0.00020923,-0.00008091,-0.00094603,-0.00017987,0.00011728,
 -0.00010654,-0.00005078,-0.08253660,0.01643666,-0.00490799,0.00008938,
 -0.00047986,0.00014039,-0.01968948,0.05646746,0.00367538,0.00294430,0.
 02378758,-0.02348504,0.09724287,0.00121808,-0.00050527,-0.00082863,-0.
 00218934,0.00023765,0.00002511,0.00191686,-0.00029361,-0.00001347,-0.0
 0062362,0.00015252,0.00000825,-0.00121680,0.00067567,0.00010480,0.0004
 3352,0.00006532,0.00001029,-0.00002546,-0.00008732,0.00000085,-0.00000
 994,0.00006119,0.00000786,0.00258309,-0.00214930,-0.00122499,0.0064831
 6,-0.04481346,0.01235656,-0.00822378,-0.00059882,0.00157649,0.00071471
 ,-0.00001675,-0.00117508,-0.00064908,-0.00007428,0.00023115,-0.0001580
 8,-0.00033913,0.00007570,-0.00003927,-0.00002537,0.00000784,-0.0000345
 7,-0.00001349,-0.00001697,-0.00000047,0.00000268,0.00001887,-0.0000052
 4,0.00001731,-0.00002401,0.00001220,-0.00000425,-0.00001013,-0.0000396
 4,0.00001038,0.00000499,0.00000889,-0.00001217,0.00000334,-0.00233123,
 0.00027581,0.00108439,-0.00042735,-0.00127371,-0.00025243,0.00011842,0
 .00016296,0.00006996,0.00852091,-0.26745640,0.04974628,0.00034555,0.00
 068365,0.00045578,0.04207559,-0.04437706,-0.01198211,0.01619081,-0.011
 92819,0.03892192,-0.06464792,0.37162344,0.00009982,0.00049787,0.000094
 08,0.00020147,-0.00005984,0.00010630,-0.00013728,0.00001533,-0.0000292
 5,0.00002921,-0.00000930,0.00002681,0.00008519,-0.00005878,0.00002096,
 -0.00002323,0.00000082,-0.00002406,0.00000107,0.00000859,-0.00001211,0
 .00000142,-0.00000437,0.00000073,-0.00074135,-0.00016208,0.00050315,-0
 .00191671,0.00355037,0.00787172,0.00161196,0.00054989,0.00105625,-0.00
 100636,0.00021119,-0.00042437,0.00037346,-0.00043551,-0.00004642,0.000
 00287,0.00004920,-0.00012168,0.00000490,0.00000529,0.00000273,0.000000
 10,-0.00000415,0.00000403,-0.00000105,0.00000328,0.00000252,0.00000241
 ,-0.00000616,0.00000566,-0.00000282,-0.00000338,0.00000263,0.00000238,
 -0.00000003,-0.00000222,0.00000124,0.00000313,0.00000150,0.00026185,0.
 00023902,-0.00053315,0.00009744,0.00015992,-0.00002813,0.00000296,-0.0
 0000229,-0.00004248,-0.00279793,0.05016750,-0.08622222,0.00004593,0.00
 002812,-0.00004375,0.00788371,-0.02142065,0.01338635,-0.02314073,0.055
 85962,-0.04365902,0.01905806,-0.08918260,0.10810344\\-0.00000086,-0.00
 000109,0.00000124,0.00000269,0.00000119,-0.00000212,-0.00000009,0.0000
 0012,0.00000154,-0.00000324,-0.00000136,0.00000117,0.00000033,0.000000
 19,-0.00000027,-0.00000338,-0.00000175,-0.00000020,-0.00000085,-0.0000
 0172,-0.00000048,-0.00000029,-0.00000303,-0.00000023,0.00000073,0.0000
 0202,0.00000171,-0.00000063,0.00000244,-0.00000262,0.00000183,0.000001
 14,0.00000035,0.00000180,0.00000210,0.00000199,0.00000272,-0.00000096,
 -0.00000049,-0.00000067,0.00000025,-0.00000076,0.00000015,-0.00000252,
 0.00000062,0.00000036,-0.00000158,0.00000051,-0.00000084,-0.00000150,-
 0.00000085,-0.00000123,-0.00000259,-0.00000100,-0.00000011,-0.00000243
 ,0.00000012,-0.00000107,-0.00000328,-0.00000078,-0.00000038,-0.0000036
 1,0.00000014,-0.00000109,0.00000164,-0.00000136,0.00000204,0.00000147,
 0.00000207,0.00000312,0.00000035,0.00000137,-0.00000017,0.00000277,-0.
 00000207,0.00000097,0.00000272,0.00000055,-0.00000081,0.00000270,0.000
 00057,0.00000081,0.00000319,0.00000049,-0.00000184,0.00000312,-0.00000
 120\\\@


 HIGGLEDY-PIGGLEDY
 NIC'LAUS COPERNICUS
 LOOKED AT THE UNIVERSE,
 SPOKE TO THE THRONG;
 GIVE UP YOUR PTOLOMY,
 RISE UP AND FOLLOW ME,
 HELIOCENTRICALLY
 PTOLEMY'S WRONG.
   -- NANCY L. STARK
 Job cpu time:       0 days  4 hours  5 minutes  3.9 seconds.
 File lengths (MBytes):  RWF=    557 Int=      0 D2E=      0 Chk=     14 Scr=      1
 Normal termination of Gaussian 09 at Thu Nov 14 16:52:28 2019.
pbs_rusage has been removed.
Please contact help@nci.org.au if you require this functionality.
