 Entering Gaussian System, Link 0=/apps/gaussian/g09e01/g09/g09
 AtFile(1): /home/507/hio507/Basis/6-31pGd.gbs
 Initial command:
 /apps/gaussian/g09e01/g09/l1.exe "/jobfs/local/4047182.r-man2/Gau-3223.inp" -scrdir="/jobfs/local/4047182.r-man2/"
 Entering Link 1 = /apps/gaussian/g09e01/g09/l1.exe PID=      3224.
  
 Copyright (c) 1988,1990,1992,1993,1995,1998,2003,2009,2015,
            Gaussian, Inc.  All Rights Reserved.
  
 This is part of the Gaussian(R) 09 program.  It is based on
 the Gaussian(R) 03 system (copyright 2003, Gaussian, Inc.),
 the Gaussian(R) 98 system (copyright 1998, Gaussian, Inc.),
 the Gaussian(R) 94 system (copyright 1995, Gaussian, Inc.),
 the Gaussian 92(TM) system (copyright 1992, Gaussian, Inc.),
 the Gaussian 90(TM) system (copyright 1990, Gaussian, Inc.),
 the Gaussian 88(TM) system (copyright 1988, Gaussian, Inc.),
 the Gaussian 86(TM) system (copyright 1986, Carnegie Mellon
 University), and the Gaussian 82(TM) system (copyright 1983,
 Carnegie Mellon University). Gaussian is a federally registered
 trademark of Gaussian, Inc.
  
 This software contains proprietary and confidential information,
 including trade secrets, belonging to Gaussian, Inc.
  
 This software is provided under written license and may be
 used, copied, transmitted, or stored only in accord with that
 written license.
  
 The following legend is applicable only to US Government
 contracts under FAR:
  
                    RESTRICTED RIGHTS LEGEND
  
 Use, reproduction and disclosure by the US Government is
 subject to restrictions as set forth in subparagraphs (a)
 and (c) of the Commercial Computer Software - Restricted
 Rights clause in FAR 52.227-19.
  
 Gaussian, Inc.
 340 Quinnipiac St., Bldg. 40, Wallingford CT 06492
  
  
 ---------------------------------------------------------------
 Warning -- This program may not be used in any manner that
 competes with the business of Gaussian, Inc. or will provide
 assistance to any competitor of Gaussian, Inc.  The licensee
 of this program is prohibited from giving any competitor of
 Gaussian, Inc. access to this program.  By using this program,
 the user acknowledges that Gaussian, Inc. is engaged in the
 business of creating and licensing software in the field of
 computational chemistry and represents and warrants to the
 licensee that it is not a competitor of Gaussian, Inc. and that
 it will not use this program in any manner prohibited above.
 ---------------------------------------------------------------
  

 Cite this work as:
 Gaussian 09, Revision E.01,
 M. J. Frisch, G. W. Trucks, H. B. Schlegel, G. E. Scuseria, 
 M. A. Robb, J. R. Cheeseman, G. Scalmani, V. Barone, B. Mennucci, 
 G. A. Petersson, H. Nakatsuji, M. Caricato, X. Li, H. P. Hratchian, 
 A. F. Izmaylov, J. Bloino, G. Zheng, J. L. Sonnenberg, M. Hada, 
 M. Ehara, K. Toyota, R. Fukuda, J. Hasegawa, M. Ishida, T. Nakajima, 
 Y. Honda, O. Kitao, H. Nakai, T. Vreven, J. A. Montgomery, Jr., 
 J. E. Peralta, F. Ogliaro, M. Bearpark, J. J. Heyd, E. Brothers, 
 K. N. Kudin, V. N. Staroverov, T. Keith, R. Kobayashi, J. Normand, 
 K. Raghavachari, A. Rendell, J. C. Burant, S. S. Iyengar, J. Tomasi, 
 M. Cossi, N. Rega, J. M. Millam, M. Klene, J. E. Knox, J. B. Cross, 
 V. Bakken, C. Adamo, J. Jaramillo, R. Gomperts, R. E. Stratmann, 
 O. Yazyev, A. J. Austin, R. Cammi, C. Pomelli, J. W. Ochterski, 
 R. L. Martin, K. Morokuma, V. G. Zakrzewski, G. A. Voth, 
 P. Salvador, J. J. Dannenberg, S. Dapprich, A. D. Daniels, 
 O. Farkas, J. B. Foresman, J. V. Ortiz, J. Cioslowski, 
 and D. J. Fox, Gaussian, Inc., Wallingford CT, 2013.
 
 ******************************************
 Gaussian 09:  ES64L-G09RevE.01 30-Nov-2015
                 9-Dec-2019 
 ******************************************
 %chk=NM3CA.MP2_6-31pGd.chk
 %mem=1114112000
 %nproc=4
 Will use up to    4 processors via shared memory.
 -------------------------------------------------------------
 # MP2/Gen 6D SCF=Tight INT(grid=ultrafine) maxdisk=3489660928
 -------------------------------------------------------------
 1/38=1/1;
 2/12=2,17=6,18=5,40=1/2;
 3/5=7,8=2,11=9,16=1,25=1,30=1,75=-5/1,2,3;
 4//1;
 5/5=2,32=2,38=5/2;
 8/10=1/1;
 9/16=-3/6;
 6/7=2,8=2,9=2,10=2/1;
 99/5=1,9=1/99;
 -----------------
 NM3CA.MP2_6-31pGd
 -----------------
 Symbolic Z-matrix:
 Charge =  0 Multiplicity = 1
 C                    -5.95698   1.28084   0.19372 
 N                    -4.67619   0.72609   0.09852 
 C                    -3.47489   1.39187   0.09536 
 O                    -3.3167    2.58164   0.1747 
 O                    -2.48234   0.49363  -0.01209 
 C                    -1.15502   1.04274  -0.02912 
 C                    -0.18225  -0.10965  -0.15429 
 C                     1.25829   0.39416  -0.17941 
 C                    -6.19114   2.65638   0.30321 
 C                    -7.50136   3.10126   0.39172 
 C                    -8.59022   2.23644   0.37603 
 C                    -8.33113   0.88052   0.26687 
 C                    -7.03641   0.39444   0.17606 
 H                    -4.61017  -0.27818   0.02315 
 H                    -0.99669   1.60948   0.89157 
 H                    -1.07205   1.73706  -0.86874 
 H                    -0.40698  -0.66787  -1.06717 
 H                    -0.33201  -0.79486   0.68447 
 H                     1.42884   1.06685  -1.02342 
 H                     1.96121  -0.43482  -0.26967 
 H                     1.50414   0.93924   0.73513 
 H                    -5.36766   3.3534    0.31818 
 Cl                   -9.65633  -0.24587   0.24244 
 H                    -6.8718   -0.67412   0.09175 
 C                    -7.78981   4.57378   0.51063 
 H                    -9.60602   2.6051    0.44635 
 F                    -8.55585   5.00409  -0.50479 
 F                    -8.46293   4.84914   1.63942 
 F                    -6.68127   5.31742   0.51636 
 
                          Input orientation:                          
 ---------------------------------------------------------------------
 Center     Atomic      Atomic             Coordinates (Angstroms)
 Number     Number       Type             X           Y           Z
 ---------------------------------------------------------------------
      1          6           0       -5.956977    1.280842    0.193724
      2          7           0       -4.676193    0.726085    0.098524
      3          6           0       -3.474890    1.391866    0.095356
      4          8           0       -3.316705    2.581644    0.174699
      5          8           0       -2.482341    0.493632   -0.012089
      6          6           0       -1.155019    1.042736   -0.029119
      7          6           0       -0.182250   -0.109651   -0.154291
      8          6           0        1.258290    0.394161   -0.179415
      9          6           0       -6.191136    2.656376    0.303215
     10          6           0       -7.501357    3.101257    0.391717
     11          6           0       -8.590215    2.236442    0.376031
     12          6           0       -8.331132    0.880516    0.266875
     13          6           0       -7.036409    0.394438    0.176064
     14          1           0       -4.610165   -0.278178    0.023147
     15          1           0       -0.996689    1.609482    0.891571
     16          1           0       -1.072048    1.737061   -0.868742
     17          1           0       -0.406977   -0.667869   -1.067175
     18          1           0       -0.332013   -0.794863    0.684472
     19          1           0        1.428838    1.066852   -1.023418
     20          1           0        1.961208   -0.434824   -0.269674
     21          1           0        1.504142    0.939238    0.735128
     22          1           0       -5.367662    3.353399    0.318183
     23         17           0       -9.656326   -0.245871    0.242445
     24          1           0       -6.871800   -0.674118    0.091747
     25          6           0       -7.789815    4.573777    0.510633
     26          1           0       -9.606019    2.605096    0.446354
     27          9           0       -8.555853    5.004090   -0.504788
     28          9           0       -8.462929    4.849136    1.639418
     29          9           0       -6.681270    5.317417    0.516358
 ---------------------------------------------------------------------
                    Distance matrix (angstroms):
                    1          2          3          4          5
     1  C    0.000000
     2  N    1.399009   0.000000
     3  C    2.486516   1.373464   0.000000
     4  O    2.943380   2.301545   1.202867   0.000000
     5  O    3.568635   2.208904   1.342953   2.256291   0.000000
     6  C    4.813020   3.537687   2.349295   2.661328   1.436520
     7  C    5.949963   4.577979   3.627445   4.144407   2.382140
     8  C    7.279116   5.950253   4.844988   5.083410   3.745693
     9  C    1.399612   2.462311   3.003362   2.878273   4.304886
    10  C    2.395458   3.702560   4.384323   4.222370   5.670387
    11  C    2.807196   4.204493   5.192171   5.288631   6.363502
    12  C    2.408780   3.662072   4.886102   5.295924   5.868208
    13  C    1.396852   2.384664   3.699432   4.315098   4.559032
    14  H    2.067255   1.009250   2.020671   3.142386   2.263751
    15  H    5.019906   3.866272   2.612047   2.615622   2.066128
    16  H    5.019911   3.866204   2.611952   2.615449   2.066131
    17  H    6.015800   4.639845   3.873767   4.535207   2.601812
    18  H    6.015780   4.639884   3.873825   4.535312   2.601793
    19  H    7.488491   6.216613   5.040222   5.123500   4.080281
    20  H    8.115166   6.748213   5.746408   6.095319   4.546813
    21  H    7.488532   6.216690   5.040331   5.123684   4.080312
    22  H    2.158304   2.725648   2.734931   2.196046   4.075834
    23  Cl   4.002300   5.076134   6.396403   6.941918   7.216489
    24  H    2.160826   2.604094   3.975840   4.821366   4.543322
    25  C    3.781950   4.966810   5.377322   4.908173   6.714916
    26  H    3.890113   5.287235   6.259862   6.295222   7.444142
    27  F    4.593980   5.806640   6.262948   5.811938   7.581196
    28  F    4.593751   5.806313   6.262378   5.811243   7.580589
    29  F    4.113713   5.027449   5.086066   4.349883   6.417100
                    6          7          8          9         10
     6  C    0.000000
     7  C    1.513256   0.000000
     8  C    2.503457   1.526307   0.000000
     9  C    5.298750   6.630756   7.800288   0.000000
    10  C    6.685104   8.011079   9.186184   1.386517   0.000000
    11  C    7.541301   8.745243  10.034719   2.436643   1.390599
    12  C    7.184047   8.219617   9.612114   2.781112   2.373985
    13  C    5.920569   6.880605   8.302313   2.418061   2.754915
    14  H    3.699403   4.434673   5.910317   3.345073   4.462669
    15  H    1.092675   2.170842   2.776499   5.331456   6.692230
    16  H    1.092675   2.170836   2.776514   5.331386   6.692219
    17  H    2.136187   1.093374   2.165443   6.810658   8.164857
    18  H    2.136194   1.093374   2.165443   6.810707   8.164861
    19  H    2.768669   2.176040   1.092677   7.896236   9.267674
    20  H    3.457155   2.171051   1.090622   8.737530  10.123312
    21  H    2.768740   2.176040   1.092676   7.896354   9.267754
    22  H    4.817275   6.253355   7.273784   1.078968   2.149799
    23  Cl   8.602702   9.483358  10.941501   4.520429   3.983647
    24  H    5.970242   6.717830   8.204457   3.405909   3.839242
    25  C    7.535257   8.958329   9.990673   2.505039   1.505212
    26  H    8.607349   9.825378  11.104640   3.418267   2.163045
    27  F    8.407790   9.817863  10.847798   3.428778   2.352968
    28  F    8.407036   9.817159  10.846984   3.428510   2.352968
    29  F    7.007845   8.493533   9.367986   2.714185   2.366314
                   11         12         13         14         15
    11  C    0.000000
    12  C    1.384765   0.000000
    13  C    2.418115   1.385940   0.000000
    14  H    4.721084   3.904814   2.522390   0.000000
    15  H    7.636786   7.397006   6.202136   4.168288   0.000000
    16  H    7.636863   7.397134   6.202246   4.168324   1.766539
    17  H    8.802457   8.183485   6.828140   4.359754   3.061172
    18  H    8.802378   8.183349   6.828019   4.359691   2.503110
    19  H   10.183704   9.846654   8.576206   6.274868   3.137644
    20  H   10.903446  10.389913   9.046738   6.579760   3.778470
    21  H   10.183700   9.846590   8.576151   6.274852   2.593811
    22  H    3.411127   3.860044   3.400054   3.721451   4.740825
    23  Cl   2.704869   1.739391   2.697845   5.051027   8.879922
    24  H    3.391921   2.139441   1.084443   2.297056   6.353855
    25  C    2.474246   3.740671   4.259863   5.821450   7.421504
    26  H    1.082917   2.152145   3.400436   5.783678   8.678135
    27  F    2.904634   4.201170   4.901140   6.614342   8.403222
    28  F    2.904913   4.201332   4.901092   6.614036   8.173088
    29  F    3.627144   4.740293   4.947489   5.986937   6.797355
                   16         17         18         19         20
    16  H    0.000000
    17  H    2.503074   0.000000
    18  H    3.061171   1.757844   0.000000
    19  H    2.593750   2.526141   3.079524   0.000000
    20  H    3.778440   2.509705   2.509758   1.762549   0.000000
    21  H    3.137782   3.079524   2.526091   1.764778   1.762550
    22  H    4.740637   6.534386   6.534524   7.295245   8.270946
    23  Cl   8.880123   9.351130   9.350914  11.234167  11.630351
    24  H    6.354010   6.567882   6.567703   8.554248   8.843638
    25  C    7.421457   9.190790   9.190828   9.981753  10.989878
    26  H    8.678227   9.880559   9.880467  11.238083  11.981426
    27  F    8.173939   9.944424  10.132806  10.745458  11.842535
    28  F    8.402440  10.132194   9.943764  10.919864  11.841769
    29  F    6.797119   8.814646   8.814834   9.285045  10.411463
                   21         22         23         24         25
    21  H    0.000000
    22  H    7.295458   0.000000
    23  Cl  11.234023   5.599385   0.000000
    24  H    8.554137   4.305183   2.821292   0.000000
    25  C    9.981879   2.719041   5.175403   5.344026   0.000000
    26  H   11.238067   4.305817   2.858693   4.284268   2.679260
    27  F   10.920802   3.683290   5.415856   5.952641   1.342782
    28  F   10.744652   3.682875   5.416164   5.952589   1.342781
    29  F    9.285326   2.371120   6.314757   6.009583   1.334880
                   26         27         28         29
    26  H    0.000000
    27  F    2.786161   0.000000
    28  F    2.786714   2.151805   0.000000
    29  F    3.989454   2.157539   2.157512   0.000000
 Stoichiometry    C11H11ClF3NO2
 Framework group  C1[X(C11H11ClF3NO2)]
 Deg. of freedom    81
 Full point group                 C1      NOp   1
 Largest Abelian subgroup         C1      NOp   1
 Largest concise Abelian subgroup C1      NOp   1
                         Standard orientation:                         
 ---------------------------------------------------------------------
 Center     Atomic      Atomic             Coordinates (Angstroms)
 Number     Number       Type             X           Y           Z
 ---------------------------------------------------------------------
      1          6           0        0.141669    0.711592   -0.000223
      2          7           0       -1.243678    0.906635   -0.000379
      3          6           0       -2.223435   -0.055904   -0.000142
      4          8           0       -2.055479   -1.246987   -0.000020
      5          8           0       -3.423192    0.547507   -0.000079
      6          6           0       -4.555987   -0.335876    0.000136
      7          6           0       -5.805153    0.518249   -0.000002
      8          6           0       -7.059396   -0.351514    0.000249
      9          6           0        0.738251   -0.554506   -0.000211
     10          6           0        2.122394   -0.635608   -0.000074
     11          6           0        2.940042    0.489210    0.000045
     12          6           0        2.324693    1.729742    0.000019
     13          6           0        0.944402    1.854752   -0.000113
     14          1           0       -1.577984    1.858908   -0.000328
     15          1           0       -4.502470   -0.976722    0.883534
     16          1           0       -4.502531   -0.977081   -0.883004
     17          1           0       -5.792041    1.168270   -0.879075
     18          1           0       -5.791970    1.168675    0.878769
     19          1           0       -7.096217   -0.995179   -0.881954
     20          1           0       -7.961038    0.262080    0.000069
     21          1           0       -7.096219   -0.994668    0.882824
     22          1           0        0.131468   -1.446688   -0.000304
     23         17           0        3.299907    3.170033    0.000165
     24          1           0        0.497646    2.842894   -0.000126
     25          6           0        2.797509   -1.980927    0.000022
     26          1           0        4.019554    0.403405    0.000143
     27          9           0        3.587382   -2.130122   -1.075573
     28          9           0        3.586487   -2.130418    1.076233
     29          9           0        1.928193   -2.993940   -0.000452
 ---------------------------------------------------------------------
 Rotational constants (GHZ):      0.5307402      0.1582254      0.1248190
 General basis read from cards:  (6D, 7F)
 There are   368 symmetry adapted cartesian basis functions of A   symmetry.
 There are   368 symmetry adapted basis functions of A   symmetry.
   368 basis functions,   644 primitive gaussians,   368 cartesian basis functions
    72 alpha electrons       72 beta electrons
       nuclear repulsion energy      1424.7130275932 Hartrees.
 NAtoms=   29 NActive=   29 NUniq=   29 SFac= 1.00D+00 NAtFMM=   60 NAOKFM=F Big=F
 Integral buffers will be    131072 words long.
 Raffenetti 1 integral format.
 Two-electron integral symmetry is turned on.
 One-electron integrals computed using PRISM.
 NBasis=   368 RedAO= T EigKep=  1.20D-06  NBF=   368
 NBsUse=   367 1.00D-06 EigRej=  4.42D-07 NBFU=   367
 ExpMin= 4.38D-02 ExpMax= 2.52D+04 ExpMxC= 3.78D+03 IAcc=3 IRadAn=         5 AccDes= 0.00D+00
 Harris functional with IExCor=  205 and IRadAn=       5 diagonalized for initial guess.
 HarFok:  IExCor=  205 AccDes= 0.00D+00 IRadAn=         5 IDoV= 1 UseB2=F ITyADJ=14
 ICtDFT=  3500011 ScaDFX=  1.000000  1.000000  1.000000  1.000000
 FoFCou: FMM=F IPFlag=           0 FMFlag=      100000 FMFlg1=           0
         NFxFlg=           0 DoJE=T BraDBF=F KetDBF=T FulRan=T
         wScrn=  0.000000 ICntrl=     500 IOpCl=  0 I1Cent=   200000004 NGrid=           0
         NMat0=    1 NMatS0=      1 NMatT0=    0 NMatD0=    1 NMtDS0=    0 NMtDT0=    0
 Petite list used in FoFCou.
 Requested convergence on RMS density matrix=1.00D-08 within 128 cycles.
 Requested convergence on MAX density matrix=1.00D-06.
 Requested convergence on             energy=1.00D-06.
 No special actions if energy rises.
 Initial convergence to 1.0D-05 achieved.  Increase integral accuracy.
 SCF Done:  E(RHF) =  -1385.00446912     A.U. after   18 cycles
            NFock= 18  Conv=0.32D-08     -V/T= 2.0017
 ExpMin= 4.38D-02 ExpMax= 2.52D+04 ExpMxC= 3.78D+03 IAcc=3 IRadAn=         5 AccDes= 0.00D+00
 HarFok:  IExCor=  205 AccDes= 0.00D+00 IRadAn=         5 IDoV=-2 UseB2=F ITyADJ=14
 ICtDFT= 12500011 ScaDFX=  1.000000  1.000000  1.000000  1.000000
 Range of M.O.s used for correlation:    23   367
 NBasis=   368 NAE=    72 NBE=    72 NFC=    22 NFV=     0
 NROrb=    345 NOA=    50 NOB=    50 NVA=   295 NVB=   295

 **** Warning!!: The largest alpha MO coefficient is  0.20780817D+03

 Fully direct method using O(OVN) memory.
 JobTyp=1 Pass  1:  I=   1 to  50 NPSUse=  4 ParTrn=T ParDer=T DoDerP=F.
 Spin components of T(2) and E(2):
     alpha-alpha T2 =       0.1136630567D+00 E2=     -0.3547466808D+00
     alpha-beta  T2 =       0.5825263278D+00 E2=     -0.1880014382D+01
     beta-beta   T2 =       0.1136630567D+00 E2=     -0.3547466808D+00
 ANorm=    0.1345307564D+01
 E2 =    -0.2589507744D+01 EUMP2 =    -0.13875939768592D+04

 **********************************************************************

            Population analysis using the SCF density.

 **********************************************************************

 Orbital symmetries:
       Occupied  (A) (A) (A) (A) (A) (A) (A) (A) (A) (A) (A) (A)
                 (A) (A) (A) (A) (A) (A) (A) (A) (A) (A) (A) (A)
                 (A) (A) (A) (A) (A) (A) (A) (A) (A) (A) (A) (A)
                 (A) (A) (A) (A) (A) (A) (A) (A) (A) (A) (A) (A)
                 (A) (A) (A) (A) (A) (A) (A) (A) (A) (A) (A) (A)
                 (A) (A) (A) (A) (A) (A) (A) (A) (A) (A) (A) (A)
       Virtual   (A) (A) (A) (A) (A) (A) (A) (A) (A) (A) (A) (A)
                 (A) (A) (A) (A) (A) (A) (A) (A) (A) (A) (A) (A)
                 (A) (A) (A) (A) (A) (A) (A) (A) (A) (A) (A) (A)
                 (A) (A) (A) (A) (A) (A) (A) (A) (A) (A) (A) (A)
                 (A) (A) (A) (A) (A) (A) (A) (A) (A) (A) (A) (A)
                 (A) (A) (A) (A) (A) (A) (A) (A) (A) (A) (A) (A)
                 (A) (A) (A) (A) (A) (A) (A) (A) (A) (A) (A) (A)
                 (A) (A) (A) (A) (A) (A) (A) (A) (A) (A) (A) (A)
                 (A) (A) (A) (A) (A) (A) (A) (A) (A) (A) (A) (A)
                 (A) (A) (A) (A) (A) (A) (A) (A) (A) (A) (A) (A)
                 (A) (A) (A) (A) (A) (A) (A) (A) (A) (A) (A) (A)
                 (A) (A) (A) (A) (A) (A) (A) (A) (A) (A) (A) (A)
                 (A) (A) (A) (A) (A) (A) (A) (A) (A) (A) (A) (A)
                 (A) (A) (A) (A) (A) (A) (A) (A) (A) (A) (A) (A)
                 (A) (A) (A) (A) (A) (A) (A) (A) (A) (A) (A) (A)
                 (A) (A) (A) (A) (A) (A) (A) (A) (A) (A) (A) (A)
                 (A) (A) (A) (A) (A) (A) (A) (A) (A) (A) (A) (A)
                 (A) (A) (A) (A) (A) (A) (A) (A) (A) (A) (A) (A)
                 (A) (A) (A) (A) (A) (A) (A) (A) (A) (A) (A) (A)
                 (A) (A) (A) (A) (A) (A) (A) (A) (A) (A) (A) (A)
                 (A) (A) (A) (A) (A) (A) (A) (A) (A) (A) (A) (A)
                 (A) (A) (A) (A) (A) (A) (A) (A) (A) (A) (A) (A)
                 (A) (A) (A) (A) (A) (A) (A) (A) (A) (A) (A) (A)
                 (A) (A) (A) (A) (A) (A) (A) (A) (A) (A) (A) (A)
                 (A) (A) (A) (A) (A) (A) (A)
 The electronic state is 1-A.
 Alpha  occ. eigenvalues -- -104.84628 -26.35618 -26.35185 -26.35184 -20.63199
 Alpha  occ. eigenvalues --  -20.56800 -15.63665 -11.52146 -11.43625 -11.33118
 Alpha  occ. eigenvalues --  -11.32860 -11.30286 -11.28796 -11.27589 -11.27167
 Alpha  occ. eigenvalues --  -11.26555 -11.24264 -11.23367 -10.57867  -8.04809
 Alpha  occ. eigenvalues --   -8.04469  -8.04467  -1.73709  -1.64118  -1.63592
 Alpha  occ. eigenvalues --   -1.49530  -1.38748  -1.29265  -1.21283  -1.14719
 Alpha  occ. eigenvalues --   -1.09251  -1.07124  -1.02618  -0.97926  -0.96372
 Alpha  occ. eigenvalues --   -0.88930  -0.88583  -0.83526  -0.82591  -0.82445
 Alpha  occ. eigenvalues --   -0.80376  -0.80173  -0.76322  -0.72166  -0.71595
 Alpha  occ. eigenvalues --   -0.71153  -0.71110  -0.70918  -0.68004  -0.66734
 Alpha  occ. eigenvalues --   -0.66271  -0.65169  -0.64770  -0.64416  -0.62318
 Alpha  occ. eigenvalues --   -0.61606  -0.60188  -0.59124  -0.56822  -0.56238
 Alpha  occ. eigenvalues --   -0.55890  -0.54034  -0.53062  -0.51597  -0.50375
 Alpha  occ. eigenvalues --   -0.49877  -0.47885  -0.47608  -0.47089  -0.46319
 Alpha  occ. eigenvalues --   -0.36778  -0.33605
 Alpha virt. eigenvalues --    0.05194   0.07292   0.07668   0.07728   0.08770
 Alpha virt. eigenvalues --    0.09056   0.09088   0.09526   0.09948   0.10778
 Alpha virt. eigenvalues --    0.11095   0.11103   0.12144   0.12577   0.12748
 Alpha virt. eigenvalues --    0.13064   0.13843   0.14304   0.14542   0.15206
 Alpha virt. eigenvalues --    0.15913   0.15986   0.16317   0.18205   0.18249
 Alpha virt. eigenvalues --    0.18557   0.19256   0.19773   0.20120   0.20793
 Alpha virt. eigenvalues --    0.20982   0.21046   0.22735   0.22814   0.23633
 Alpha virt. eigenvalues --    0.24663   0.24885   0.24885   0.25672   0.26934
 Alpha virt. eigenvalues --    0.27026   0.27394   0.28370   0.29198   0.29544
 Alpha virt. eigenvalues --    0.30478   0.30688   0.31560   0.32782   0.32953
 Alpha virt. eigenvalues --    0.33067   0.33449   0.33542   0.34090   0.34300
 Alpha virt. eigenvalues --    0.36091   0.36189   0.37018   0.37173   0.37930
 Alpha virt. eigenvalues --    0.38200   0.39014   0.39218   0.40348   0.40473
 Alpha virt. eigenvalues --    0.41190   0.41523   0.41749   0.42593   0.42760
 Alpha virt. eigenvalues --    0.43632   0.43888   0.44007   0.44759   0.44810
 Alpha virt. eigenvalues --    0.46036   0.46499   0.47001   0.47722   0.48202
 Alpha virt. eigenvalues --    0.48570   0.48879   0.49125   0.50601   0.50976
 Alpha virt. eigenvalues --    0.51128   0.51925   0.52614   0.55007   0.55748
 Alpha virt. eigenvalues --    0.56554   0.57043   0.58443   0.58702   0.59293
 Alpha virt. eigenvalues --    0.60002   0.60711   0.63678   0.65852   0.68534
 Alpha virt. eigenvalues --    0.68983   0.73487   0.76225   0.79679   0.80579
 Alpha virt. eigenvalues --    0.82122   0.84207   0.84774   0.86081   0.87809
 Alpha virt. eigenvalues --    0.90122   0.91088   0.91850   0.92495   0.92551
 Alpha virt. eigenvalues --    0.92894   0.93068   0.94885   0.95818   0.96047
 Alpha virt. eigenvalues --    0.97950   0.99192   1.01105   1.01477   1.02320
 Alpha virt. eigenvalues --    1.03132   1.05550   1.05712   1.07184   1.08534
 Alpha virt. eigenvalues --    1.09107   1.10011   1.11294   1.13870   1.15233
 Alpha virt. eigenvalues --    1.16148   1.17107   1.17940   1.19306   1.19939
 Alpha virt. eigenvalues --    1.20057   1.22007   1.22384   1.24528   1.25330
 Alpha virt. eigenvalues --    1.27908   1.28268   1.29587   1.30011   1.33056
 Alpha virt. eigenvalues --    1.34797   1.36036   1.37508   1.38319   1.39496
 Alpha virt. eigenvalues --    1.41210   1.42659   1.42873   1.43941   1.45602
 Alpha virt. eigenvalues --    1.46691   1.47313   1.47674   1.49548   1.51126
 Alpha virt. eigenvalues --    1.53129   1.54855   1.56631   1.59721   1.60083
 Alpha virt. eigenvalues --    1.61533   1.63052   1.63901   1.67082   1.67147
 Alpha virt. eigenvalues --    1.70489   1.71151   1.72247   1.72895   1.75474
 Alpha virt. eigenvalues --    1.77686   1.78070   1.78624   1.81280   1.83837
 Alpha virt. eigenvalues --    1.87373   1.87460   1.90891   1.92142   1.93154
 Alpha virt. eigenvalues --    1.93935   1.96683   1.96933   1.97742   1.99093
 Alpha virt. eigenvalues --    1.99959   2.01155   2.03417   2.03754   2.07355
 Alpha virt. eigenvalues --    2.08383   2.09194   2.10753   2.11451   2.11496
 Alpha virt. eigenvalues --    2.12006   2.12699   2.15282   2.15905   2.17190
 Alpha virt. eigenvalues --    2.18724   2.19419   2.20329   2.22395   2.25540
 Alpha virt. eigenvalues --    2.26102   2.27109   2.29083   2.29255   2.31636
 Alpha virt. eigenvalues --    2.33151   2.33339   2.34383   2.34591   2.37022
 Alpha virt. eigenvalues --    2.38182   2.38942   2.40185   2.42072   2.42237
 Alpha virt. eigenvalues --    2.44865   2.46434   2.48830   2.49389   2.50237
 Alpha virt. eigenvalues --    2.54340   2.56369   2.56956   2.58269   2.59535
 Alpha virt. eigenvalues --    2.59640   2.60057   2.66532   2.68685   2.71045
 Alpha virt. eigenvalues --    2.71528   2.73653   2.74309   2.80111   2.81431
 Alpha virt. eigenvalues --    2.83443   2.84566   2.94063   2.96109   2.96492
 Alpha virt. eigenvalues --    2.97370   3.02285   3.06198   3.08572   3.08783
 Alpha virt. eigenvalues --    3.11127   3.11164   3.11910   3.14350   3.21138
 Alpha virt. eigenvalues --    3.26049   3.27965   3.30701   3.40335   3.46936
 Alpha virt. eigenvalues --    3.51300   3.51827   3.60268   3.62975   3.66989
 Alpha virt. eigenvalues --    3.72160   3.81414   4.60829   4.66102   4.68138
 Alpha virt. eigenvalues --    4.72513   4.74123   4.78195   4.79683   4.84341
 Alpha virt. eigenvalues --    4.85049   4.89275   4.96598   4.99839   5.03926
 Alpha virt. eigenvalues --    5.10916   5.20932   5.92260   6.52337   7.35616
          Condensed to atoms (all electrons):
               1          2          3          4          5          6
     1  C   18.511004  -0.343798  -1.000269  -0.450550  -0.128540  -0.485097
     2  N   -0.343798   7.634697   0.333003  -0.014575  -0.080683  -0.135813
     3  C   -1.000269   0.333003   6.137530   0.598439   0.334452  -0.485781
     4  O   -0.450550  -0.014575   0.598439   8.238625  -0.149606  -0.128398
     5  O   -0.128540  -0.080683   0.334452  -0.149606   8.528274   0.138869
     6  C   -0.485097  -0.135813  -0.485781  -0.128398   0.138869   6.661661
     7  C    0.015347   0.015464   0.009850   0.019653  -0.126350  -0.166930
     8  C   -0.007523   0.002080  -0.067853   0.001260   0.020759  -0.038471
     9  C   -2.579373  -0.124090   0.325340   0.437971   0.011842   0.070888
    10  C   -4.660705   0.128184   0.334339   0.126645   0.011320   0.057231
    11  C   -0.618529   0.081090   0.697199  -0.011087  -0.000066   0.024614
    12  C    1.142831   0.038776  -0.161227   0.006636   0.012028  -0.002711
    13  C   -2.358168   0.131397  -1.782597  -0.085281  -0.018672  -0.238687
    14  H   -0.028406   0.273241  -0.019723   0.003920   0.002578  -0.010163
    15  H    0.002661   0.004405   0.039237  -0.005095  -0.036294   0.373829
    16  H    0.002611   0.004419   0.039145  -0.005097  -0.036294   0.373925
    17  H   -0.000295  -0.000448   0.000585  -0.000310  -0.001481  -0.048123
    18  H   -0.000308  -0.000447   0.000498  -0.000310  -0.001480  -0.048070
    19  H   -0.000013  -0.000052  -0.001999  -0.000067  -0.000790  -0.025126
    20  H    0.000061   0.000025   0.004123   0.000015  -0.000143   0.066796
    21  H   -0.000012  -0.000052  -0.001965  -0.000067  -0.000791  -0.025102
    22  H    0.011445  -0.006823   0.093755  -0.005160   0.000638   0.010910
    23  Cl   0.131736  -0.005027  -0.022144   0.000101  -0.000033  -0.001061
    24  H    0.145975  -0.008964   0.004851   0.000058  -0.000269  -0.000006
    25  C   -1.237663   0.005206  -0.171512   0.007108   0.001312  -0.011633
    26  H    0.001874   0.000216   0.001862  -0.000001   0.000000   0.000015
    27  F    0.025341   0.000235   0.003554   0.000009   0.000000   0.000044
    28  F    0.025332   0.000235   0.003559   0.000009   0.000000   0.000044
    29  F    0.140469  -0.000812   0.007895   0.000133  -0.000004   0.000260
               7          8          9         10         11         12
     1  C    0.015347  -0.007523  -2.579373  -4.660705  -0.618529   1.142831
     2  N    0.015464   0.002080  -0.124090   0.128184   0.081090   0.038776
     3  C    0.009850  -0.067853   0.325340   0.334339   0.697199  -0.161227
     4  O    0.019653   0.001260   0.437971   0.126645  -0.011087   0.006636
     5  O   -0.126350   0.020759   0.011842   0.011320  -0.000066   0.012028
     6  C   -0.166930  -0.038471   0.070888   0.057231   0.024614  -0.002711
     7  C    5.747172   0.195942  -0.041718  -0.008888   0.000840  -0.000850
     8  C    0.195942   5.451624   0.000458   0.000176   0.000072  -0.000252
     9  C   -0.041718   0.000458  12.075374   2.577038  -3.573760   0.143644
    10  C   -0.008888   0.000176   2.577038  15.438556  -6.523520   2.409037
    11  C    0.000840   0.000072  -3.573760  -6.523520  30.064235  -7.586936
    12  C   -0.000850  -0.000252   0.143644   2.409037  -7.586936  13.618090
    13  C    0.026420  -0.002720  -3.417139  -1.100582  -7.438296  -1.569551
    14  H   -0.000369  -0.000230   0.001437   0.002913   0.002557   0.035527
    15  H   -0.039511  -0.006413  -0.000234   0.000013   0.000116  -0.000031
    16  H   -0.039487  -0.006406  -0.000225   0.000014   0.000117  -0.000032
    17  H    0.413835  -0.031823   0.000004  -0.000001   0.000007  -0.000000
    18  H    0.413845  -0.031788   0.000004  -0.000001   0.000007  -0.000000
    19  H   -0.025245   0.407195  -0.000045  -0.000001   0.000000  -0.000000
    20  H   -0.104633   0.396438   0.000023   0.000000  -0.000000  -0.000000
    21  H   -0.025256   0.407150  -0.000045  -0.000001   0.000000  -0.000000
    22  H   -0.000085   0.000035   0.287348  -0.055585   0.042278  -0.017580
    23  Cl   0.000008  -0.000000   0.068508   0.090861  -0.261871  -0.372740
    24  H   -0.000014  -0.000001  -0.002826   0.000048   0.109691   0.139427
    25  C   -0.000492  -0.000176  -0.669443  -2.335986   1.441258  -2.073341
    26  H    0.000000   0.000000   0.015593   0.089640   0.027477   0.131151
    27  F   -0.000000   0.000000   0.036369   0.136740  -0.201920   0.087312
    28  F   -0.000000   0.000000   0.036294   0.136854  -0.201845   0.087205
    29  F    0.000002   0.000001   0.028865  -0.073332  -0.006293   0.032878
              13         14         15         16         17         18
     1  C   -2.358168  -0.028406   0.002661   0.002611  -0.000295  -0.000308
     2  N    0.131397   0.273241   0.004405   0.004419  -0.000448  -0.000447
     3  C   -1.782597  -0.019723   0.039237   0.039145   0.000585   0.000498
     4  O   -0.085281   0.003920  -0.005095  -0.005097  -0.000310  -0.000310
     5  O   -0.018672   0.002578  -0.036294  -0.036294  -0.001481  -0.001480
     6  C   -0.238687  -0.010163   0.373829   0.373925  -0.048123  -0.048070
     7  C    0.026420  -0.000369  -0.039511  -0.039487   0.413835   0.413845
     8  C   -0.002720  -0.000230  -0.006413  -0.006406  -0.031823  -0.031788
     9  C   -3.417139   0.001437  -0.000234  -0.000225   0.000004   0.000004
    10  C   -1.100582   0.002913   0.000013   0.000014  -0.000001  -0.000001
    11  C   -7.438296   0.002557   0.000116   0.000117   0.000007   0.000007
    12  C   -1.569551   0.035527  -0.000031  -0.000032  -0.000000  -0.000000
    13  C   23.491056  -0.007315   0.000271   0.000270   0.000125   0.000125
    14  H   -0.007315   0.239006  -0.000001  -0.000001  -0.000004  -0.000004
    15  H    0.000271  -0.000001   0.489160  -0.035454   0.003152  -0.003635
    16  H    0.000270  -0.000001  -0.035454   0.489148  -0.003635   0.003151
    17  H    0.000125  -0.000004   0.003152  -0.003635   0.495858  -0.029205
    18  H    0.000125  -0.000004  -0.003635   0.003151  -0.029205   0.495858
    19  H    0.000012  -0.000000   0.000164   0.001390  -0.003210   0.003313
    20  H   -0.000007  -0.000000  -0.000115  -0.000115  -0.002585  -0.002584
    21  H    0.000013  -0.000000   0.001390   0.000164   0.003313  -0.003210
    22  H   -0.031389  -0.000097  -0.000003  -0.000003  -0.000000  -0.000000
    23  Cl   0.186120  -0.000214   0.000000   0.000000  -0.000000  -0.000000
    24  H   -0.056956   0.003671  -0.000000  -0.000000  -0.000000  -0.000000
    25  C    0.991564   0.000573  -0.000048  -0.000048  -0.000000  -0.000000
    26  H    0.048749  -0.000000  -0.000000  -0.000000  -0.000000  -0.000000
    27  F   -0.014329  -0.000000  -0.000000   0.000000   0.000000  -0.000000
    28  F   -0.014324  -0.000000   0.000000  -0.000000  -0.000000   0.000000
    29  F   -0.011842  -0.000000   0.000000   0.000000   0.000000   0.000000
              19         20         21         22         23         24
     1  C   -0.000013   0.000061  -0.000012   0.011445   0.131736   0.145975
     2  N   -0.000052   0.000025  -0.000052  -0.006823  -0.005027  -0.008964
     3  C   -0.001999   0.004123  -0.001965   0.093755  -0.022144   0.004851
     4  O   -0.000067   0.000015  -0.000067  -0.005160   0.000101   0.000058
     5  O   -0.000790  -0.000143  -0.000791   0.000638  -0.000033  -0.000269
     6  C   -0.025126   0.066796  -0.025102   0.010910  -0.001061  -0.000006
     7  C   -0.025245  -0.104633  -0.025256  -0.000085   0.000008  -0.000014
     8  C    0.407195   0.396438   0.407150   0.000035  -0.000000  -0.000001
     9  C   -0.000045   0.000023  -0.000045   0.287348   0.068508  -0.002826
    10  C   -0.000001   0.000000  -0.000001  -0.055585   0.090861   0.000048
    11  C    0.000000  -0.000000   0.000000   0.042278  -0.261871   0.109691
    12  C   -0.000000  -0.000000  -0.000000  -0.017580  -0.372740   0.139427
    13  C    0.000012  -0.000007   0.000013  -0.031389   0.186120  -0.056956
    14  H   -0.000000  -0.000000  -0.000000  -0.000097  -0.000214   0.003671
    15  H    0.000164  -0.000115   0.001390  -0.000003   0.000000  -0.000000
    16  H    0.001390  -0.000115   0.000164  -0.000003   0.000000  -0.000000
    17  H   -0.003210  -0.002585   0.003313  -0.000000  -0.000000  -0.000000
    18  H    0.003313  -0.002584  -0.003210  -0.000000  -0.000000  -0.000000
    19  H    0.503941  -0.024728  -0.031373  -0.000000  -0.000000  -0.000000
    20  H   -0.024728   0.487881  -0.024728   0.000000   0.000000   0.000000
    21  H   -0.031373  -0.024728   0.503936  -0.000000  -0.000000  -0.000000
    22  H   -0.000000   0.000000  -0.000000   0.335032   0.000023  -0.000063
    23  Cl  -0.000000   0.000000  -0.000000   0.000023  16.970575  -0.011561
    24  H   -0.000000   0.000000  -0.000000  -0.000063  -0.011561   0.417817
    25  C   -0.000000   0.000000  -0.000000  -0.012339  -0.031586   0.003985
    26  H   -0.000000   0.000000  -0.000000  -0.000062  -0.009370  -0.000085
    27  F    0.000000   0.000000  -0.000000   0.000060  -0.000387   0.000002
    28  F   -0.000000   0.000000   0.000000   0.000060  -0.000386   0.000002
    29  F    0.000000   0.000000   0.000000   0.002404  -0.000183  -0.000001
              25         26         27         28         29
     1  C   -1.237663   0.001874   0.025341   0.025332   0.140469
     2  N    0.005206   0.000216   0.000235   0.000235  -0.000812
     3  C   -0.171512   0.001862   0.003554   0.003559   0.007895
     4  O    0.007108  -0.000001   0.000009   0.000009   0.000133
     5  O    0.001312   0.000000   0.000000   0.000000  -0.000004
     6  C   -0.011633   0.000015   0.000044   0.000044   0.000260
     7  C   -0.000492   0.000000  -0.000000  -0.000000   0.000002
     8  C   -0.000176   0.000000   0.000000   0.000000   0.000001
     9  C   -0.669443   0.015593   0.036369   0.036294   0.028865
    10  C   -2.335986   0.089640   0.136740   0.136854  -0.073332
    11  C    1.441258   0.027477  -0.201920  -0.201845  -0.006293
    12  C   -2.073341   0.131151   0.087312   0.087205   0.032878
    13  C    0.991564   0.048749  -0.014329  -0.014324  -0.011842
    14  H    0.000573  -0.000000  -0.000000  -0.000000  -0.000000
    15  H   -0.000048  -0.000000  -0.000000   0.000000   0.000000
    16  H   -0.000048  -0.000000   0.000000  -0.000000   0.000000
    17  H   -0.000000  -0.000000   0.000000  -0.000000   0.000000
    18  H   -0.000000  -0.000000  -0.000000   0.000000   0.000000
    19  H   -0.000000  -0.000000   0.000000  -0.000000   0.000000
    20  H    0.000000   0.000000   0.000000   0.000000   0.000000
    21  H   -0.000000  -0.000000  -0.000000   0.000000   0.000000
    22  H   -0.012339  -0.000062   0.000060   0.000060   0.002404
    23  Cl  -0.031586  -0.009370  -0.000387  -0.000386  -0.000183
    24  H    0.003985  -0.000085   0.000002   0.000002  -0.000001
    25  C    8.103292   0.017945   0.046550   0.046551   0.007896
    26  H    0.017945   0.387964  -0.000210  -0.000211   0.000241
    27  F    0.046550  -0.000210   9.299287  -0.030554  -0.018205
    28  F    0.046551  -0.000211  -0.030554   9.299275  -0.018222
    29  F    0.007896   0.000241  -0.018205  -0.018222   9.339066
 Mulliken charges:
               1
     1  C   -0.257437
     2  N   -0.931090
     3  C    0.745853
     4  O   -0.584979
     5  O   -0.480574
     6  C    0.072085
     7  C   -0.278546
     8  C   -0.689532
     9  C    0.291899
    10  C   -0.781008
    11  C   -0.067433
    12  C   -0.099292
    13  C   -0.728266
    14  H    0.501105
    15  H    0.212436
    16  H    0.212444
    17  H    0.204242
    18  H    0.204241
    19  H    0.196633
    20  H    0.204277
    21  H    0.196637
    22  H    0.345204
    23  Cl   0.268631
    24  H    0.255220
    25  C    1.871027
    26  H    0.287213
    27  F   -0.369897
    28  F   -0.369878
    29  F   -0.431215
 Sum of Mulliken charges =  -0.00000
 Mulliken charges with hydrogens summed into heavy atoms:
               1
     1  C   -0.257437
     2  N   -0.429984
     3  C    0.745853
     4  O   -0.584979
     5  O   -0.480574
     6  C    0.496965
     7  C    0.129936
     8  C   -0.091984
     9  C    0.637102
    10  C   -0.781008
    11  C    0.219780
    12  C   -0.099292
    13  C   -0.473046
    23  Cl   0.268631
    25  C    1.871027
    27  F   -0.369897
    28  F   -0.369878
    29  F   -0.431215
 Electronic spatial extent (au):  <R**2>=           8015.2996
 Charge=              0.0000 electrons
 Dipole moment (field-independent basis, Debye):
    X=             -4.4907    Y=              3.2182    Z=             -0.0001  Tot=              5.5247
 Quadrupole moment (field-independent basis, Debye-Ang):
   XX=           -100.8943   YY=           -117.7424   ZZ=           -113.7760
   XY=             -0.7102   XZ=             -0.0007   YZ=              0.0004
 Traceless Quadrupole moment (field-independent basis, Debye-Ang):
   XX=              9.9100   YY=             -6.9382   ZZ=             -2.9718
   XY=             -0.7102   XZ=             -0.0007   YZ=              0.0004
 Octapole moment (field-independent basis, Debye-Ang**2):
  XXX=            -78.6034  YYY=            -17.6188  ZZZ=              0.0012  XYY=             -9.5916
  XXY=             -5.5340  XXZ=              0.0052  XZZ=              0.0982  YZZ=            -15.0722
  YYZ=             -0.0020  XYZ=              0.0005
 Hexadecapole moment (field-independent basis, Debye-Ang**3):
 XXXX=          -7437.0701 YYYY=          -2014.0414 ZZZZ=           -201.4960 XXXY=            -55.0508
 XXXZ=              0.0210 YYYX=           -121.6193 YYYZ=             -0.0027 ZZZX=             -0.0029
 ZZZY=              0.0032 XXYY=          -1751.2629 XXZZ=          -1379.8175 YYZZ=           -378.4499
 XXYZ=              0.0062 YYXZ=              0.0041 ZZXY=            -27.6836
 N-N= 1.424713027593D+03 E-N=-6.121853607758D+03  KE= 1.382610379186D+03
 1\1\GINC-R3767\SP\RMP2-FC\Gen\C11H11Cl1F3N1O2\ROOT\09-Dec-2019\0\\# MP
 2/Gen 6D SCF=Tight INT(grid=ultrafine) maxdisk=3489660928\\NM3CA.MP2_6
 -31pGd\\0,1\C,0,-5.9569774964,1.2808417127,0.193724409\N,0,-4.67619297
 11,0.7260852958,0.0985238423\C,0,-3.474889631,1.3918660304,0.095356404
 2\O,0,-3.316704807,2.581643944,0.1746987992\O,0,-2.48234089,0.49363161
 7,-0.0120889921\C,0,-1.1550188492,1.0427360656,-0.0291191185\C,0,-0.18
 22498634,-0.1096510956,-0.1542905514\C,0,1.2582901817,0.3941613221,-0.
 1794147609\C,0,-6.1911356013,2.6563764353,0.3032149879\C,0,-7.50135663
 18,3.1012571369,0.3917171321\C,0,-8.5902154275,2.2364418165,0.37603053
 23\C,0,-8.331132362,0.8805160896,0.2668747265\C,0,-7.0364086201,0.3944
 37603,0.1760640258\H,0,-4.6101653127,-0.2781777893,0.0231473521\H,0,-0
 .9966891587,1.6094817615,0.8915708232\H,0,-1.0720482802,1.7370607438,-
 0.8687424746\H,0,-0.4069771034,-0.6678688794,-1.0671748851\H,0,-0.3320
 125571,-0.7948630579,0.6844723461\H,0,1.4288381861,1.0668524163,-1.023
 4183192\H,0,1.9612084214,-0.4348237634,-0.2696742313\H,0,1.5041420102,
 0.9392380926,0.7351283058\H,0,-5.3676618908,3.3533986819,0.3181827469\
 Cl,0,-9.6563259272,-0.2458709955,0.2424448047\H,0,-6.8718000484,-0.674
 1181456,0.0917469319\C,0,-7.7898146971,4.5737769392,0.5106327161\H,0,-
 9.60601919,2.6050963661,0.4463538508\F,0,-8.5558526462,5.0040904724,-0
 .5047879246\F,0,-8.4629288302,4.8491360989,1.6394182432\F,0,-6.6812700
 068,5.3174170852,0.5163582777\\Version=ES64L-G09RevE.01\State=1-A\HF=-
 1385.0044691\MP2=-1387.5939769\RMSD=3.188e-09\PG=C01 [X(C11H11Cl1F3N1O
 2)]\\@


 Time has a wonderful way of weeding out the trivial.
                                -- Richard Ben Sapir
 Job cpu time:       0 days  0 hours 13 minutes 18.5 seconds.
 File lengths (MBytes):  RWF=     74 Int=      0 D2E=      0 Chk=      9 Scr=      1
 Normal termination of Gaussian 09 at Mon Dec  9 11:32:23 2019.
pbs_rusage has been removed.
Please contact help@nci.org.au if you require this functionality.
