Process 0 of 1 is on r4453 - thread support 0
initial socket setup ...start
initial socket setup ...done 
now start server 0 ... 
r4453 10.9.76
Q-Chem Developer Version! Running on 10.9.76.*
                  Welcome to Q-Chem
     A Quantum Leap Into The Future Of Chemistry


 Q-Chem 5.0, Q-Chem, Inc., Pleasanton, CA (2017)

 Yihan Shao,  Zhengting Gan,  E. Epifanovsky,  A. T. B. Gilbert,  M. Wormit,  
 J. Kussmann,  A. W. Lange,  A. Behn,  Jia Deng,  Xintian Feng,  D. Ghosh,  
 M. Goldey,  P. R. Horn,  L. D. Jacobson,  I. Kaliman,  T. Kus,  A. Landau,  
 Jie Liu,  E. I. Proynov,  R. M. Richard,  R. P. Steele,  E. J. Sundstrom,  
 H. L. Woodcock III,  P. M. Zimmerman,  D. Zuev,  B. Albrecht,  E. Alguire,  
 S. A. Baeppler,  Z. Benda,  Y. A. Bernard,  E. J. Berquist,  K. B. Bravaya,  
 D. Casanova,  Chun-Min Chang,  Yunqing Chen,  A. Chien,  K. D. Closser,  
 M. P. Coons,  S. Dasgupta,  M. Diedenhofen,  Hainam Do,  R. G. Edgar,  
 Po-Tung Fang,  S. Fatehi,  Qingguo Feng,  Qinghui Ge,  A. Ghysels,  
 J. Gomes,  J. Gonthier,  A. Gunina,  M. W. D. Hanson-Heine,  
 P. H. P. Harbach,  A. W. Hauser,  J. E. Herr,  E. G. Hohenstein,  
 Z. C. Holden,  Kerwin Hui,  T.-C. Jagau,  Hyunjun Ji,  B. Kaduk,  
 K. Khistyaev,  Jaehoon Kim,  P. Klunzinger,  K. Koh,  D. Kosenkov,  
 T. Kowalczyk,  C. M. Krauter,  A. Kunitsa,  Ka Un Lao,  A. Laurent,  
 K. V. Lawler,  Joonho Lee,  D. Lefrancois,  S. Lehtola,  D. S. Levine,  
 Yi-Pei Li,  You-Sheng Lin,  Fenglai Liu,  E. Livshits,  A. Luenser,  
 P. Manohar,  E. Mansoor,  S. F. Manzer,  Shan-Ping Mao,  Yuezhi Mao,  
 N. Mardirossian,  A. V. Marenich,  L. A. Martinez-Martinez,  S. A. Maurer,  
 N. J. Mayhall,  S. C. McKenzie,  J.-M. Mewes,  A. F. Morrison,  K. Nanda,  
 T. S. Nguyen-Beck,  R. Olivares-Amaya,  J. A. Parkhill,  T. M. Perrine,  
 F. Plasser,  S. Prager,  A. Prociuk,  D. R. Rehn,  F. Rob,  M. Schneider,  
 N. Sergueev,  S. M. Sharada,  S. Sharma,  D. W. Small,  T. Stauch,  
 T. Stein,  Yu-Chuan Su,  A. J. W. Thom,  T. Tsuchimochi,  L. Vogt,  
 O. Vydrov,  M. A. Watson,  J. Wenzel,  M. de Wergifosse,  T. A. Wesolowski,  
 A. White,  J. Witte,  A. Yamada,  Jun Yang,  K. Yao,  S. Yeganeh,  
 S. R. Yost,  Zhi-Qiang You,  A. Zech,  Igor Ying Zhang,  Xing Zhang,  
 Yan Zhao,  Ying Zhu,  B. R. Brooks,  G. K. L. Chan,  C. J. Cramer,  
 M. S. Gordon,  W. J. Hehre,  A. Klamt,  M. W. Schmidt,  C. D. Sherrill,  
 D. G. Truhlar,  A. Aspuru-Guzik,  R. Baer,  A. T. Bell,  N. A. Besley,  
 Jeng-Da Chai,  A. Dreuw,  B. D. Dunietz,  T. R. Furlani,  Chao-Ping Hsu,  
 Yousung Jung,  Jing Kong,  D. S. Lambrecht,  WanZhen Liang,  C. Ochsenfeld,  
 V. A. Rassolov,  L. V. Slipchenko,  J. E. Subotnik,  T. Van Voorhis,  
 J. M. Herbert,  A. I. Krylov,  P. M. W. Gill,  M. Head-Gordon

 Contributors to earlier versions of Q-Chem not listed above: 
 R. D. Adamson,  B. Austin,  J. Baker,  G. J. O. Beran,  K. Brandhorst,  
 S. T. Brown,  E. F. C. Byrd,  A. K. Chakraborty,  C.-L. Cheng,  
 Siu Hung Chien,  D. M. Chipman,  D. L. Crittenden,  H. Dachsel,  
 R. A. DiStasio Jr.,  R. J. Doerksen,  A. D. Dutoi,  L. Fusti-Molnar,  
 W. A. Goddard III,  A. Golubeva-Zadorozhnaya,  S. R. Gwaltney,  G. Hawkins,  
 A. Heyden,  S. Hirata,  G. Kedziora,  F. J. Keil,  C. Kelley,  Jihan Kim,  
 R. A. King,  R. Z. Khaliullin,  P. P. Korambath,  W. Kurlancheek,  
 A. M. Lee,  M. S. Lee,  S. V. Levchenko,  Ching Yeh Lin,  D. Liotard,  
 R. C. Lochan,  I. Lotan,  P. E. Maslen,  N. Nair,  D. P. O'Neill,  
 D. Neuhauser,  E. Neuscamman,  C. M. Oana,  R. Olson,  B. Peters,  
 R. Peverati,  P. A. Pieniazek,  Y. M. Rhee,  J. Ritchie,  M. A. Rohrdanz,  
 E. Rosta,  N. J. Russ,  H. F. Schaefer III,  N. E. Schultz,  N. Shenvi,  
 A. C. Simmonett,  A. Sodt,  D. Stuck,  K. S. Thanthiriwatte,  V. Vanovschi,  
 Tao Wang,  A. Warshel,  C. F. Williams,  Q. Wu,  X. Xu,  W. Zhang

 Please cite Q-Chem as follows:
 Y. Shao et al., Mol. Phys. 113, 184-215 (2015)
 DOI: 10.1080/00268976.2014.952696

 Q-Chem 5.0.0 for Intel X86 EM64T Linux

 Parts of Q-Chem use Armadillo 5.200.1 (Boston Tea Smuggler).
 http://arma.sourceforge.net/

 Q-Chem begins on Mon Dec  9 11:57:29 2019  

Host: r4453
0

     Scratch files written to /jobfs/local/4047191.r-man2/NM3CA_c2.CCSD-T_6-31pGd.mo//
 Parallel job on  1  processors
Core orbitals will be frozen

Checking the input file for inconsistencies... 	...done.

--------------------------------------------------------------
User input:
--------------------------------------------------------------
$molecule
  0 1
    C     -5.9363567378    1.4871685131    0.2139658711
    N     -4.6853388909    0.8757892616    0.0795614564
    C     -3.4511677975    1.4756191940    0.1262232574
    O     -3.2317298801    2.6470234401    0.2916282537
    O     -2.5066698127    0.5366687427   -0.0444015202
    C     -1.1517696602    1.0128764794   -0.0197271348
    C     -0.2427370649   -0.1790216373   -0.2276800899
    C      1.2234609946    0.2447063279   -0.2146277537
    C     -7.0615804509    0.6602121180    0.1419496509
    C     -8.3271195545    1.2061155390    0.2727268139
    C     -8.5149941624    2.5682171936    0.4733689354
    C     -7.3848828587    3.3682391418    0.5410166345
    C     -6.0985697763    2.8603143526    0.4158612955
    H     -4.6723450703   -0.1227935437   -0.0665327150
    H     -0.9676104547    1.5013770129    0.9401909800
    H     -1.0269831357    1.7608188425   -0.8064807907
    H     -0.4933609552   -0.6560361718   -1.1790401409
    H     -0.4342034094   -0.9141876367    0.5586463706
    H      1.4351380334    0.9665312717   -1.0071614225
    H      1.8798987690   -0.6132456076   -0.3645154449
    H      1.4945754304    0.7072008053    0.7375011861
    H     -6.9461794053   -0.4076650211   -0.0076883987
    Cl    -7.5807874619    5.0775547305    0.7976637603
    H     -5.2427687981    3.5152890208    0.4771091532
    C     -9.5291495216    0.3144669474    0.1321585646
    H     -9.5047148548    2.9921872255    0.5812145730
    F    -10.5610352639    0.7458733944    0.8670596835
    F     -9.9534568902    0.2592616547   -1.1408199190
    F     -9.2664013594   -0.9454615912    0.5071688903

$end

$rem

    JOBTYPE               sp
    METHOD                CCSD(T)
    BASIS                 6-31+G*
    CC_BACKEND            XM

    MEM_TOTAL             60000
$end
--------------------------------------------------------------
 ----------------------------------------------------------------
             Standard Nuclear Orientation (Angstroms)
    I     Atom           X                Y                Z
 ----------------------------------------------------------------
    1      C       0.1080983123     0.0314666249     0.0110896697
    2      N      -1.2024638319     0.5206661716     0.0087532116
    3      C      -2.3672630322    -0.2062032114     0.0013180152
    4      O      -2.4610434861    -1.4057240559    -0.0060772626
    5      O      -3.4074641824     0.6427925510     0.0035474738
    6      C      -4.7055927673     0.0280135124    -0.0032324783
    7      C      -5.7374641951     1.1350096437    -0.0006376470
    8      C      -7.1519821556     0.5618227699    -0.0075837925
    9      C       1.1408069003     0.9739532849     0.0311766782
   10      C       2.4591098752     0.5512099457     0.0394089188
   11      C       2.7908058354    -0.7981094014     0.0256199313
   12      C       1.7503544488    -1.7139788063     0.0054448795
   13      C       0.4154457301    -1.3316038265    -0.0023579334
   14      H      -1.3216025074     1.5228798686     0.0160776207
   15      H      -4.7960629791    -0.6134439598     0.8767320798
   16      H      -4.7910327800    -0.6045905405    -0.8900711822
   17      H      -5.5793939796     1.7709150851    -0.8758971649
   18      H      -5.5844924606     1.7621412183     0.8818267130
   19      H      -7.3266563507    -0.0534035236    -0.8935485591
   20      H      -7.8968382045     1.3584687721    -0.0058491578
   21      H      -7.3318316207    -0.0620768144     0.8712547453
   22      H       0.9128090132     2.0340401299     0.0485943673
   23      Cl      2.1272045344    -3.4121727071    -0.0058525002
   24      H      -0.3671016344    -2.0749702517    -0.0151802029
   25      C       3.5585787623     1.5755280618    -0.0007563497
   26      H       3.8217507200    -1.1266325464     0.0380097114
   27      F       4.6608407900     1.1516097220     0.6287601518
   28      F       3.9166309000     1.8623839693    -1.2629254914
   29      F       3.1889613751     2.7315336236     0.5685620075
 ----------------------------------------------------------------
 Molecular Point Group                 C1    NOp =  1
 Largest Abelian Subgroup              C1    NOp =  1
 Nuclear Repulsion Energy =  1417.9679383303 hartrees
 There are       72 alpha and       72 beta electrons
 Requested basis set is 6-31+G(d)
 There are 113 shells and 368 basis functions
 Total memory of 101219MB is distributed as follows: 
   QALLOC including MEM_STATIC uses 30062MB
   MEM_STATIC is set to 62MB
   CCMAN JOB total memory use is  101157MB
 Warning: actual memory use might exceed 101219MB

 Total QAlloc Memory Limit  30062 MB
 Mega-Array Size        61 MB
 MEM_STATIC part        62 MB
 A cutoff of  1.0D-14 yielded   4741 shell pairs
 There are     53881 function pairs
 
 -------------------------------------------------------
 OpenMP Integral Computing Module                       
 Release: version 1.0, May 2013, Q-Chem Inc. Pittsburgh 
 -------------------------------------------------------
 Integral Job Info:
 Integral job number is                      11
 Integral operator is                         1
 short-range coefficients                     0
 long-range coefficients              100000000
 Omega coefficients                           0
 if combine SR and LR in K                    0
 Integral screening is                        0
 Integral computing path is                   2
 max size of driver memory is            800000
 size of driver memory is                593474
 size of scratch memory is             15166112
 max col of scratch BK array               1296
 max len of scratch array in speh3          155
 max len of scratch index in speh4           18
 max int batch size is                      520
 min int batch size is                       52
 fixed nKL is                                52
 max L of basis functions is                  2
 order of int derivative is                   0
 number of shells is                        113
 number of basis is                         368
 number of cartesian basis is               368
 number of contracted shell pairs          4741
 number of primitive shell pairs          15344
 maxK2 (contraction) of shell pair           36
 max number of K2 of shell pair               1
 max number of CS2 of shell pair            684
 max number of PS2 of shell pair           3816
 mem total for path MDJ                  136648
 -------------------------------------------------------
 Smallest overlap matrix eigenvalue = 6.93E-07
 Linear dependence detected in AO basis
 Number of orthogonalized atomic orbitals = 367
 Maximum deviation from orthogonality = 5.082E-10

 Scale SEOQF with 1.000000e-02/1.000000e-01/1.000000e-01

 Standard Electronic Orientation quadrupole field applied
 Nucleus-field energy     =     0.0000000333 hartrees
 Guess from superposition of atomic densities
 Warning:  Energy on first SCF cycle will be non-variational
 A restricted Hartree-Fock SCF calculation will be
 performed using Pulay DIIS extrapolation
 SCF converges when DIIS error is below 1.0E-08
 -------------------------------------------------------
 OpenMP Integral computing Module                
 Release: version 1.0, May 2013, Q-Chem Inc. Pittsburgh 
 -------------------------------------------------------
 ---------------------------------------
  Cycle       Energy         DIIS Error
 ---------------------------------------
    1   -1391.0926186887      3.92E-02
    2   -1384.6439770266      4.62E-03
    3   -1384.9089449263      2.74E-03
    4   -1384.9991512717      5.15E-04
    5   -1385.0041616731      1.97E-04
    6   -1385.0048320896      4.81E-05
    7   -1385.0048949634      2.01E-05
    8   -1385.0049114688      6.51E-06
    9   -1385.0049138571      3.02E-06
   10   -1385.0049143133      1.25E-06
   11   -1385.0049144187      5.53E-07
   12   -1385.0049144434      2.51E-07
   13   -1385.0049144478      9.88E-08
   14   -1385.0049144485      3.83E-08
   15   -1385.0049144486      1.26E-08
   16   -1385.0049144486      3.29E-09 Convergence criterion met
 ---------------------------------------
 SCF time:  CPU 227.99 s  wall 59.30 s
 SCF   energy in the final basis set = -1385.0049144486
 Total energy in the final basis set = -1385.0049144486


 ------------------------------------------------------------------------------

   CCMAN2: suite of methods based on coupled cluster
           and equation of motion theories.

   Components:
   * libvmm-1.3-trunk
     by Evgeny Epifanovsky, Ilya Kaliman.
   * libtensor-2.5-release
     by Evgeny Epifanovsky, Michael Wormit, Dmitry Zuev, Sam Manzer, 
        Ilya Kaliman.
   * libcc-2.5-trunk
     by Evgeny Epifanovsky, Arik Landau, Tomasz Kus, Kirill Khistyaev, 
        Dmitry Zuev, Prashant Manohar, Xintian Feng, Anna Krylov, 
        Matthew Goldey, Alec White, Thomas Jagau, Kaushik Nanda, 
        Anastasia Gunina, Alexander Kunitsa, Joonho Lee.

   CCMAN original authors:
   Anna I. Krylov, C. David Sherrill, Steven R. Gwaltney,
   Edward F. C. Byrd (2000)
   Sergey V. Levchenko, Lyudmila V. Slipchenko, Tao Wang,
   Ana-Maria C. Cristian (2003)
   Piotr A. Pieniazek, C. Melania Oana, Evgeny Epifanovsky (2007)
   Prashant Manohar (2009)

 ------------------------------------------------------------------------------


================================================================================
This program uses libxm tensor contraction code.
See https://github.com/ilyak/libxm for more info.
libxm is (c) Ilya Kaliman 2014-2016.
================================================================================

 Calculation will run on 4 cores using libxm for tensor contractions

 
 Alpha MOs, Restricted
 -- Occupied --                  
-104.84  -26.36  -26.36  -26.36  -20.63  -20.57  -15.64  -11.53
  1 A     2 A     3 A     4 A     5 A     6 A     7 A     8 A                  
-11.436 -11.329 -11.328 -11.303 -11.291 -11.276 -11.272 -11.266
  9 A    10 A    11 A    12 A    13 A    14 A    15 A    16 A                  
-11.243 -11.234 -10.573  -8.042  -8.039  -8.039  -1.743  -1.647
 17 A    18 A    19 A    20 A    21 A    22 A    23 A    24 A                  
 -1.642  -1.495  -1.388  -1.293  -1.211  -1.147  -1.092  -1.070
 25 A    26 A    27 A    28 A    29 A    30 A    31 A    32 A                  
 -1.028  -0.981  -0.964  -0.897  -0.875  -0.841  -0.831  -0.826
 33 A    34 A    35 A    36 A    37 A    38 A    39 A    40 A                  
 -0.825  -0.785  -0.769  -0.724  -0.720  -0.716  -0.712  -0.709
 41 A    42 A    43 A    44 A    45 A    46 A    47 A    48 A                  
 -0.682  -0.669  -0.668  -0.655  -0.654  -0.644  -0.623  -0.616
 49 A    50 A    51 A    52 A    53 A    54 A    55 A    56 A                  
 -0.603  -0.591  -0.570  -0.561  -0.559  -0.539  -0.531  -0.515
 57 A    58 A    59 A    60 A    61 A    62 A    63 A    64 A                  
 -0.504  -0.499  -0.479  -0.476  -0.465  -0.462  -0.366  -0.337
 65 A    66 A    67 A    68 A    69 A    70 A    71 A    72 A                  
 -- Virtual --                   
  0.055   0.074   0.077   0.080   0.087   0.089   0.090   0.094
 73 A    74 A    75 A    76 A    77 A    78 A    79 A    80 A                  
  0.100   0.107   0.108   0.112   0.122   0.123   0.129   0.130
 81 A    82 A    83 A    84 A    85 A    86 A    87 A    88 A                  
  0.140   0.145   0.147   0.153   0.158   0.159   0.164   0.178
 89 A    90 A    91 A    92 A    93 A    94 A    95 A    96 A                  
  0.181   0.186   0.190   0.200   0.203   0.206   0.209   0.213
 97 A    98 A    99 A   100 A   101 A   102 A   103 A   104 A                  
  0.228   0.234   0.241   0.245   0.251   0.253   0.259   0.267
105 A   106 A   107 A   108 A   109 A   110 A   111 A   112 A                  
  0.269   0.283   0.288   0.292   0.294   0.304   0.307   0.315
113 A   114 A   115 A   116 A   117 A   118 A   119 A   120 A                  
  0.320   0.329   0.330   0.335   0.336   0.339   0.346   0.359
121 A   122 A   123 A   124 A   125 A   126 A   127 A   128 A                  
  0.364   0.371   0.375   0.379   0.383   0.387   0.398   0.403
129 A   130 A   131 A   132 A   133 A   134 A   135 A   136 A                  
  0.408   0.411   0.415   0.418   0.419   0.423   0.424   0.429
137 A   138 A   139 A   140 A   141 A   142 A   143 A   144 A                  
  0.436   0.447   0.453   0.453   0.458   0.465   0.477   0.478
145 A   146 A   147 A   148 A   149 A   150 A   151 A   152 A                  
  0.486   0.489   0.494   0.498   0.507   0.518   0.525   0.536
153 A   154 A   155 A   156 A   157 A   158 A   159 A   160 A                  
  0.544   0.553   0.563   0.567   0.577   0.582   0.595   0.609
161 A   162 A   163 A   164 A   165 A   166 A   167 A   168 A                  
  0.617   0.625   0.653   0.664   0.684   0.715   0.767   0.778
169 A   170 A   171 A   172 A   173 A   174 A   175 A   176 A                  
  0.812   0.822   0.842   0.846   0.860   0.883   0.895   0.912
177 A   178 A   179 A   180 A   181 A   182 A   183 A   184 A                  
  0.919   0.922   0.928   0.934   0.943   0.946   0.959   0.971
185 A   186 A   187 A   188 A   189 A   190 A   191 A   192 A                  
  0.979   0.989   0.996   1.011   1.017   1.022   1.050   1.056
193 A   194 A   195 A   196 A   197 A   198 A   199 A   200 A                  
  1.083   1.089   1.092   1.101   1.115   1.146   1.150   1.162
201 A   202 A   203 A   204 A   205 A   206 A   207 A   208 A                  
  1.171   1.175   1.189   1.198   1.202   1.216   1.225   1.234
209 A   210 A   211 A   212 A   213 A   214 A   215 A   216 A                  
  1.253   1.272   1.283   1.300   1.305   1.335   1.345   1.356
217 A   218 A   219 A   220 A   221 A   222 A   223 A   224 A                  
  1.369   1.385   1.393   1.399   1.417   1.430   1.448   1.457
225 A   226 A   227 A   228 A   229 A   230 A   231 A   232 A                  
  1.469   1.470   1.471   1.500   1.512   1.533   1.551   1.565
233 A   234 A   235 A   236 A   237 A   238 A   239 A   240 A                  
  1.592   1.600   1.606   1.619   1.646   1.668   1.674   1.696
241 A   242 A   243 A   244 A   245 A   246 A   247 A   248 A                  
  1.700   1.717   1.726   1.755   1.780   1.786   1.799   1.822
249 A   250 A   251 A   252 A   253 A   254 A   255 A   256 A                  
  1.834   1.849   1.882   1.893   1.919   1.938   1.952   1.958
257 A   258 A   259 A   260 A   261 A   262 A   263 A   264 A                  
  1.961   1.965   1.985   1.994   2.011   2.013   2.036   2.065
265 A   266 A   267 A   268 A   269 A   270 A   271 A   272 A                  
  2.080   2.082   2.084   2.108   2.120   2.128   2.138   2.149
273 A   274 A   275 A   276 A   277 A   278 A   279 A   280 A                  
  2.154   2.171   2.181   2.190   2.199   2.225   2.259   2.266
281 A   282 A   283 A   284 A   285 A   286 A   287 A   288 A                  
  2.275   2.291   2.301   2.310   2.317   2.331   2.355   2.359
289 A   290 A   291 A   292 A   293 A   294 A   295 A   296 A                  
  2.365   2.379   2.385   2.393   2.401   2.426   2.443   2.467
297 A   298 A   299 A   300 A   301 A   302 A   303 A   304 A                  
  2.489   2.492   2.512   2.521   2.546   2.562   2.568   2.587
305 A   306 A   307 A   308 A   309 A   310 A   311 A   312 A                  
  2.592   2.603   2.671   2.676   2.706   2.710   2.736   2.738
313 A   314 A   315 A   316 A   317 A   318 A   319 A   320 A                  
  2.749   2.830   2.841   2.862   2.938   2.948   2.963   2.967
321 A   322 A   323 A   324 A   325 A   326 A   327 A   328 A                  
  3.023   3.048   3.073   3.087   3.090   3.119   3.143   3.150
329 A   330 A   331 A   332 A   333 A   334 A   335 A   336 A                  
  3.189   3.255   3.292   3.325   3.385   3.459   3.511   3.558
337 A   338 A   339 A   340 A   341 A   342 A   343 A   344 A                  
  3.571   3.610   3.638   3.723   3.807   4.605   4.661   4.685
345 A   346 A   347 A   348 A   349 A   350 A   351 A   352 A                  
  4.709   4.753   4.776   4.797   4.834   4.857   4.890   4.970
353 A   354 A   355 A   356 A   357 A   358 A   359 A   360 A                  
  4.980   5.034   5.110   5.206   6.131   6.336   6.988
361 A   362 A   363 A   364 A   365 A   366 A   367 A                          
 
 Beta MOs, Restricted
 -- Occupied --                  
-104.84  -26.36  -26.36  -26.36  -20.63  -20.57  -15.64  -11.53
  1 A     2 A     3 A     4 A     5 A     6 A     7 A     8 A                  
-11.436 -11.329 -11.328 -11.303 -11.291 -11.276 -11.272 -11.266
  9 A    10 A    11 A    12 A    13 A    14 A    15 A    16 A                  
-11.243 -11.234 -10.573  -8.042  -8.039  -8.039  -1.743  -1.647
 17 A    18 A    19 A    20 A    21 A    22 A    23 A    24 A                  
 -1.642  -1.495  -1.388  -1.293  -1.211  -1.147  -1.092  -1.070
 25 A    26 A    27 A    28 A    29 A    30 A    31 A    32 A                  
 -1.028  -0.981  -0.964  -0.897  -0.875  -0.841  -0.831  -0.826
 33 A    34 A    35 A    36 A    37 A    38 A    39 A    40 A                  
 -0.825  -0.785  -0.769  -0.724  -0.720  -0.716  -0.712  -0.709
 41 A    42 A    43 A    44 A    45 A    46 A    47 A    48 A                  
 -0.682  -0.669  -0.668  -0.655  -0.654  -0.644  -0.623  -0.616
 49 A    50 A    51 A    52 A    53 A    54 A    55 A    56 A                  
 -0.603  -0.591  -0.570  -0.561  -0.559  -0.539  -0.531  -0.515
 57 A    58 A    59 A    60 A    61 A    62 A    63 A    64 A                  
 -0.504  -0.499  -0.479  -0.476  -0.465  -0.462  -0.366  -0.337
 65 A    66 A    67 A    68 A    69 A    70 A    71 A    72 A                  
 -- Virtual --                   
  0.055   0.074   0.077   0.080   0.087   0.089   0.090   0.094
 73 A    74 A    75 A    76 A    77 A    78 A    79 A    80 A                  
  0.100   0.107   0.108   0.112   0.122   0.123   0.129   0.130
 81 A    82 A    83 A    84 A    85 A    86 A    87 A    88 A                  
  0.140   0.145   0.147   0.153   0.158   0.159   0.164   0.178
 89 A    90 A    91 A    92 A    93 A    94 A    95 A    96 A                  
  0.181   0.186   0.190   0.200   0.203   0.206   0.209   0.213
 97 A    98 A    99 A   100 A   101 A   102 A   103 A   104 A                  
  0.228   0.234   0.241   0.245   0.251   0.253   0.259   0.267
105 A   106 A   107 A   108 A   109 A   110 A   111 A   112 A                  
  0.269   0.283   0.288   0.292   0.294   0.304   0.307   0.315
113 A   114 A   115 A   116 A   117 A   118 A   119 A   120 A                  
  0.320   0.329   0.330   0.335   0.336   0.339   0.346   0.359
121 A   122 A   123 A   124 A   125 A   126 A   127 A   128 A                  
  0.364   0.371   0.375   0.379   0.383   0.387   0.398   0.403
129 A   130 A   131 A   132 A   133 A   134 A   135 A   136 A                  
  0.408   0.411   0.415   0.418   0.419   0.423   0.424   0.429
137 A   138 A   139 A   140 A   141 A   142 A   143 A   144 A                  
  0.436   0.447   0.453   0.453   0.458   0.465   0.477   0.478
145 A   146 A   147 A   148 A   149 A   150 A   151 A   152 A                  
  0.486   0.489   0.494   0.498   0.507   0.518   0.525   0.536
153 A   154 A   155 A   156 A   157 A   158 A   159 A   160 A                  
  0.544   0.553   0.563   0.567   0.577   0.582   0.595   0.609
161 A   162 A   163 A   164 A   165 A   166 A   167 A   168 A                  
  0.617   0.625   0.653   0.664   0.684   0.715   0.767   0.778
169 A   170 A   171 A   172 A   173 A   174 A   175 A   176 A                  
  0.812   0.822   0.842   0.846   0.860   0.883   0.895   0.912
177 A   178 A   179 A   180 A   181 A   182 A   183 A   184 A                  
  0.919   0.922   0.928   0.934   0.943   0.946   0.959   0.971
185 A   186 A   187 A   188 A   189 A   190 A   191 A   192 A                  
  0.979   0.989   0.996   1.011   1.017   1.022   1.050   1.056
193 A   194 A   195 A   196 A   197 A   198 A   199 A   200 A                  
  1.083   1.089   1.092   1.101   1.115   1.146   1.150   1.162
201 A   202 A   203 A   204 A   205 A   206 A   207 A   208 A                  
  1.171   1.175   1.189   1.198   1.202   1.216   1.225   1.234
209 A   210 A   211 A   212 A   213 A   214 A   215 A   216 A                  
  1.253   1.272   1.283   1.300   1.305   1.335   1.345   1.356
217 A   218 A   219 A   220 A   221 A   222 A   223 A   224 A                  
  1.369   1.385   1.393   1.399   1.417   1.430   1.448   1.457
225 A   226 A   227 A   228 A   229 A   230 A   231 A   232 A                  
  1.469   1.470   1.471   1.500   1.512   1.533   1.551   1.565
233 A   234 A   235 A   236 A   237 A   238 A   239 A   240 A                  
  1.592   1.600   1.606   1.619   1.646   1.668   1.674   1.696
241 A   242 A   243 A   244 A   245 A   246 A   247 A   248 A                  
  1.700   1.717   1.726   1.755   1.780   1.786   1.799   1.822
249 A   250 A   251 A   252 A   253 A   254 A   255 A   256 A                  
  1.834   1.849   1.882   1.893   1.919   1.938   1.952   1.958
257 A   258 A   259 A   260 A   261 A   262 A   263 A   264 A                  
  1.961   1.965   1.985   1.994   2.011   2.013   2.036   2.065
265 A   266 A   267 A   268 A   269 A   270 A   271 A   272 A                  
  2.080   2.082   2.084   2.108   2.120   2.128   2.138   2.149
273 A   274 A   275 A   276 A   277 A   278 A   279 A   280 A                  
  2.154   2.171   2.181   2.190   2.199   2.225   2.259   2.266
281 A   282 A   283 A   284 A   285 A   286 A   287 A   288 A                  
  2.275   2.291   2.301   2.310   2.317   2.331   2.355   2.359
289 A   290 A   291 A   292 A   293 A   294 A   295 A   296 A                  
  2.365   2.379   2.385   2.393   2.401   2.426   2.443   2.467
297 A   298 A   299 A   300 A   301 A   302 A   303 A   304 A                  
  2.489   2.492   2.512   2.521   2.546   2.562   2.568   2.587
305 A   306 A   307 A   308 A   309 A   310 A   311 A   312 A                  
  2.592   2.603   2.671   2.676   2.706   2.710   2.736   2.738
313 A   314 A   315 A   316 A   317 A   318 A   319 A   320 A                  
  2.749   2.830   2.841   2.862   2.938   2.948   2.963   2.967
321 A   322 A   323 A   324 A   325 A   326 A   327 A   328 A                  
  3.023   3.048   3.073   3.087   3.090   3.119   3.143   3.150
329 A   330 A   331 A   332 A   333 A   334 A   335 A   336 A                  
  3.189   3.255   3.292   3.325   3.385   3.459   3.511   3.558
337 A   338 A   339 A   340 A   341 A   342 A   343 A   344 A                  
  3.571   3.610   3.638   3.723   3.807   4.605   4.661   4.685
345 A   346 A   347 A   348 A   349 A   350 A   351 A   352 A                  
  4.709   4.753   4.776   4.797   4.834   4.857   4.890   4.970
353 A   354 A   355 A   356 A   357 A   358 A   359 A   360 A                  
  4.980   5.034   5.110   5.206   6.131   6.336   6.988
361 A   362 A   363 A   364 A   365 A   366 A   367 A                          

 Occupation and symmetry of molecular orbitals

 Point group: C1 (1 irreducible representation).

                           A     All 
 -------------------------------------
 All molecular orbitals:
  - Alpha                  367   367 
  - Beta                   367   367 
 -------------------------------------
 Alpha orbitals:
  - Frozen occupied        22    22  
  - Active occupied        50    50  
  - Active virtual         295   295 
  - Frozen virtual         0     0   
 -------------------------------------
 Beta orbitals:
  - Frozen occupied        22    22  
  - Active occupied        50    50  
  - Active virtual         295   295 
  - Frozen virtual         0     0   
 -------------------------------------

 Import integrals:   CPU 0.00 s  wall 0.00 s

 Import integrals:   CPU 1559.63 s  wall 601.42 s

 MP2 amplitudes:   CPU 23.65 s  wall 68.06 s

           CCSD T amplitudes will be solved using DIIS.

           Start     Size      MaxIter   EConv     TConv     
           3         7         100       1.00e-06  1.00e-04  
 ------------------------------------------------------------------------------
           Energy (a.u.)   Ediff      Tdiff       Comment
 ------------------------------------------------------------------------------
         -1387.59460602                           
     1   -1387.58332873   1.13e-02   1.48e+00     Step took 46.31.
     2   -1387.66216570   7.88e-02   2.01e-01     
     3   -1387.66112262   1.04e-03   7.43e-02     
     4   -1387.66888346   7.76e-03   2.42e-02     Switched to DIIS steps.
     5   -1387.67149902   2.62e-03   1.65e-02     
     6   -1387.67164317   1.44e-04   3.24e-03     
     7   -1387.67162524   1.79e-05   1.66e-03     
     8   -1387.67161619   9.05e-06   4.26e-04     
     9   -1387.67161669   4.92e-07   1.60e-04     
    10   -1387.67161655   1.38e-07   4.23e-05     
 ------------------------------------------------------------------------------
         -1387.67161655                           CCSD T converged.


 ------------------------------------------------------------------------------
 == (T) code is based on LIBPT ==
 == Author: Ilya Kaliman, 2016 ==

 Starting (T) calculation...
 (T) calculation completed in 69754 sec
 ------------------------------------------------------------------------------

 SCF energy                 = -1385.00491445
 MP2 energy                 = -1387.59460602
 CCSD correlation energy     =    -2.66670210
 CCSD total energy           = -1387.67161655
 CCSD(T) correlation energy =    -0.09922687
 CCSD(T) total energy       = -1387.77084341

 CCSD  T1^2 = 0.0364  T2^2 = 0.8846  Leading amplitudes:

 Amplitude    Orbitals with energies
  0.0224       54 (A) A                  ->    105 (A) A                  
              -0.6443                          0.2277                     
  0.0224       54 (A) B                  ->    105 (A) B                  
              -0.6443                          0.2277                     
  0.0213       47 (A) A                  ->    105 (A) A                  
              -0.7115                          0.2277                     
  0.0213       47 (A) B                  ->    105 (A) B                  
              -0.7115                          0.2277                     

 Amplitude    Orbitals with energies
 -0.0604       71 (A) A      71 (A) B    ->    76 (A) A      76 (A) B     
              -0.3658       -0.3658            0.0802        0.0802       
  0.0604       71 (A) A      71 (A) B    ->    76 (A) B      76 (A) A     
              -0.3658       -0.3658            0.0802        0.0802       
  0.0604       71 (A) B      71 (A) A    ->    76 (A) A      76 (A) B     
              -0.3658       -0.3658            0.0802        0.0802       
 -0.0604       71 (A) B      71 (A) A    ->    76 (A) B      76 (A) A     
              -0.3658       -0.3658            0.0802        0.0802       

 CCSD calculation:   CPU 344371.83 s  wall 99752.75 s

 Total ccman2 time:   CPU 345974.96 s  wall 100445.27 s

 
 --------------------------------------------------------------
 
                    Orbital Energies (a.u.)
 --------------------------------------------------------------
 
 Alpha MOs
 -- Occupied --
******* -26.362 -26.361 -26.356 -20.632 -20.568 -15.637 -11.528
-11.436 -11.329 -11.328 -11.303 -11.291 -11.276 -11.272 -11.266
-11.243 -11.234 -10.573  -8.042  -8.039  -8.039  -1.743  -1.647
 -1.642  -1.495  -1.388  -1.293  -1.211  -1.147  -1.092  -1.070
 -1.028  -0.981  -0.964  -0.897  -0.875  -0.841  -0.831  -0.826
 -0.825  -0.785  -0.769  -0.724  -0.720  -0.716  -0.712  -0.709
 -0.682  -0.669  -0.668  -0.655  -0.654  -0.644  -0.623  -0.616
 -0.603  -0.591  -0.570  -0.561  -0.559  -0.539  -0.531  -0.515
 -0.504  -0.499  -0.479  -0.476  -0.465  -0.462  -0.366  -0.337
 -- Virtual --
  0.055   0.074   0.077   0.080   0.087   0.089   0.090   0.094
  0.100   0.107   0.108   0.112   0.122   0.123   0.129   0.130
  0.140   0.145   0.147   0.153   0.158   0.159   0.164   0.178
  0.181   0.186   0.190   0.200   0.203   0.206   0.209   0.213
  0.228   0.234   0.241   0.245   0.251   0.253   0.259   0.267
  0.269   0.283   0.288   0.292   0.294   0.304   0.307   0.315
  0.320   0.329   0.330   0.335   0.336   0.339   0.346   0.359
  0.364   0.371   0.375   0.379   0.383   0.387   0.398   0.403
  0.408   0.411   0.415   0.418   0.419   0.423   0.424   0.429
  0.436   0.447   0.453   0.453   0.458   0.465   0.477   0.478
  0.486   0.489   0.494   0.498   0.507   0.518   0.525   0.536
  0.544   0.553   0.563   0.567   0.577   0.582   0.595   0.609
  0.617   0.625   0.653   0.664   0.684   0.715   0.767   0.778
  0.812   0.822   0.842   0.846   0.860   0.883   0.895   0.912
  0.919   0.922   0.928   0.934   0.943   0.946   0.959   0.971
  0.979   0.989   0.996   1.011   1.017   1.022   1.050   1.056
  1.083   1.089   1.092   1.101   1.115   1.146   1.150   1.162
  1.171   1.175   1.189   1.198   1.202   1.216   1.225   1.234
  1.253   1.272   1.283   1.300   1.305   1.335   1.345   1.356
  1.369   1.385   1.393   1.399   1.417   1.430   1.448   1.457
  1.469   1.470   1.471   1.500   1.512   1.533   1.551   1.565
  1.592   1.600   1.606   1.619   1.646   1.668   1.674   1.696
  1.700   1.717   1.726   1.755   1.780   1.786   1.799   1.822
  1.834   1.849   1.882   1.893   1.919   1.938   1.952   1.958
  1.961   1.965   1.985   1.994   2.011   2.013   2.036   2.065
  2.080   2.082   2.084   2.108   2.120   2.128   2.138   2.149
  2.154   2.171   2.181   2.190   2.199   2.225   2.259   2.266
  2.275   2.291   2.301   2.310   2.317   2.331   2.355   2.359
  2.365   2.379   2.385   2.393   2.401   2.426   2.443   2.467
  2.489   2.492   2.512   2.521   2.546   2.562   2.568   2.587
  2.592   2.603   2.671   2.676   2.706   2.710   2.736   2.738
  2.749   2.830   2.841   2.862   2.938   2.948   2.963   2.967
  3.023   3.048   3.073   3.087   3.090   3.119   3.143   3.150
  3.189   3.255   3.292   3.325   3.385   3.459   3.511   3.558
  3.571   3.610   3.638   3.723   3.807   4.605   4.661   4.685
  4.709   4.753   4.776   4.797   4.834   4.857   4.890   4.970
  4.980   5.034   5.110   5.206   6.131   6.336   6.988
 --------------------------------------------------------------
 
          Ground-State Mulliken Net Atomic Charges

     Atom                 Charge (a.u.)
  ----------------------------------------
      1 C                    -0.138022
      2 N                    -0.924066
      3 C                     0.725378
      4 O                    -0.583799
      5 O                    -0.487747
      6 C                     0.031132
      7 C                    -0.271220
      8 C                    -0.691517
      9 C                    -0.086724
     10 C                    -1.417219
     11 C                    -0.264100
     12 C                     0.194685
     13 C                     0.140267
     14 H                     0.500185
     15 H                     0.211731
     16 H                     0.212033
     17 H                     0.204500
     18 H                     0.204452
     19 H                     0.196516
     20 H                     0.204429
     21 H                     0.196501
     22 H                     0.261960
     23 Cl                    0.263424
     24 H                     0.331698
     25 C                     1.861199
     26 H                     0.290671
     27 F                    -0.395224
     28 F                    -0.362642
     29 F                    -0.408483
  ----------------------------------------
  Sum of atomic charges =     0.000000

 -----------------------------------------------------------------
                    Cartesian Multipole Moments
 -----------------------------------------------------------------
    Charge (ESU x 10^10)
                -0.0000
    Dipole Moment (Debye)
         X      -4.1224      Y       2.2524      Z       0.1013
       Tot       4.6987
    Quadrupole Moments (Debye-Ang)
        XX    -104.1258     XY      -9.3309     YY    -118.2264
        XZ       0.3137     YZ       0.1440     ZZ    -113.7582
    Octopole Moments (Debye-Ang^2)
       XXX     -85.3095    XXY       0.2285    XYY       5.8910
       YYY      41.0886    XXZ       0.2590    XYZ       1.0167
       YYZ      -0.7226    XZZ       4.9579    YZZ       7.8544
       ZZZ       0.8811
    Hexadecapole Moments (Debye-Ang^3)
      XXXX   -7854.5793   XXXY     -59.5680   XXYY   -1773.4717
      XYYY      81.7948   YYYY   -1911.1286   XXXZ      -4.6666
      XXYZ       4.2776   XYYZ      -0.7554   YYYZ      -3.6405
      XXZZ   -1426.4859   XYZZ      38.2536   YYZZ    -360.9447
      XZZZ       4.2414   YZZZ       2.3614   ZZZZ    -201.5891
 -----------------------------------------------------------------
Archival summary:
1\1\r4453\SP\ProcedureUnspecified\6-31+G*\l13211111\hio507\TueDec1015:52:362019TueDec1015:52:362019\0\\#,ProcedureUnspecified,6-31+G*,\\0,1\Cl\C,1,1.73954\C,2,1.38628,1,118.847\H,3,1.08209,2,120.974,1,-0.230172,0\C,2,1.38862,1,118.492,3,-179.821,0\H,5,1.07942,2,120.488,1,-0.00212547,0\C,3,1.38956,2,117.55,1,-179.759,0\C,7,1.38445,3,121.584,2,-0.105625,0\H,8,1.08447,7,119.906,3,179.619,0\C,5,1.39736,2,118.685,1,179.793,0\N,10,1.39889,5,123.173,2,-179.806,0\H,11,1.0093,10,117.247,5,-179.796,0\C,11,1.37301,10,127.565,5,0.403504,0\O,13,1.2032,11,126.437,10,-0.0907582,0\O,13,1.34269,11,108.813,10,179.912,0\C,15,1.43636,13,115.437,11,-179.985,0\H,16,1.09269,15,108.802,13,-58.61,0\H,16,1.0927,15,108.801,13,58.699,0\C,7,1.50322,3,119.132,2,-177.286,0\F,19,1.33827,7,111.963,3,-32.714,0\F,19,1.34056,7,111.999,3,-153.535,0\F,19,1.34297,7,111.448,3,86.928,0\C,16,1.51334,15,107.646,13,-179.955,0\H,23,1.09336,16,108.999,15,-58.2272,0\H,23,1.09336,16,108.995,15,58.2251,0\C,23,1.52625,16,110.929,15,179.998,0\H,26,1.09062,23,111.016,16,-179.993,0\H,26,1.09268,23,111.303,16,-60.0818,0\H,26,1.09268,23,111.304,16,60.0957,0\\HF=-1385.00491\\@

 Total job time:  100507.16s(wall), 346204.06s(cpu) 
 Tue Dec 10 15:52:36 2019

        *************************************************************
        *                                                           *
        *  Thank you very much for using Q-Chem.  Have a nice day.  *
        *                                                           *
        *************************************************************


0 sent ACK to 0 
now end server 0 ... 
