 Entering Gaussian System, Link 0=/apps/gaussian/g09e01/g09/g09
 Initial command:
 /apps/gaussian/g09e01/g09/l1.exe "/jobfs/local/3588868.r-man2/Gau-491.inp" -scrdir="/jobfs/local/3588868.r-man2/"
 Entering Link 1 = /apps/gaussian/g09e01/g09/l1.exe PID=       492.
  
 Copyright (c) 1988,1990,1992,1993,1995,1998,2003,2009,2015,
            Gaussian, Inc.  All Rights Reserved.
  
 This is part of the Gaussian(R) 09 program.  It is based on
 the Gaussian(R) 03 system (copyright 2003, Gaussian, Inc.),
 the Gaussian(R) 98 system (copyright 1998, Gaussian, Inc.),
 the Gaussian(R) 94 system (copyright 1995, Gaussian, Inc.),
 the Gaussian 92(TM) system (copyright 1992, Gaussian, Inc.),
 the Gaussian 90(TM) system (copyright 1990, Gaussian, Inc.),
 the Gaussian 88(TM) system (copyright 1988, Gaussian, Inc.),
 the Gaussian 86(TM) system (copyright 1986, Carnegie Mellon
 University), and the Gaussian 82(TM) system (copyright 1983,
 Carnegie Mellon University). Gaussian is a federally registered
 trademark of Gaussian, Inc.
  
 This software contains proprietary and confidential information,
 including trade secrets, belonging to Gaussian, Inc.
  
 This software is provided under written license and may be
 used, copied, transmitted, or stored only in accord with that
 written license.
  
 The following legend is applicable only to US Government
 contracts under FAR:
  
                    RESTRICTED RIGHTS LEGEND
  
 Use, reproduction and disclosure by the US Government is
 subject to restrictions as set forth in subparagraphs (a)
 and (c) of the Commercial Computer Software - Restricted
 Rights clause in FAR 52.227-19.
  
 Gaussian, Inc.
 340 Quinnipiac St., Bldg. 40, Wallingford CT 06492
  
  
 ---------------------------------------------------------------
 Warning -- This program may not be used in any manner that
 competes with the business of Gaussian, Inc. or will provide
 assistance to any competitor of Gaussian, Inc.  The licensee
 of this program is prohibited from giving any competitor of
 Gaussian, Inc. access to this program.  By using this program,
 the user acknowledges that Gaussian, Inc. is engaged in the
 business of creating and licensing software in the field of
 computational chemistry and represents and warrants to the
 licensee that it is not a competitor of Gaussian, Inc. and that
 it will not use this program in any manner prohibited above.
 ---------------------------------------------------------------
  

 Cite this work as:
 Gaussian 09, Revision E.01,
 M. J. Frisch, G. W. Trucks, H. B. Schlegel, G. E. Scuseria, 
 M. A. Robb, J. R. Cheeseman, G. Scalmani, V. Barone, B. Mennucci, 
 G. A. Petersson, H. Nakatsuji, M. Caricato, X. Li, H. P. Hratchian, 
 A. F. Izmaylov, J. Bloino, G. Zheng, J. L. Sonnenberg, M. Hada, 
 M. Ehara, K. Toyota, R. Fukuda, J. Hasegawa, M. Ishida, T. Nakajima, 
 Y. Honda, O. Kitao, H. Nakai, T. Vreven, J. A. Montgomery, Jr., 
 J. E. Peralta, F. Ogliaro, M. Bearpark, J. J. Heyd, E. Brothers, 
 K. N. Kudin, V. N. Staroverov, T. Keith, R. Kobayashi, J. Normand, 
 K. Raghavachari, A. Rendell, J. C. Burant, S. S. Iyengar, J. Tomasi, 
 M. Cossi, N. Rega, J. M. Millam, M. Klene, J. E. Knox, J. B. Cross, 
 V. Bakken, C. Adamo, J. Jaramillo, R. Gomperts, R. E. Stratmann, 
 O. Yazyev, A. J. Austin, R. Cammi, C. Pomelli, J. W. Ochterski, 
 R. L. Martin, K. Morokuma, V. G. Zakrzewski, G. A. Voth, 
 P. Salvador, J. J. Dannenberg, S. Dapprich, A. D. Daniels, 
 O. Farkas, J. B. Foresman, J. V. Ortiz, J. Cioslowski, 
 and D. J. Fox, Gaussian, Inc., Wallingford CT, 2013.
 
 ******************************************
 Gaussian 09:  ES64L-G09RevE.01 30-Nov-2015
                14-Nov-2019 
 ******************************************
 %chk=NM3CA_c2.M062X_6-311pGd_opt_water_GD3.chk
 %mem=196608000
 %nproc=4
 Will use up to    4 processors via shared memory.
 ----------------------------------------------------------------------
 # M062X/6-311+G* SCF=Tight INT(grid=ultrafine) OPT IOP(2/17=4) Empiric
 alDispersion=GD3 SCRF=(SMD,Solvent=h2o) maxdisk=2147483648
 ----------------------------------------------------------------------
 1/14=-1,18=20,19=15,26=4,38=1/1,3;
 2/9=110,12=2,17=4,18=5,40=1/2;
 3/5=4,6=6,7=11,11=2,16=1,25=1,30=1,70=32201,71=1,72=1,74=-55,75=-5,124=31/1,2,3;
 4//1;
 5/5=2,32=2,38=5,53=1/2;
 6/7=2,8=2,9=2,10=2,28=1/1;
 7//1,2,3,16;
 1/14=-1,18=20,19=15,26=4/3(2);
 2/9=110,17=4/2;
 99//99;
 2/9=110,17=4/2;
 3/5=4,6=6,7=11,11=2,16=1,25=1,30=1,70=32205,71=1,72=1,74=-55,75=-5,124=31/1,2,3;
 4/5=5,16=3,69=1/1;
 5/5=2,32=2,38=5,53=1/2;
 7//1,2,3,16;
 1/14=-1,18=20,19=15,26=4/3(-5);
 2/9=110,17=4/2;
 6/7=2,8=2,9=2,10=2,19=2,28=1/1;
 99/9=1/99;
 -------------------------------------
 NM3CA_c2.M062X_6-311pGd_opt_water_GD3
 -------------------------------------
 Symbolic Z-matrix:
 Charge =  0 Multiplicity = 1
 C                    -5.9333    1.50514   0.11561 
 N                    -4.6853    0.89531  -0.04918 
 C                    -3.45604   1.46341   0.1078 
 O                    -3.23703   2.62324   0.39584 
 O                    -2.50407   0.54742  -0.10207 
 C                    -1.14075   1.00322   0.03218 
 C                    -0.23657  -0.17814  -0.23647 
 C                     1.22715   0.23246  -0.11817 
 C                    -7.04903   0.65839   0.12127 
 C                    -8.31317   1.19757   0.26387 
 C                    -8.51905   2.5683    0.40814 
 C                    -7.3991    3.37879   0.39666 
 C                    -6.10863   2.88255   0.24983 
 H                    -4.68925  -0.09926  -0.24171 
 H                    -1.00166   1.3931    1.04257 
 H                    -0.97163   1.80939  -0.68472 
 H                    -0.44201  -0.56589  -1.23796 
 H                    -0.46599  -0.97445   0.47682 
 H                     1.47497   1.0182   -0.83623 
 H                     1.8856   -0.6161   -0.31067 
 H                     1.45106   0.60959   0.88286 
 H                    -6.90857  -0.41102   0.01489 
 Cl                   -7.60626   5.10378   0.56758 
 H                    -5.26729   3.55811   0.23501 
 C                    -9.52091   0.30725   0.26438 
 H                    -9.51373   2.98174   0.52337 
 F                    -10.24534   0.45082   1.38829 
 F                    -10.35037   0.59268  -0.75585 
 F                    -9.21255  -0.99048   0.16241 
 

 GradGradGradGradGradGradGradGradGradGradGradGradGradGradGradGradGradGrad
 Berny optimization.
 Initialization pass.
                           ----------------------------
                           !    Initial Parameters    !
                           ! (Angstroms and Degrees)  !
 --------------------------                            --------------------------
 ! Name  Definition              Value          Derivative Info.                !
 --------------------------------------------------------------------------------
 ! R1    R(1,2)                  1.3988         estimate D2E/DX2                !
 ! R2    R(1,9)                  1.4007         estimate D2E/DX2                !
 ! R3    R(1,13)                 1.395          estimate D2E/DX2                !
 ! R4    R(2,3)                  1.3632         estimate D2E/DX2                !
 ! R5    R(2,14)                 1.013          estimate D2E/DX2                !
 ! R6    R(3,4)                  1.215          estimate D2E/DX2                !
 ! R7    R(3,5)                  1.3377         estimate D2E/DX2                !
 ! R8    R(5,6)                  1.4437         estimate D2E/DX2                !
 ! R9    R(6,7)                  1.5117         estimate D2E/DX2                !
 ! R10   R(6,15)                 1.0919         estimate D2E/DX2                !
 ! R11   R(6,16)                 1.092          estimate D2E/DX2                !
 ! R12   R(7,8)                  1.5248         estimate D2E/DX2                !
 ! R13   R(7,17)                 1.0934         estimate D2E/DX2                !
 ! R14   R(7,18)                 1.0934         estimate D2E/DX2                !
 ! R15   R(8,19)                 1.0929         estimate D2E/DX2                !
 ! R16   R(8,20)                 1.0912         estimate D2E/DX2                !
 ! R17   R(8,21)                 1.0929         estimate D2E/DX2                !
 ! R18   R(9,10)                 1.3817         estimate D2E/DX2                !
 ! R19   R(9,22)                 1.0838         estimate D2E/DX2                !
 ! R20   R(10,11)                1.3936         estimate D2E/DX2                !
 ! R21   R(10,25)                1.5004         estimate D2E/DX2                !
 ! R22   R(11,12)                1.3825         estimate D2E/DX2                !
 ! R23   R(11,26)                1.0833         estimate D2E/DX2                !
 ! R24   R(12,13)                1.3904         estimate D2E/DX2                !
 ! R25   R(12,23)                1.7458         estimate D2E/DX2                !
 ! R26   R(13,24)                1.0791         estimate D2E/DX2                !
 ! R27   R(25,27)                1.3448         estimate D2E/DX2                !
 ! R28   R(25,28)                1.3455         estimate D2E/DX2                !
 ! R29   R(25,29)                1.3377         estimate D2E/DX2                !
 ! A1    A(2,1,9)              116.5914         estimate D2E/DX2                !
 ! A2    A(2,1,13)             123.6385         estimate D2E/DX2                !
 ! A3    A(9,1,13)             119.7627         estimate D2E/DX2                !
 ! A4    A(1,2,3)              127.5371         estimate D2E/DX2                !
 ! A5    A(1,2,14)             116.5472         estimate D2E/DX2                !
 ! A6    A(3,2,14)             115.7551         estimate D2E/DX2                !
 ! A7    A(2,3,4)              125.9909         estimate D2E/DX2                !
 ! A8    A(2,3,5)              109.7733         estimate D2E/DX2                !
 ! A9    A(4,3,5)              124.2358         estimate D2E/DX2                !
 ! A10   A(3,5,6)              116.1836         estimate D2E/DX2                !
 ! A11   A(5,6,7)              107.5508         estimate D2E/DX2                !
 ! A12   A(5,6,15)             108.6064         estimate D2E/DX2                !
 ! A13   A(5,6,16)             108.5581         estimate D2E/DX2                !
 ! A14   A(7,6,15)             111.5484         estimate D2E/DX2                !
 ! A15   A(7,6,16)             111.5688         estimate D2E/DX2                !
 ! A16   A(15,6,16)            108.9151         estimate D2E/DX2                !
 ! A17   A(6,7,8)              110.4828         estimate D2E/DX2                !
 ! A18   A(6,7,17)             109.1181         estimate D2E/DX2                !
 ! A19   A(6,7,18)             109.1295         estimate D2E/DX2                !
 ! A20   A(8,7,17)             110.2988         estimate D2E/DX2                !
 ! A21   A(8,7,18)             110.2986         estimate D2E/DX2                !
 ! A22   A(17,7,18)            107.4473         estimate D2E/DX2                !
 ! A23   A(7,8,19)             111.1183         estimate D2E/DX2                !
 ! A24   A(7,8,20)             110.8648         estimate D2E/DX2                !
 ! A25   A(7,8,21)             111.1406         estimate D2E/DX2                !
 ! A26   A(19,8,20)            107.8396         estimate D2E/DX2                !
 ! A27   A(19,8,21)            107.8937         estimate D2E/DX2                !
 ! A28   A(20,8,21)            107.8363         estimate D2E/DX2                !
 ! A29   A(1,9,10)             119.5579         estimate D2E/DX2                !
 ! A30   A(1,9,22)             119.529          estimate D2E/DX2                !
 ! A31   A(10,9,22)            120.913          estimate D2E/DX2                !
 ! A32   A(9,10,11)            121.9832         estimate D2E/DX2                !
 ! A33   A(9,10,25)            120.3261         estimate D2E/DX2                !
 ! A34   A(11,10,25)           117.6906         estimate D2E/DX2                !
 ! A35   A(10,11,12)           117.1356         estimate D2E/DX2                !
 ! A36   A(10,11,26)           121.4681         estimate D2E/DX2                !
 ! A37   A(12,11,26)           121.3964         estimate D2E/DX2                !
 ! A38   A(11,12,13)           122.9239         estimate D2E/DX2                !
 ! A39   A(11,12,23)           118.8376         estimate D2E/DX2                !
 ! A40   A(13,12,23)           118.2381         estimate D2E/DX2                !
 ! A41   A(1,13,12)            118.6348         estimate D2E/DX2                !
 ! A42   A(1,13,24)            121.2543         estimate D2E/DX2                !
 ! A43   A(12,13,24)           120.1098         estimate D2E/DX2                !
 ! A44   A(10,25,27)           111.748          estimate D2E/DX2                !
 ! A45   A(10,25,28)           111.7206         estimate D2E/DX2                !
 ! A46   A(10,25,29)           112.9582         estimate D2E/DX2                !
 ! A47   A(27,25,28)           106.1986         estimate D2E/DX2                !
 ! A48   A(27,25,29)           106.9441         estimate D2E/DX2                !
 ! A49   A(28,25,29)           106.8634         estimate D2E/DX2                !
 ! D1    D(9,1,2,3)           -169.411          estimate D2E/DX2                !
 ! D2    D(9,1,2,14)             5.7539         estimate D2E/DX2                !
 ! D3    D(13,1,2,3)            11.5868         estimate D2E/DX2                !
 ! D4    D(13,1,2,14)         -173.2484         estimate D2E/DX2                !
 ! D5    D(2,1,9,10)          -179.2284         estimate D2E/DX2                !
 ! D6    D(2,1,9,22)             0.8447         estimate D2E/DX2                !
 ! D7    D(13,1,9,10)           -0.1853         estimate D2E/DX2                !
 ! D8    D(13,1,9,22)          179.8878         estimate D2E/DX2                !
 ! D9    D(2,1,13,12)          179.4405         estimate D2E/DX2                !
 ! D10   D(2,1,13,24)           -0.1753         estimate D2E/DX2                !
 ! D11   D(9,1,13,12)            0.4683         estimate D2E/DX2                !
 ! D12   D(9,1,13,24)         -179.1475         estimate D2E/DX2                !
 ! D13   D(1,2,3,4)             -1.6377         estimate D2E/DX2                !
 ! D14   D(1,2,3,5)            178.288          estimate D2E/DX2                !
 ! D15   D(14,2,3,4)          -176.8354         estimate D2E/DX2                !
 ! D16   D(14,2,3,5)             3.0903         estimate D2E/DX2                !
 ! D17   D(2,3,5,6)           -179.8819         estimate D2E/DX2                !
 ! D18   D(4,3,5,6)              0.0454         estimate D2E/DX2                !
 ! D19   D(3,5,6,7)            179.7191         estimate D2E/DX2                !
 ! D20   D(3,5,6,15)            58.8592         estimate D2E/DX2                !
 ! D21   D(3,5,6,16)           -59.424          estimate D2E/DX2                !
 ! D22   D(5,6,7,8)            179.7329         estimate D2E/DX2                !
 ! D23   D(5,6,7,17)            58.3047         estimate D2E/DX2                !
 ! D24   D(5,6,7,18)           -58.8317         estimate D2E/DX2                !
 ! D25   D(15,6,7,8)           -61.2755         estimate D2E/DX2                !
 ! D26   D(15,6,7,17)          177.2963         estimate D2E/DX2                !
 ! D27   D(15,6,7,18)           60.1599         estimate D2E/DX2                !
 ! D28   D(16,6,7,8)            60.7885         estimate D2E/DX2                !
 ! D29   D(16,6,7,17)          -60.6397         estimate D2E/DX2                !
 ! D30   D(16,6,7,18)         -177.7761         estimate D2E/DX2                !
 ! D31   D(6,7,8,19)           -60.1063         estimate D2E/DX2                !
 ! D32   D(6,7,8,20)           179.9814         estimate D2E/DX2                !
 ! D33   D(6,7,8,21)            60.0585         estimate D2E/DX2                !
 ! D34   D(17,7,8,19)           60.6201         estimate D2E/DX2                !
 ! D35   D(17,7,8,20)          -59.2921         estimate D2E/DX2                !
 ! D36   D(17,7,8,21)         -179.2151         estimate D2E/DX2                !
 ! D37   D(18,7,8,19)          179.1531         estimate D2E/DX2                !
 ! D38   D(18,7,8,20)           59.2408         estimate D2E/DX2                !
 ! D39   D(18,7,8,21)          -60.6821         estimate D2E/DX2                !
 ! D40   D(1,9,10,11)           -0.2143         estimate D2E/DX2                !
 ! D41   D(1,9,10,25)          179.6484         estimate D2E/DX2                !
 ! D42   D(22,9,10,11)         179.7116         estimate D2E/DX2                !
 ! D43   D(22,9,10,25)          -0.4257         estimate D2E/DX2                !
 ! D44   D(9,10,11,12)           0.3088         estimate D2E/DX2                !
 ! D45   D(9,10,11,26)        -179.751          estimate D2E/DX2                !
 ! D46   D(25,10,11,12)       -179.5573         estimate D2E/DX2                !
 ! D47   D(25,10,11,26)          0.3829         estimate D2E/DX2                !
 ! D48   D(9,10,25,27)         122.7462         estimate D2E/DX2                !
 ! D49   D(9,10,25,28)        -118.4236         estimate D2E/DX2                !
 ! D50   D(9,10,25,29)           2.0989         estimate D2E/DX2                !
 ! D51   D(11,10,25,27)        -57.3853         estimate D2E/DX2                !
 ! D52   D(11,10,25,28)         61.4449         estimate D2E/DX2                !
 ! D53   D(11,10,25,29)       -178.0327         estimate D2E/DX2                !
 ! D54   D(10,11,12,13)         -0.0081         estimate D2E/DX2                !
 ! D55   D(10,11,12,23)        179.755          estimate D2E/DX2                !
 ! D56   D(26,11,12,13)       -179.9483         estimate D2E/DX2                !
 ! D57   D(26,11,12,23)         -0.1852         estimate D2E/DX2                !
 ! D58   D(11,12,13,1)          -0.3771         estimate D2E/DX2                !
 ! D59   D(11,12,13,24)        179.2431         estimate D2E/DX2                !
 ! D60   D(23,12,13,1)         179.8584         estimate D2E/DX2                !
 ! D61   D(23,12,13,24)         -0.5213         estimate D2E/DX2                !
 --------------------------------------------------------------------------------
 Trust Radius=3.00D-01 FncErr=1.00D-07 GrdErr=1.00D-06
 Number of steps in this run=    149 maximum allowed number of steps=    174.
 GradGradGradGradGradGradGradGradGradGradGradGradGradGradGradGradGradGrad

                          Input orientation:                          
 ---------------------------------------------------------------------
 Center     Atomic      Atomic             Coordinates (Angstroms)
 Number     Number       Type             X           Y           Z
 ---------------------------------------------------------------------
      1          6           0       -5.933300    1.505138    0.115606
      2          7           0       -4.685302    0.895312   -0.049181
      3          6           0       -3.456044    1.463407    0.107798
      4          8           0       -3.237029    2.623240    0.395842
      5          8           0       -2.504070    0.547420   -0.102073
      6          6           0       -1.140754    1.003220    0.032182
      7          6           0       -0.236572   -0.178140   -0.236467
      8          6           0        1.227149    0.232460   -0.118165
      9          6           0       -7.049031    0.658385    0.121265
     10          6           0       -8.313172    1.197566    0.263868
     11          6           0       -8.519046    2.568302    0.408137
     12          6           0       -7.399098    3.378787    0.396661
     13          6           0       -6.108629    2.882552    0.249826
     14          1           0       -4.689254   -0.099262   -0.241707
     15          1           0       -1.001663    1.393098    1.042568
     16          1           0       -0.971634    1.809392   -0.684723
     17          1           0       -0.442013   -0.565889   -1.237963
     18          1           0       -0.465990   -0.974454    0.476824
     19          1           0        1.474969    1.018197   -0.836227
     20          1           0        1.885602   -0.616096   -0.310666
     21          1           0        1.451065    0.609587    0.882862
     22          1           0       -6.908574   -0.411017    0.014888
     23         17           0       -7.606256    5.103778    0.567582
     24          1           0       -5.267295    3.558110    0.235015
     25          6           0       -9.520908    0.307246    0.264378
     26          1           0       -9.513733    2.981736    0.523367
     27          9           0      -10.245337    0.450824    1.388289
     28          9           0      -10.350366    0.592675   -0.755850
     29          9           0       -9.212555   -0.990475    0.162405
 ---------------------------------------------------------------------
                    Distance matrix (angstroms):
                    1          2          3          4          5
     1  C    0.000000
     2  N    1.398765   0.000000
     3  C    2.477620   1.363249   0.000000
     4  O    2.932331   2.298103   1.214969   0.000000
     5  O    3.567104   2.209434   1.337660   2.257028   0.000000
     6  C    4.819479   3.547123   2.361791   2.674151   1.443747
     7  C    5.950638   4.580237   3.630178   4.153347   2.384543
     8  C    7.276427   5.949891   4.847534   5.090080   3.744523
     9  C    1.400671   2.381681   3.682091   4.297372   4.551798
    10  C    2.404241   3.653875   4.866901   5.274201   5.856814
    11  C    2.811044   4.207806   5.190855   5.282317   6.365863
    12  C    2.395436   3.705552   4.393154   4.230092   5.676855
    13  C    1.395000   2.462598   3.011702   2.886980   4.309237
    14  H    2.061414   1.013045   2.021112   3.150785   2.283139
    15  H    5.019249   3.874132   2.627304   2.632179   2.069444
    16  H    5.035001   3.876955   2.630606   2.638558   2.068916
    17  H    6.022917   4.642608   3.874725   4.544444   2.604185
    18  H    6.014178   4.644922   3.875535   4.541874   2.608638
    19  H    7.485022   6.211560   5.040266   5.128068   4.073495
    20  H    8.112741   6.747555   5.747402   6.101950   4.546042
    21  H    7.477937   6.213319   5.040779   5.125447   4.076402
    22  H    2.152429   2.579445   3.929638   4.778293   4.509095
    23  Cl   3.994154   5.159802   5.539671   5.027197   6.873219
    24  H    2.161600   2.740434   2.772110   2.240944   4.100402
    25  C    3.785236   4.881314   6.176067   6.698377   7.030504
    26  H    3.894369   5.291004   6.258883   6.288227   7.446640
    27  F    4.617896   5.760025   6.982799   7.404102   7.884018
    28  F    4.593746   5.716986   7.002552   7.486599   7.873617
    29  F    4.121139   4.908868   6.257950   6.987156   6.887586
                    6          7          8          9         10
     6  C    0.000000
     7  C    1.511731   0.000000
     8  C    2.494722   1.524817   0.000000
     9  C    5.919002   6.872942   8.290590   0.000000
    10  C    7.178790   8.208189   9.596619   1.381703   0.000000
    11  C    7.551822   8.749733  10.036008   2.427142   1.393598
    12  C    6.703957   8.022117   9.196551   2.756624   2.368732
    13  C    5.315923   6.639682   7.808460   2.418223   2.774777
    14  H    3.725900   4.453383   5.926982   2.504861   3.882030
    15  H    1.091894   2.165660   2.768029   6.161109   7.355459
    16  H    1.092001   2.165995   2.764479   6.237723   7.427809
    17  H    2.136260   1.093411   2.162732   6.855584   8.204901
    18  H    2.136401   1.093404   2.162723   6.791835   8.145016
    19  H    2.756150   2.172627   1.092890   8.585152   9.851400
    20  H    3.449429   2.168164   1.091176   9.035404  10.374702
    21  H    2.756108   2.172909   1.092895   8.534286   9.801489
    22  H    5.938696   6.680794   8.162214   1.083820   2.149983
    23  Cl   7.674890   9.102604  10.110837   4.502356   3.981264
    24  H    4.857668   6.284110   7.304963   3.405279   3.853618
    25  C    8.412210   9.310496  10.755122   2.500791   1.500432
    26  H    8.617573   9.829948  11.105702   3.410924   2.166091
    27  F    9.221583  10.159272  11.573030   3.444533   2.356949
    28  F    9.252378  10.156414  11.600657   3.416499   2.357091
    29  F    8.315392   9.021488  10.514832   2.720527   2.367849
                   11         12         13         14         15
    11  C    0.000000
    12  C    1.382498   0.000000
    13  C    2.435965   1.390367   0.000000
    14  H    4.712272   4.455065   3.338780   0.000000
    15  H    7.635093   6.729587   5.378477   4.180290   0.000000
    16  H    7.663793   6.704081   5.330458   4.202371   1.777003
    17  H    8.818801   8.162934   6.798220   4.387404   3.058048
    18  H    8.798156   8.186888   6.838670   4.372437   2.492451
    19  H   10.189779   9.265067   7.884560   6.292838   3.131154
    20  H   10.904759  10.132377   8.744279   6.595498   3.768873
    21  H   10.171776   9.286024   7.919348   6.282566   2.579781
    22  H    3.409487   3.840440   3.397455   2.255751   6.261194
    23  Cl   2.699490   1.745772   2.697721   6.019591   7.590482
    24  H    3.403465   2.145431   1.079093   3.733332   4.851292
    25  C    2.477250   3.735497   4.275051   4.875065   8.623352
    26  H    1.083332   2.155315   3.417513   5.775248   8.674600
    27  F    2.902497   4.202067   4.931709   5.816318   9.298006
    28  F    2.934570   4.219086   4.924150   5.726370   9.553703
    29  F    3.634038   4.736449   4.964105   4.627939   8.595048
                   16         17         18         19         20
    16  H    0.000000
    17  H    2.495702   0.000000
    18  H    3.058539   1.762950   0.000000
    19  H    2.575812   2.519036   3.076049   0.000000
    20  H    3.766524   2.506031   2.505702   1.765148   0.000000
    21  H    3.125112   3.076262   2.519752   1.767145   1.765116
    22  H    6.377062   6.588628   6.483651   8.546978   8.802588
    23  Cl   7.512620   9.312974   9.377449  10.056406  11.116818
    24  H    4.728281   6.516162   6.607204   7.284013   8.299741
    25  C    8.731971   9.243685   9.147646  11.073667  11.458259
    26  H    8.706396   9.898688   9.874982  11.245246  11.982689
    27  F    9.599201  10.199807   9.924607  11.943030  12.295709
    28  F    9.457594   9.987500  10.083465  11.833262  12.303586
    29  F    8.744693   8.891777   8.752229  10.920403  11.114542
                   21         22         23         24         25
    21  H    0.000000
    22  H    8.466319   0.000000
    23  Cl  10.115939   5.586160   0.000000
    24  H    7.365450   4.300723   2.823195   0.000000
    25  C   10.993549   2.720742   5.173446   5.353710   0.000000
    26  H   11.224220   4.307688   2.853679   4.295066   2.687011
    27  F   11.708394   3.709851   5.411865   5.980483   1.344838
    28  F   11.914673   3.667066   5.443497   5.967682   1.345487
    29  F   10.807037   2.380307   6.315400   6.021626   1.337744
                   26         27         28         29
    26  H    0.000000
    27  F    2.772878   0.000000
    28  F    2.836189   2.151392   0.000000
    29  F    3.999933   2.155638   2.155034   0.000000
 Stoichiometry    C11H11ClF3NO2
 Framework group  C1[X(C11H11ClF3NO2)]
 Deg. of freedom    81
 Full point group                 C1      NOp   1
 Largest Abelian subgroup         C1      NOp   1
 Largest concise Abelian subgroup C1      NOp   1
                         Standard orientation:                         
 ---------------------------------------------------------------------
 Center     Atomic      Atomic             Coordinates (Angstroms)
 Number     Number       Type             X           Y           Z
 ---------------------------------------------------------------------
      1          6           0       -0.098649   -0.024273   -0.083928
      2          7           0        1.211137   -0.511201   -0.146411
      3          6           0        2.367673    0.194188    0.006232
      4          8           0        2.454108    1.390739    0.198442
      5          8           0        3.416471   -0.631032   -0.085242
      6          6           0        4.718685   -0.024733    0.059837
      7          6           0        5.749675   -1.122884   -0.068433
      8          6           0        7.157001   -0.552160    0.068595
      9          6           0       -1.121747   -0.980143   -0.045670
     10          6           0       -2.439365   -0.566783    0.000381
     11          6           0       -2.789791    0.781962    0.014627
     12          6           0       -1.758550    1.701848   -0.026046
     13          6           0       -0.418927    1.333454   -0.079115
     14          1           0        1.317160   -1.513341   -0.250018
     15          1           0        4.769849    0.461327    1.036239
     16          1           0        4.838663    0.731479   -0.718760
     17          1           0        5.631944   -1.613062   -1.038697
     18          1           0        5.568948   -1.875973    0.703399
     19          1           0        7.357313    0.191982   -0.706349
     20          1           0        7.906461   -1.339963   -0.022735
     21          1           0        7.294191   -0.070603    1.040038
     22          1           0       -0.868679   -2.033987   -0.051403
     23         17           0       -2.147445    3.403728   -0.016728
     24          1           0        0.349292    2.090067   -0.121744
     25          6           0       -3.549229   -1.575929    0.033877
     26          1           0       -3.825601    1.096748    0.054830
     27          9           0       -4.336520   -1.415153    1.112261
     28          9           0       -4.354477   -1.466257   -1.038449
     29          9           0       -3.106362   -2.837987    0.059156
 ---------------------------------------------------------------------
 Rotational constants (GHZ):      0.5766532      0.1477333      0.1204258
 Standard basis: 6-311+G(d) (5D, 7F)
 There are   455 symmetry adapted cartesian basis functions of A   symmetry.
 There are   437 symmetry adapted basis functions of A   symmetry.
   437 basis functions,   720 primitive gaussians,   455 cartesian basis functions
    72 alpha electrons       72 beta electrons
       nuclear repulsion energy      1417.2987717298 Hartrees.
 NAtoms=   29 NActive=   29 NUniq=   29 SFac= 1.00D+00 NAtFMM=   60 NAOKFM=F Big=F
 Integral buffers will be    131072 words long.
 Raffenetti 2 integral format.
 Two-electron integral symmetry is turned on.
 Nuclear repulsion after empirical dispersion term =     1417.2974851179 Hartrees.
 ------------------------------------------------------------------------------
 Polarizable Continuum Model (PCM)
 =================================
 Model                : PCM (using non-symmetric T matrix).
 Atomic radii         : SMD-Coulomb.
 Polarization charges : Total charges.
 Charge compensation  : None.
 Solution method      : On-the-fly selection.
 Cavity type          : VdW (van der Waals Surface) (Alpha=1.000).
 Cavity algorithm     : GePol (No added spheres)
                        Default sphere list used, NSphG=   29.
                        Lebedev-Laikov grids with approx.  5.0 points / Ang**2.
                        Smoothing algorithm: York/Karplus (Gamma=1.0000).
                        Polarization charges: spherical gaussians, with
                                              point-specific exponents (IZeta= 3).
                        Self-potential: point-specific (ISelfS= 7).
                        Self-field    : sphere-specific E.n sum rule (ISelfD= 2).
 1st derivatives      : Analytical E(r).r(x)/FMM algorithm (CHGder, D1EAlg=3).
                        Cavity 1st derivative terms included.
 Solvent              : Water, Eps=  78.355300 Eps(inf)=   1.777849
 ------------------------------------------------------------------------------
 ------------------------------------------------------------------------------
 Atomic radii for non-electrostatic terms: SMD-CDS.
 ------------------------------------------------------------------------------
 Nuclear repulsion after PCM non-electrostatic terms =     1417.3103768210 Hartrees.
 One-electron integrals computed using PRISM.
 NBasis=   437 RedAO= T EigKep=  1.47D-06  NBF=   437
 NBsUse=   435 1.00D-06 EigRej=  8.79D-07 NBFU=   435
 ExpMin= 4.38D-02 ExpMax= 1.06D+05 ExpMxC= 3.62D+03 IAcc=3 IRadAn=         5 AccDes= 0.00D+00
 Harris functional with IExCor= 1009 and IRadAn=       5 diagonalized for initial guess.
 HarFok:  IExCor= 1009 AccDes= 0.00D+00 IRadAn=         5 IDoV= 1 UseB2=F ITyADJ=14
 ICtDFT=  3500011 ScaDFX=  1.000000  1.000000  1.000000  1.000000
 FoFCou: FMM=F IPFlag=           0 FMFlag=      100000 FMFlg1=           0
         NFxFlg=           0 DoJE=T BraDBF=F KetDBF=T FulRan=T
         wScrn=  0.000000 ICntrl=     500 IOpCl=  0 I1Cent=   200000004 NGrid=           0
         NMat0=    1 NMatS0=      1 NMatT0=    0 NMatD0=    1 NMtDS0=    0 NMtDT0=    0
 Petite list used in FoFCou.
 Requested convergence on RMS density matrix=1.00D-08 within 128 cycles.
 Requested convergence on MAX density matrix=1.00D-06.
 Requested convergence on             energy=1.00D-06.
 No special actions if energy rises.
 Inv3:  Mode=1 IEnd=    16822272.
 Iteration    1 A*A^-1 deviation from unit magnitude is 4.55D-15 for   2357.
 Iteration    1 A*A^-1 deviation from orthogonality  is 2.52D-15 for   1234    520.
 Iteration    1 A^-1*A deviation from unit magnitude is 4.66D-15 for   2342.
 Iteration    1 A^-1*A deviation from orthogonality  is 2.43D-11 for   1191   1177.
 Error on total polarization charges =  0.04234
 SCF Done:  E(RM062X) =  -1390.68392069     A.U. after   15 cycles
            NFock= 15  Conv=0.43D-08     -V/T= 2.0028
 SMD-CDS (non-electrostatic) energy       (kcal/mol) =       8.09
 (included in total energy above)

 **********************************************************************

            Population analysis using the SCF density.

 **********************************************************************

 Orbital symmetries:
       Occupied  (A) (A) (A) (A) (A) (A) (A) (A) (A) (A) (A) (A)
                 (A) (A) (A) (A) (A) (A) (A) (A) (A) (A) (A) (A)
                 (A) (A) (A) (A) (A) (A) (A) (A) (A) (A) (A) (A)
                 (A) (A) (A) (A) (A) (A) (A) (A) (A) (A) (A) (A)
                 (A) (A) (A) (A) (A) (A) (A) (A) (A) (A) (A) (A)
                 (A) (A) (A) (A) (A) (A) (A) (A) (A) (A) (A) (A)
       Virtual   (A) (A) (A) (A) (A) (A) (A) (A) (A) (A) (A) (A)
                 (A) (A) (A) (A) (A) (A) (A) (A) (A) (A) (A) (A)
                 (A) (A) (A) (A) (A) (A) (A) (A) (A) (A) (A) (A)
                 (A) (A) (A) (A) (A) (A) (A) (A) (A) (A) (A) (A)
                 (A) (A) (A) (A) (A) (A) (A) (A) (A) (A) (A) (A)
                 (A) (A) (A) (A) (A) (A) (A) (A) (A) (A) (A) (A)
                 (A) (A) (A) (A) (A) (A) (A) (A) (A) (A) (A) (A)
                 (A) (A) (A) (A) (A) (A) (A) (A) (A) (A) (A) (A)
                 (A) (A) (A) (A) (A) (A) (A) (A) (A) (A) (A) (A)
                 (A) (A) (A) (A) (A) (A) (A) (A) (A) (A) (A) (A)
                 (A) (A) (A) (A) (A) (A) (A) (A) (A) (A) (A) (A)
                 (A) (A) (A) (A) (A) (A) (A) (A) (A) (A) (A) (A)
                 (A) (A) (A) (A) (A) (A) (A) (A) (A) (A) (A) (A)
                 (A) (A) (A) (A) (A) (A) (A) (A) (A) (A) (A) (A)
                 (A) (A) (A) (A) (A) (A) (A) (A) (A) (A) (A) (A)
                 (A) (A) (A) (A) (A) (A) (A) (A) (A) (A) (A) (A)
                 (A) (A) (A) (A) (A) (A) (A) (A) (A) (A) (A) (A)
                 (A) (A) (A) (A) (A) (A) (A) (A) (A) (A) (A) (A)
                 (A) (A) (A) (A) (A) (A) (A) (A) (A) (A) (A) (A)
                 (A) (A) (A) (A) (A) (A) (A) (A) (A) (A) (A) (A)
                 (A) (A) (A) (A) (A) (A) (A) (A) (A) (A) (A) (A)
                 (A) (A) (A) (A) (A) (A) (A) (A) (A) (A) (A) (A)
                 (A) (A) (A) (A) (A) (A) (A) (A) (A) (A) (A) (A)
                 (A) (A) (A) (A) (A) (A) (A) (A) (A) (A) (A) (A)
                 (A) (A) (A) (A) (A) (A) (A) (A) (A) (A) (A) (A)
                 (A) (A) (A) (A) (A) (A) (A) (A) (A) (A) (A) (A)
                 (A) (A) (A) (A) (A) (A) (A) (A) (A) (A) (A) (A)
                 (A) (A) (A) (A) (A) (A) (A) (A) (A) (A) (A) (A)
                 (A) (A) (A) (A) (A) (A) (A) (A) (A) (A) (A) (A)
                 (A) (A) (A) (A) (A) (A) (A) (A) (A) (A) (A) (A)
                 (A) (A) (A)
 The electronic state is 1-A.
 Alpha  occ. eigenvalues -- -102.68665 -25.28876 -25.28478 -25.28448 -19.67650
 Alpha  occ. eigenvalues --  -19.62150 -14.80104 -10.81224 -10.71722 -10.62465
 Alpha  occ. eigenvalues --  -10.62071 -10.59037 -10.58824 -10.56997 -10.56969
 Alpha  occ. eigenvalues --  -10.56694 -10.53085 -10.51911  -9.82937  -7.55445
 Alpha  occ. eigenvalues --   -7.54780  -7.54763  -1.48018  -1.38725  -1.38257
 Alpha  occ. eigenvalues --   -1.25725  -1.15818  -1.07910  -1.01414  -0.96221
 Alpha  occ. eigenvalues --   -0.90671  -0.88659  -0.85515  -0.82259  -0.79778
 Alpha  occ. eigenvalues --   -0.75017  -0.73029  -0.70365  -0.70342  -0.69389
 Alpha  occ. eigenvalues --   -0.67517  -0.65058  -0.64306  -0.60003  -0.59504
 Alpha  occ. eigenvalues --   -0.59307  -0.58543  -0.58379  -0.56616  -0.55022
 Alpha  occ. eigenvalues --   -0.54309  -0.53705  -0.53392  -0.52274  -0.51704
 Alpha  occ. eigenvalues --   -0.50962  -0.49738  -0.49513  -0.46882  -0.46376
 Alpha  occ. eigenvalues --   -0.45274  -0.44392  -0.43224  -0.42730  -0.40183
 Alpha  occ. eigenvalues --   -0.40133  -0.39145  -0.39096  -0.38140  -0.38069
 Alpha  occ. eigenvalues --   -0.32542  -0.29485
 Alpha virt. eigenvalues --   -0.01402  -0.00310   0.00954   0.02349   0.02679
 Alpha virt. eigenvalues --    0.03193   0.03715   0.03785   0.04512   0.05032
 Alpha virt. eigenvalues --    0.05247   0.05536   0.05654   0.06629   0.07094
 Alpha virt. eigenvalues --    0.07235   0.07758   0.08189   0.08262   0.08926
 Alpha virt. eigenvalues --    0.09257   0.09871   0.10277   0.10585   0.11392
 Alpha virt. eigenvalues --    0.11828   0.12083   0.12354   0.13073   0.13560
 Alpha virt. eigenvalues --    0.13928   0.14407   0.14602   0.15335   0.16096
 Alpha virt. eigenvalues --    0.17166   0.17461   0.17822   0.18078   0.18292
 Alpha virt. eigenvalues --    0.18709   0.19376   0.20010   0.20286   0.21210
 Alpha virt. eigenvalues --    0.21355   0.21497   0.21771   0.21954   0.22754
 Alpha virt. eigenvalues --    0.23000   0.23255   0.23621   0.24408   0.24465
 Alpha virt. eigenvalues --    0.25007   0.25504   0.25932   0.26335   0.26748
 Alpha virt. eigenvalues --    0.27105   0.27162   0.27895   0.28342   0.28532
 Alpha virt. eigenvalues --    0.28983   0.29238   0.29500   0.29760   0.30328
 Alpha virt. eigenvalues --    0.30635   0.31011   0.31672   0.32157   0.32467
 Alpha virt. eigenvalues --    0.32927   0.33725   0.34289   0.34470   0.35228
 Alpha virt. eigenvalues --    0.35767   0.36924   0.37439   0.37906   0.38161
 Alpha virt. eigenvalues --    0.38440   0.39191   0.40299   0.40864   0.41383
 Alpha virt. eigenvalues --    0.42158   0.43710   0.43800   0.44534   0.44653
 Alpha virt. eigenvalues --    0.45619   0.46363   0.46796   0.48080   0.48292
 Alpha virt. eigenvalues --    0.48998   0.49775   0.50468   0.50891   0.51305
 Alpha virt. eigenvalues --    0.52468   0.53173   0.55163   0.56638   0.58306
 Alpha virt. eigenvalues --    0.58591   0.59572   0.59983   0.61563   0.62946
 Alpha virt. eigenvalues --    0.63124   0.63835   0.64262   0.64785   0.66408
 Alpha virt. eigenvalues --    0.66516   0.67641   0.68139   0.68957   0.69142
 Alpha virt. eigenvalues --    0.69996   0.70454   0.71503   0.72426   0.72531
 Alpha virt. eigenvalues --    0.73821   0.73914   0.74543   0.75620   0.75941
 Alpha virt. eigenvalues --    0.76741   0.78032   0.78528   0.78996   0.79395
 Alpha virt. eigenvalues --    0.81346   0.82258   0.83088   0.85035   0.87484
 Alpha virt. eigenvalues --    0.88759   0.90054   0.91311   0.91858   0.92301
 Alpha virt. eigenvalues --    0.93021   0.93337   0.95541   0.97189   0.97937
 Alpha virt. eigenvalues --    0.99638   0.99951   1.00433   1.02929   1.03939
 Alpha virt. eigenvalues --    1.04735   1.05604   1.06019   1.08398   1.09950
 Alpha virt. eigenvalues --    1.10679   1.12218   1.12370   1.13681   1.15380
 Alpha virt. eigenvalues --    1.18823   1.19361   1.22211   1.22332   1.22873
 Alpha virt. eigenvalues --    1.23671   1.24644   1.27022   1.28645   1.31392
 Alpha virt. eigenvalues --    1.32217   1.34546   1.36665   1.37821   1.38841
 Alpha virt. eigenvalues --    1.41245   1.42102   1.43911   1.45937   1.46112
 Alpha virt. eigenvalues --    1.46877   1.48976   1.50636   1.50803   1.51985
 Alpha virt. eigenvalues --    1.52812   1.53235   1.55864   1.57324   1.57989
 Alpha virt. eigenvalues --    1.58942   1.59195   1.59230   1.62262   1.62513
 Alpha virt. eigenvalues --    1.63434   1.64025   1.66098   1.68324   1.70968
 Alpha virt. eigenvalues --    1.74085   1.74603   1.78226   1.78333   1.79146
 Alpha virt. eigenvalues --    1.79298   1.79754   1.80260   1.85191   1.86134
 Alpha virt. eigenvalues --    1.86747   1.87286   1.87956   1.90916   1.91870
 Alpha virt. eigenvalues --    1.93949   1.96144   1.96929   1.97339   1.99939
 Alpha virt. eigenvalues --    2.02810   2.04890   2.08055   2.09665   2.10462
 Alpha virt. eigenvalues --    2.11091   2.17937   2.19229   2.19363   2.21467
 Alpha virt. eigenvalues --    2.24567   2.29976   2.33427   2.33701   2.36601
 Alpha virt. eigenvalues --    2.36820   2.39715   2.45234   2.47094   2.51485
 Alpha virt. eigenvalues --    2.53210   2.55224   2.56215   2.57331   2.59140
 Alpha virt. eigenvalues --    2.60937   2.62341   2.65516   2.66151   2.70247
 Alpha virt. eigenvalues --    2.71062   2.75133   2.76703   2.80666   2.81956
 Alpha virt. eigenvalues --    2.82429   2.86933   2.91591   2.92393   2.93506
 Alpha virt. eigenvalues --    2.96838   3.00849   3.01293   3.02847   3.03760
 Alpha virt. eigenvalues --    3.04590   3.07504   3.10435   3.11571   3.12262
 Alpha virt. eigenvalues --    3.19187   3.19331   3.22085   3.24020   3.26555
 Alpha virt. eigenvalues --    3.29997   3.30323   3.30980   3.34689   3.36290
 Alpha virt. eigenvalues --    3.38792   3.40925   3.43031   3.45939   3.50996
 Alpha virt. eigenvalues --    3.54363   3.66398   3.70190   3.73676   3.76893
 Alpha virt. eigenvalues --    3.79600   3.81902   3.83352   3.83633   3.85880
 Alpha virt. eigenvalues --    3.85989   3.87615   3.90391   3.96485   3.98458
 Alpha virt. eigenvalues --    3.99852   4.00894   4.02752   4.07817   4.10797
 Alpha virt. eigenvalues --    4.11387   4.18664   4.22126   4.26739   4.30728
 Alpha virt. eigenvalues --    4.56539   4.75998   4.79677   4.97056   5.01232
 Alpha virt. eigenvalues --    5.08794   5.10551   5.16111   5.35498   5.49359
 Alpha virt. eigenvalues --    5.79920   5.95324   6.44183   6.47822   6.49460
 Alpha virt. eigenvalues --    6.51463   6.53106   6.56948   6.62552   6.85860
 Alpha virt. eigenvalues --    6.90640   9.96707  23.45122  23.58077  23.64518
 Alpha virt. eigenvalues --   23.73036  23.82865  23.91352  23.92594  23.96814
 Alpha virt. eigenvalues --   24.09514  24.11559  24.20085  25.93267  26.23215
 Alpha virt. eigenvalues --   26.70713  35.66457  50.01721  50.12716  66.87644
 Alpha virt. eigenvalues --   66.90517  66.96301 216.06868
          Condensed to atoms (all electrons):
               1          2          3          4          5          6
     1  C   22.259494  -0.308995  -0.770219  -0.155776  -0.285627  -0.652815
     2  N   -0.308995   7.482890   0.320053  -0.049893  -0.157423  -0.253141
     3  C   -0.770219   0.320053   8.230302   0.539219   0.301088  -0.519681
     4  O   -0.155776  -0.049893   0.539219   8.204830  -0.182997  -0.164673
     5  O   -0.285627  -0.157423   0.301088  -0.182997   8.299164   0.317676
     6  C   -0.652815  -0.253141  -0.519681  -0.164673   0.317676   8.055525
     7  C   -0.040802   0.021995   0.104981   0.029175  -0.151795  -0.899209
     8  C   -0.019945  -0.006899  -0.241014  -0.000006   0.033568   0.317007
     9  C   -1.835102   0.040278  -0.082242  -0.098106  -0.031198   0.005283
    10  C    0.165643   0.171342  -0.934965  -0.002503  -0.002276  -0.116630
    11  C   -9.383633   0.036877  -0.652885  -0.041661  -0.011712  -0.042236
    12  C    0.146501   0.097142  -0.167976   0.075747   0.018112  -0.042595
    13  C    0.807778  -0.157592  -0.108991   0.274910   0.011456  -0.219477
    14  H   -0.056380   0.272847  -0.021480   0.000066   0.015376  -0.002830
    15  H    0.010146   0.004453   0.043973  -0.000356  -0.041200   0.344258
    16  H    0.002317   0.003528   0.020077  -0.000793  -0.042227   0.375177
    17  H    0.000568  -0.000804   0.007419  -0.000264   0.001623  -0.064615
    18  H   -0.000861  -0.000731   0.001936  -0.000274   0.001550  -0.065090
    19  H   -0.000215  -0.000014  -0.002355  -0.000053  -0.000307  -0.049388
    20  H    0.000163   0.000032   0.008569   0.000025  -0.000656   0.090109
    21  H   -0.000057  -0.000064  -0.002005  -0.000067  -0.000340  -0.047844
    22  H    0.047935  -0.016948  -0.011976  -0.000011  -0.000661  -0.000976
    23  Cl   0.011636   0.003099   0.062983   0.000520   0.000700   0.005808
    24  H    0.008361  -0.021682   0.076282  -0.001614   0.001210   0.008422
    25  C   -3.366600   0.002236  -0.311371  -0.002931  -0.000823  -0.016096
    26  H    0.051865   0.000640   0.002498   0.000003   0.000001   0.000023
    27  F    0.037928   0.000598  -0.000692   0.000002   0.000000  -0.000013
    28  F    0.021329   0.000800  -0.001205  -0.000000   0.000001  -0.000012
    29  F    0.084905   0.001405  -0.001503   0.000001   0.000008  -0.000016
               7          8          9         10         11         12
     1  C   -0.040802  -0.019945  -1.835102   0.165643  -9.383633   0.146501
     2  N    0.021995  -0.006899   0.040278   0.171342   0.036877   0.097142
     3  C    0.104981  -0.241014  -0.082242  -0.934965  -0.652885  -0.167976
     4  O    0.029175  -0.000006  -0.098106  -0.002503  -0.041661   0.075747
     5  O   -0.151795   0.033568  -0.031198  -0.002276  -0.011712   0.018112
     6  C   -0.899209   0.317007   0.005283  -0.116630  -0.042236  -0.042595
     7  C    6.506374  -0.167152   0.011109  -0.006320   0.004618  -0.003541
     8  C   -0.167152   6.133866  -0.000560  -0.001602  -0.000122  -0.000109
     9  C    0.011109  -0.000560  12.769925  -4.248296   4.894049  -5.121758
    10  C   -0.006320  -0.001602  -4.248296  23.179059  -7.714076   4.071137
    11  C    0.004618  -0.000122   4.894049  -7.714076  31.148106 -12.322911
    12  C   -0.003541  -0.000109  -5.121758   4.071137 -12.322911  20.761598
    13  C    0.005545  -0.007182  -2.017911  -0.641530  -5.421942   3.041028
    14  H   -0.001957  -0.000315  -0.009446   0.024475  -0.012761   0.020515
    15  H   -0.020624  -0.017926   0.000478   0.000293   0.000082  -0.000193
    16  H   -0.023114  -0.013006   0.001456  -0.000068   0.000183   0.000023
    17  H    0.443386  -0.045943  -0.000032   0.000025  -0.000001   0.000016
    18  H    0.449901  -0.045357   0.000528   0.000022   0.000009  -0.000017
    19  H    0.015613   0.380214   0.000011  -0.000001   0.000000   0.000001
    20  H   -0.131837   0.383427  -0.000015   0.000001  -0.000000   0.000001
    21  H    0.009662   0.384311   0.000012  -0.000001   0.000000  -0.000004
    22  H   -0.000035  -0.000000   0.302293   0.026984  -0.053257   0.005896
    23  Cl  -0.000191   0.000042  -0.017230  -0.113035  -0.310151  -0.715001
    24  H   -0.000232   0.000055   0.032692   0.000374   0.041692  -0.125746
    25  C    0.000118  -0.000095   2.003181  -7.100375   5.942951  -4.662497
    26  H   -0.000000   0.000000  -0.035911   0.092264   0.131529   0.067416
    27  F    0.000000  -0.000000   0.025900   0.193841  -0.316869   0.060778
    28  F    0.000000  -0.000000   0.009622   0.259458  -0.300351   0.046291
    29  F    0.000000  -0.000000   0.013820  -0.091523  -0.018418   0.066462
              13         14         15         16         17         18
     1  C    0.807778  -0.056380   0.010146   0.002317   0.000568  -0.000861
     2  N   -0.157592   0.272847   0.004453   0.003528  -0.000804  -0.000731
     3  C   -0.108991  -0.021480   0.043973   0.020077   0.007419   0.001936
     4  O    0.274910   0.000066  -0.000356  -0.000793  -0.000264  -0.000274
     5  O    0.011456   0.015376  -0.041200  -0.042227   0.001623   0.001550
     6  C   -0.219477  -0.002830   0.344258   0.375177  -0.064615  -0.065090
     7  C    0.005545  -0.001957  -0.020624  -0.023114   0.443386   0.449901
     8  C   -0.007182  -0.000315  -0.017926  -0.013006  -0.045943  -0.045357
     9  C   -2.017911  -0.009446   0.000478   0.001456  -0.000032   0.000528
    10  C   -0.641530   0.024475   0.000293  -0.000068   0.000025   0.000022
    11  C   -5.421942  -0.012761   0.000082   0.000183  -0.000001   0.000009
    12  C    3.041028   0.020515  -0.000193   0.000023   0.000016  -0.000017
    13  C   10.820312   0.036785  -0.000710  -0.002176   0.000169  -0.000208
    14  H    0.036785   0.245489  -0.000027  -0.000025   0.000009  -0.000010
    15  H   -0.000710  -0.000027   0.426538  -0.038638   0.004955  -0.007577
    16  H   -0.002176  -0.000025  -0.038638   0.426506  -0.007429   0.004990
    17  H    0.000169   0.000009   0.004955  -0.007429   0.431464  -0.036355
    18  H   -0.000208  -0.000010  -0.007577   0.004990  -0.036355   0.431503
    19  H    0.000037   0.000000  -0.000352   0.003171  -0.007644   0.005729
    20  H    0.000036  -0.000000  -0.000154  -0.000136  -0.003153  -0.003100
    21  H   -0.000048  -0.000000   0.003151  -0.000365   0.005696  -0.007560
    22  H   -0.000066   0.003095  -0.000000  -0.000000  -0.000000  -0.000000
    23  Cl   0.364601   0.000460  -0.000001   0.000001   0.000000   0.000000
    24  H    0.306093  -0.000089   0.000002  -0.000021   0.000000  -0.000000
    25  C   -0.712344   0.003130   0.000009   0.000004   0.000001  -0.000000
    26  H    0.000239  -0.000001  -0.000000  -0.000000   0.000000   0.000000
    27  F    0.007776  -0.000010   0.000000   0.000000   0.000000   0.000000
    28  F    0.009288  -0.000013   0.000000   0.000000  -0.000000   0.000000
    29  F   -0.000924   0.000027  -0.000000  -0.000000   0.000000   0.000000
              19         20         21         22         23         24
     1  C   -0.000215   0.000163  -0.000057   0.047935   0.011636   0.008361
     2  N   -0.000014   0.000032  -0.000064  -0.016948   0.003099  -0.021682
     3  C   -0.002355   0.008569  -0.002005  -0.011976   0.062983   0.076282
     4  O   -0.000053   0.000025  -0.000067  -0.000011   0.000520  -0.001614
     5  O   -0.000307  -0.000656  -0.000340  -0.000661   0.000700   0.001210
     6  C   -0.049388   0.090109  -0.047844  -0.000976   0.005808   0.008422
     7  C    0.015613  -0.131837   0.009662  -0.000035  -0.000191  -0.000232
     8  C    0.380214   0.383427   0.384311  -0.000000   0.000042   0.000055
     9  C    0.000011  -0.000015   0.000012   0.302293  -0.017230   0.032692
    10  C   -0.000001   0.000001  -0.000001   0.026984  -0.113035   0.000374
    11  C    0.000000  -0.000000   0.000000  -0.053257  -0.310151   0.041692
    12  C    0.000001   0.000001  -0.000004   0.005896  -0.715001  -0.125746
    13  C    0.000037   0.000036  -0.000048  -0.000066   0.364601   0.306093
    14  H    0.000000  -0.000000  -0.000000   0.003095   0.000460  -0.000089
    15  H   -0.000352  -0.000154   0.003151  -0.000000  -0.000001   0.000002
    16  H    0.003171  -0.000136  -0.000365  -0.000000   0.000001  -0.000021
    17  H   -0.007644  -0.003153   0.005696  -0.000000   0.000000   0.000000
    18  H    0.005729  -0.003100  -0.007560  -0.000000   0.000000  -0.000000
    19  H    0.443778  -0.024095  -0.036255  -0.000000  -0.000000  -0.000000
    20  H   -0.024095   0.420891  -0.024069   0.000000   0.000000   0.000000
    21  H   -0.036255  -0.024069   0.443342  -0.000000  -0.000000  -0.000000
    22  H   -0.000000   0.000000  -0.000000   0.348133   0.000426  -0.000022
    23  Cl  -0.000000   0.000000  -0.000000   0.000426  17.465486  -0.011407
    24  H   -0.000000   0.000000  -0.000000  -0.000022  -0.011407   0.346597
    25  C   -0.000000   0.000000  -0.000000   0.022370  -0.141494   0.003670
    26  H    0.000000   0.000000   0.000000  -0.000101  -0.014258  -0.000227
    27  F    0.000000   0.000000  -0.000000   0.000002  -0.000484  -0.000004
    28  F    0.000000  -0.000000  -0.000000  -0.000067  -0.000429  -0.000000
    29  F    0.000000  -0.000000  -0.000000   0.008171  -0.000094  -0.000002
              25         26         27         28         29
     1  C   -3.366600   0.051865   0.037928   0.021329   0.084905
     2  N    0.002236   0.000640   0.000598   0.000800   0.001405
     3  C   -0.311371   0.002498  -0.000692  -0.001205  -0.001503
     4  O   -0.002931   0.000003   0.000002  -0.000000   0.000001
     5  O   -0.000823   0.000001   0.000000   0.000001   0.000008
     6  C   -0.016096   0.000023  -0.000013  -0.000012  -0.000016
     7  C    0.000118  -0.000000   0.000000   0.000000   0.000000
     8  C   -0.000095   0.000000  -0.000000  -0.000000  -0.000000
     9  C    2.003181  -0.035911   0.025900   0.009622   0.013820
    10  C   -7.100375   0.092264   0.193841   0.259458  -0.091523
    11  C    5.942951   0.131529  -0.316869  -0.300351  -0.018418
    12  C   -4.662497   0.067416   0.060778   0.046291   0.066462
    13  C   -0.712344   0.000239   0.007776   0.009288  -0.000924
    14  H    0.003130  -0.000001  -0.000010  -0.000013   0.000027
    15  H    0.000009  -0.000000   0.000000   0.000000  -0.000000
    16  H    0.000004  -0.000000   0.000000   0.000000  -0.000000
    17  H    0.000001   0.000000   0.000000  -0.000000   0.000000
    18  H   -0.000000   0.000000   0.000000   0.000000   0.000000
    19  H   -0.000000   0.000000   0.000000   0.000000   0.000000
    20  H    0.000000   0.000000   0.000000  -0.000000  -0.000000
    21  H   -0.000000   0.000000  -0.000000  -0.000000  -0.000000
    22  H    0.022370  -0.000101   0.000002  -0.000067   0.008171
    23  Cl  -0.141494  -0.014258  -0.000484  -0.000429  -0.000094
    24  H    0.003670  -0.000227  -0.000004  -0.000000  -0.000002
    25  C   13.091717   0.013674   0.159566   0.128227   0.100569
    26  H    0.013674   0.346359  -0.000388  -0.000958   0.000299
    27  F    0.159566  -0.000388   8.989961  -0.052759  -0.029142
    28  F    0.128227  -0.000958  -0.052759   8.985645  -0.032332
    29  F    0.100569   0.000299  -0.029142  -0.032332   9.048946
 Mulliken charges:
               1
     1  C   -0.779543
     2  N   -0.486028
     3  C    0.111177
     4  O   -0.422517
     5  O   -0.092289
     6  C   -0.361952
     7  C   -0.155668
     8  C   -1.065257
     9  C   -0.612831
    10  C   -1.211716
    11  C    0.402890
    12  C    0.683685
    13  C   -0.394955
    14  H    0.483068
    15  H    0.289423
    16  H    0.290565
    17  H    0.270908
    18  H    0.270971
    19  H    0.272125
    20  H    0.283961
    21  H    0.272503
    22  H    0.318815
    23  Cl   0.408015
    24  H    0.335594
    25  C    0.843204
    26  H    0.345036
    27  F   -0.075992
    28  F   -0.072534
    29  F   -0.150659
 Sum of Mulliken charges =  -0.00000
 Mulliken charges with hydrogens summed into heavy atoms:
               1
     1  C   -0.779543
     2  N   -0.002961
     3  C    0.111177
     4  O   -0.422517
     5  O   -0.092289
     6  C    0.218036
     7  C    0.386212
     8  C   -0.236668
     9  C   -0.294015
    10  C   -1.211716
    11  C    0.747926
    12  C    0.683685
    13  C   -0.059360
    23  Cl   0.408015
    25  C    0.843204
    27  F   -0.075992
    28  F   -0.072534
    29  F   -0.150659
 Electronic spatial extent (au):  <R**2>=           8282.1058
 Charge=             -0.0000 electrons
 Dipole moment (field-independent basis, Debye):
    X=              4.6290    Y=             -3.5890    Z=             -0.5546  Tot=              5.8836
 Quadrupole moment (field-independent basis, Debye-Ang):
   XX=           -103.7395   YY=           -117.9699   ZZ=           -113.5341
   XY=            -11.1565   XZ=             -0.7657   YZ=             -0.6077
 Traceless Quadrupole moment (field-independent basis, Debye-Ang):
   XX=              8.0083   YY=             -6.2221   ZZ=             -1.7863
   XY=            -11.1565   XZ=             -0.7657   YZ=             -0.6077
 Octapole moment (field-independent basis, Debye-Ang**2):
  XXX=            111.4892  YYY=            -45.9212  ZZZ=              1.5420  XYY=             -4.3171
  XXY=             -1.9700  XXZ=             -0.2402  XZZ=             -2.0667  YZZ=             -9.4042
  YYZ=             -2.6626  XYZ=             -3.2055
 Hexadecapole moment (field-independent basis, Debye-Ang**3):
 XXXX=          -7787.9035 YYYY=          -1919.1464 ZZZZ=           -207.8243 XXXY=           -112.0707
 XXXZ=             -8.8576 YYYX=             71.3751 YYYZ=             -0.9877 ZZZX=             -0.2676
 ZZZY=             -0.0141 XXYY=          -1778.5541 XXZZ=          -1434.5273 YYZZ=           -357.8249
 XXYZ=             -7.6590 YYXZ=             -7.1181 ZZXY=             36.2173
 N-N= 1.417310376821D+03 E-N=-6.113017714405D+03  KE= 1.386734737425D+03
 D1PCM: PCM CHGder 1st derivatives, ID1Alg=3 FixD1E=F DoIter=F DoCFld=F I1PDM=0.
 Calling FoFJK, ICntrl=      2127 FMM=F ISym2X=0 I1Cent= 0 IOpClX= 0 NMat=1 NMatS=1 NMatT=0.
 ***** Axes restored to original set *****
 -------------------------------------------------------------------
 Center     Atomic                   Forces (Hartrees/Bohr)
 Number     Number              X              Y              Z
 -------------------------------------------------------------------
      1        6          -0.000002160    0.000000051   -0.000000520
      2        7           0.000003297   -0.000002935    0.000001153
      3        6          -0.000001247    0.000004270    0.000002312
      4        8          -0.000002237    0.000003150   -0.000002851
      5        8           0.000005568    0.000001528   -0.000000726
      6        6          -0.000000899    0.000006762   -0.000000769
      7        6           0.000002213    0.000008134    0.000000490
      8        6           0.000001359    0.000011117   -0.000000404
      9        6          -0.000001890   -0.000007237    0.000001654
     10        6           0.000001049   -0.000007284    0.000000543
     11        6          -0.000003852   -0.000006768   -0.000000493
     12        6          -0.000004830   -0.000006809   -0.000001722
     13        6          -0.000003671   -0.000003513   -0.000001916
     14        1           0.000002433    0.000000235   -0.000000228
     15        1          -0.000000959    0.000008046   -0.000001311
     16        1          -0.000002040    0.000005965   -0.000001009
     17        1           0.000002966    0.000006654    0.000001298
     18        1           0.000004246    0.000008494    0.000000881
     19        1           0.000000172    0.000011035   -0.000000804
     20        1           0.000003529    0.000012860    0.000000554
     21        1           0.000001446    0.000012815   -0.000000962
     22        1           0.000003599   -0.000005463    0.000002200
     23       17          -0.000007846   -0.000005990   -0.000003216
     24        1          -0.000005039   -0.000001498   -0.000002023
     25        6           0.000004129   -0.000010230    0.000001719
     26        1          -0.000003788   -0.000010080   -0.000000813
     27        9           0.000000038   -0.000010181    0.000004909
     28        9          -0.000000746   -0.000011932   -0.000001026
     29        9           0.000005161   -0.000011196    0.000003078
 -------------------------------------------------------------------
 Cartesian Forces:  Max     0.000012860 RMS     0.000005048

 GradGradGradGradGradGradGradGradGradGradGradGradGradGradGradGradGradGrad
 Berny optimization.
 FormGI is forming the generalized inverse of G from B-inverse, IUseBI=4.
 Internal  Forces:  Max     0.000004280 RMS     0.000000888
 Search for a local minimum.
 Step number   1 out of a maximum of  149
 All quantities printed in internal units (Hartrees-Bohrs-Radians)
 Mixed Optimization -- En-DIIS/RFO-DIIS
 Second derivative matrix not updated -- first step.
 ITU=  0
     Eigenvalues ---    0.00438   0.00611   0.00760   0.01113   0.01672
     Eigenvalues ---    0.01708   0.01953   0.02001   0.02131   0.02178
     Eigenvalues ---    0.02184   0.02201   0.02226   0.02250   0.02271
     Eigenvalues ---    0.02278   0.02288   0.02516   0.03884   0.05007
     Eigenvalues ---    0.05451   0.05547   0.05580   0.05744   0.08046
     Eigenvalues ---    0.10540   0.10850   0.11237   0.11960   0.13577
     Eigenvalues ---    0.15976   0.16000   0.16000   0.16000   0.16000
     Eigenvalues ---    0.16000   0.16000   0.21890   0.21983   0.22009
     Eigenvalues ---    0.23486   0.23506   0.23512   0.24996   0.25000
     Eigenvalues ---    0.25000   0.25000   0.25000   0.25000   0.25000
     Eigenvalues ---    0.25000   0.25000   0.29907   0.30900   0.31177
     Eigenvalues ---    0.32332   0.34421   0.34422   0.34480   0.34481
     Eigenvalues ---    0.34582   0.34595   0.34677   0.35537   0.35595
     Eigenvalues ---    0.36104   0.39076   0.42540   0.43008   0.45466
     Eigenvalues ---    0.45826   0.46382   0.46599   0.47913   0.48481
     Eigenvalues ---    0.52296   0.55993   0.56134   0.57713   0.57733
     Eigenvalues ---    0.97647
 RFO step:  Lambda= 0.00000000D+00 EMin= 4.37662263D-03
 Linear search not attempted -- first point.
 Iteration  1 RMS(Cart)=  0.00003661 RMS(Int)=  0.00000000
 Iteration  2 RMS(Cart)=  0.00000000 RMS(Int)=  0.00000000
 Variable       Old X    -DE/DX   Delta X   Delta X   Delta X     New X
                                 (Linear)    (Quad)   (Total)
    R1        2.64328   0.00000   0.00000   0.00001   0.00001   2.64329
    R2        2.64688   0.00000   0.00000   0.00001   0.00001   2.64689
    R3        2.63617  -0.00000   0.00000  -0.00000  -0.00000   2.63617
    R4        2.57617   0.00000   0.00000   0.00000   0.00000   2.57617
    R5        1.91438  -0.00000   0.00000  -0.00000  -0.00000   1.91438
    R6        2.29596   0.00000   0.00000   0.00000   0.00000   2.29596
    R7        2.52781   0.00000   0.00000   0.00000   0.00000   2.52782
    R8        2.72829  -0.00000   0.00000  -0.00001  -0.00001   2.72828
    R9        2.85676  -0.00000   0.00000  -0.00000  -0.00000   2.85676
   R10        2.06338  -0.00000   0.00000  -0.00000  -0.00000   2.06338
   R11        2.06358  -0.00000   0.00000  -0.00000  -0.00000   2.06358
   R12        2.88149  -0.00000   0.00000  -0.00000  -0.00000   2.88149
   R13        2.06625  -0.00000   0.00000  -0.00000  -0.00000   2.06625
   R14        2.06623  -0.00000   0.00000  -0.00000  -0.00000   2.06623
   R15        2.06526  -0.00000   0.00000  -0.00000  -0.00000   2.06526
   R16        2.06202  -0.00000   0.00000  -0.00000  -0.00000   2.06202
   R17        2.06527  -0.00000   0.00000  -0.00000  -0.00000   2.06527
   R18        2.61104  -0.00000   0.00000  -0.00000  -0.00000   2.61104
   R19        2.04812   0.00000   0.00000   0.00000   0.00000   2.04812
   R20        2.63352   0.00000   0.00000   0.00000   0.00000   2.63352
   R21        2.83541   0.00000   0.00000   0.00000   0.00000   2.83541
   R22        2.61254  -0.00000   0.00000  -0.00000  -0.00000   2.61254
   R23        2.04720   0.00000   0.00000   0.00000   0.00000   2.04720
   R24        2.62741   0.00000   0.00000   0.00000   0.00000   2.62741
   R25        3.29903   0.00000   0.00000   0.00000   0.00000   3.29903
   R26        2.03919  -0.00000   0.00000  -0.00000  -0.00000   2.03919
   R27        2.54138   0.00000   0.00000   0.00001   0.00001   2.54138
   R28        2.54260   0.00000   0.00000   0.00001   0.00001   2.54261
   R29        2.52797   0.00000   0.00000   0.00000   0.00000   2.52797
    A1        2.03490  -0.00000   0.00000  -0.00000  -0.00000   2.03490
    A2        2.15790   0.00000   0.00000   0.00001   0.00001   2.15790
    A3        2.09025  -0.00000   0.00000  -0.00000  -0.00000   2.09025
    A4        2.22594   0.00000   0.00000   0.00001   0.00001   2.22596
    A5        2.03413  -0.00000   0.00000  -0.00001  -0.00001   2.03413
    A6        2.02031  -0.00000   0.00000  -0.00001  -0.00001   2.02030
    A7        2.19896   0.00000   0.00000   0.00001   0.00001   2.19896
    A8        1.91590  -0.00000   0.00000  -0.00001  -0.00001   1.91590
    A9        2.16832   0.00000   0.00000   0.00000   0.00000   2.16832
   A10        2.02779  -0.00000   0.00000  -0.00000  -0.00000   2.02778
   A11        1.87712  -0.00000   0.00000  -0.00001  -0.00001   1.87711
   A12        1.89554   0.00000   0.00000  -0.00000  -0.00000   1.89554
   A13        1.89470   0.00000   0.00000  -0.00000  -0.00000   1.89469
   A14        1.94689   0.00000   0.00000   0.00001   0.00001   1.94689
   A15        1.94724   0.00000   0.00000   0.00000   0.00000   1.94725
   A16        1.90093  -0.00000   0.00000   0.00000   0.00000   1.90093
   A17        1.92829  -0.00000   0.00000   0.00000   0.00000   1.92829
   A18        1.90447  -0.00000   0.00000  -0.00000  -0.00000   1.90447
   A19        1.90467   0.00000   0.00000   0.00000   0.00000   1.90467
   A20        1.92508   0.00000   0.00000   0.00000   0.00000   1.92508
   A21        1.92507   0.00000   0.00000   0.00000   0.00000   1.92508
   A22        1.87531  -0.00000   0.00000  -0.00000  -0.00000   1.87531
   A23        1.93938   0.00000   0.00000   0.00000   0.00000   1.93938
   A24        1.93496   0.00000   0.00000   0.00000   0.00000   1.93496
   A25        1.93977   0.00000   0.00000   0.00000   0.00000   1.93977
   A26        1.88216  -0.00000   0.00000  -0.00000  -0.00000   1.88215
   A27        1.88310  -0.00000   0.00000  -0.00000  -0.00000   1.88310
   A28        1.88210  -0.00000   0.00000  -0.00000  -0.00000   1.88210
   A29        2.08668  -0.00000   0.00000  -0.00000  -0.00000   2.08668
   A30        2.08618  -0.00000   0.00000  -0.00000  -0.00000   2.08617
   A31        2.11033   0.00000   0.00000   0.00000   0.00000   2.11033
   A32        2.12901   0.00000   0.00000   0.00000   0.00000   2.12901
   A33        2.10009  -0.00000   0.00000  -0.00000  -0.00000   2.10008
   A34        2.05409  -0.00000   0.00000  -0.00000  -0.00000   2.05409
   A35        2.04440  -0.00000   0.00000  -0.00000  -0.00000   2.04440
   A36        2.12002   0.00000   0.00000   0.00000   0.00000   2.12002
   A37        2.11877   0.00000   0.00000   0.00000   0.00000   2.11877
   A38        2.14543   0.00000   0.00000   0.00000   0.00000   2.14543
   A39        2.07411  -0.00000   0.00000  -0.00000  -0.00000   2.07411
   A40        2.06364  -0.00000   0.00000  -0.00000  -0.00000   2.06364
   A41        2.07057   0.00000   0.00000   0.00000   0.00000   2.07057
   A42        2.11629   0.00000   0.00000   0.00000   0.00000   2.11629
   A43        2.09631  -0.00000   0.00000  -0.00000  -0.00000   2.09631
   A44        1.95037  -0.00000   0.00000  -0.00000  -0.00000   1.95037
   A45        1.94989  -0.00000   0.00000  -0.00000  -0.00000   1.94989
   A46        1.97149  -0.00000   0.00000  -0.00000  -0.00000   1.97149
   A47        1.85352   0.00000   0.00000   0.00000   0.00000   1.85352
   A48        1.86653   0.00000   0.00000   0.00000   0.00000   1.86653
   A49        1.86512   0.00000   0.00000   0.00000   0.00000   1.86512
    D1       -2.95678   0.00000   0.00000   0.00000   0.00000  -2.95678
    D2        0.10042   0.00000   0.00000   0.00004   0.00004   0.10047
    D3        0.20223  -0.00000   0.00000   0.00000   0.00000   0.20223
    D4       -3.02375   0.00000   0.00000   0.00004   0.00004  -3.02372
    D5       -3.12813   0.00000   0.00000   0.00001   0.00001  -3.12812
    D6        0.01474   0.00000   0.00000   0.00000   0.00000   0.01474
    D7       -0.00323   0.00000   0.00000   0.00001   0.00001  -0.00322
    D8        3.13963   0.00000   0.00000   0.00001   0.00001   3.13964
    D9        3.13183  -0.00000   0.00000  -0.00000  -0.00000   3.13183
   D10       -0.00306  -0.00000   0.00000  -0.00001  -0.00001  -0.00306
   D11        0.00817  -0.00000   0.00000  -0.00001  -0.00001   0.00817
   D12       -3.12671  -0.00000   0.00000  -0.00001  -0.00001  -3.12672
   D13       -0.02858  -0.00000   0.00000  -0.00002  -0.00002  -0.02861
   D14        3.11171   0.00000   0.00000   0.00003   0.00003   3.11174
   D15       -3.08636  -0.00000   0.00000  -0.00006  -0.00006  -3.08642
   D16        0.05394  -0.00000   0.00000  -0.00001  -0.00001   0.05392
   D17       -3.13953  -0.00000   0.00000  -0.00003  -0.00003  -3.13956
   D18        0.00079   0.00000   0.00000   0.00002   0.00002   0.00081
   D19        3.13669  -0.00000   0.00000  -0.00001  -0.00001   3.13668
   D20        1.02729  -0.00000   0.00000  -0.00001  -0.00001   1.02727
   D21       -1.03714  -0.00000   0.00000  -0.00001  -0.00001  -1.03716
   D22        3.13693  -0.00000   0.00000  -0.00001  -0.00001   3.13693
   D23        1.01761  -0.00000   0.00000  -0.00001  -0.00001   1.01760
   D24       -1.02681   0.00000   0.00000  -0.00000  -0.00000  -1.02681
   D25       -1.06946  -0.00000   0.00000  -0.00001  -0.00001  -1.06947
   D26        3.09440  -0.00000   0.00000  -0.00001  -0.00001   3.09439
   D27        1.04999  -0.00000   0.00000  -0.00001  -0.00001   1.04998
   D28        1.06096   0.00000   0.00000  -0.00000  -0.00000   1.06096
   D29       -1.05836   0.00000   0.00000  -0.00000  -0.00000  -1.05837
   D30       -3.10278   0.00000   0.00000   0.00000   0.00000  -3.10278
   D31       -1.04905   0.00000   0.00000   0.00000   0.00000  -1.04905
   D32        3.14127   0.00000   0.00000   0.00000   0.00000   3.14127
   D33        1.04822   0.00000   0.00000   0.00000   0.00000   1.04822
   D34        1.05802   0.00000   0.00000   0.00000   0.00000   1.05802
   D35       -1.03484   0.00000   0.00000   0.00000   0.00000  -1.03484
   D36       -3.12789  -0.00000   0.00000   0.00000   0.00000  -3.12789
   D37        3.12681   0.00000   0.00000   0.00000   0.00000   3.12681
   D38        1.03395  -0.00000   0.00000   0.00000   0.00000   1.03395
   D39       -1.05910  -0.00000   0.00000   0.00000   0.00000  -1.05910
   D40       -0.00374  -0.00000   0.00000  -0.00001  -0.00001  -0.00375
   D41        3.13546  -0.00000   0.00000  -0.00001  -0.00001   3.13545
   D42        3.13656  -0.00000   0.00000  -0.00000  -0.00000   3.13656
   D43       -0.00743  -0.00000   0.00000  -0.00000  -0.00000  -0.00743
   D44        0.00539  -0.00000   0.00000  -0.00000  -0.00000   0.00539
   D45       -3.13725   0.00000   0.00000   0.00000   0.00000  -3.13724
   D46       -3.13387  -0.00000   0.00000  -0.00000  -0.00000  -3.13387
   D47        0.00668   0.00000   0.00000   0.00000   0.00000   0.00669
   D48        2.14233  -0.00000   0.00000   0.00000   0.00000   2.14233
   D49       -2.06688   0.00000   0.00000   0.00001   0.00001  -2.06688
   D50        0.03663   0.00000   0.00000   0.00000   0.00000   0.03664
   D51       -1.00156  -0.00000   0.00000   0.00000   0.00000  -1.00156
   D52        1.07242   0.00000   0.00000   0.00000   0.00000   1.07242
   D53       -3.10726   0.00000   0.00000   0.00000   0.00000  -3.10725
   D54       -0.00014   0.00000   0.00000   0.00001   0.00001  -0.00014
   D55        3.13732   0.00000   0.00000   0.00001   0.00001   3.13732
   D56       -3.14069   0.00000   0.00000   0.00000   0.00000  -3.14069
   D57       -0.00323   0.00000   0.00000   0.00000   0.00000  -0.00323
   D58       -0.00658  -0.00000   0.00000  -0.00000  -0.00000  -0.00658
   D59        3.12838   0.00000   0.00000   0.00000   0.00000   3.12838
   D60        3.13912  -0.00000   0.00000  -0.00000  -0.00000   3.13912
   D61       -0.00910   0.00000   0.00000   0.00000   0.00000  -0.00910
         Item               Value     Threshold  Converged?
 Maximum Force            0.000004     0.000450     YES
 RMS     Force            0.000001     0.000300     YES
 Maximum Displacement     0.000114     0.001800     YES
 RMS     Displacement     0.000037     0.001200     YES
 Predicted change in Energy=-2.596546D-10
 Optimization completed.
    -- Stationary point found.
                           ----------------------------
                           !   Optimized Parameters   !
                           ! (Angstroms and Degrees)  !
 --------------------------                            --------------------------
 ! Name  Definition              Value          Derivative Info.                !
 --------------------------------------------------------------------------------
 ! R1    R(1,2)                  1.3988         -DE/DX =    0.0                 !
 ! R2    R(1,9)                  1.4007         -DE/DX =    0.0                 !
 ! R3    R(1,13)                 1.395          -DE/DX =    0.0                 !
 ! R4    R(2,3)                  1.3632         -DE/DX =    0.0                 !
 ! R5    R(2,14)                 1.013          -DE/DX =    0.0                 !
 ! R6    R(3,4)                  1.215          -DE/DX =    0.0                 !
 ! R7    R(3,5)                  1.3377         -DE/DX =    0.0                 !
 ! R8    R(5,6)                  1.4437         -DE/DX =    0.0                 !
 ! R9    R(6,7)                  1.5117         -DE/DX =    0.0                 !
 ! R10   R(6,15)                 1.0919         -DE/DX =    0.0                 !
 ! R11   R(6,16)                 1.092          -DE/DX =    0.0                 !
 ! R12   R(7,8)                  1.5248         -DE/DX =    0.0                 !
 ! R13   R(7,17)                 1.0934         -DE/DX =    0.0                 !
 ! R14   R(7,18)                 1.0934         -DE/DX =    0.0                 !
 ! R15   R(8,19)                 1.0929         -DE/DX =    0.0                 !
 ! R16   R(8,20)                 1.0912         -DE/DX =    0.0                 !
 ! R17   R(8,21)                 1.0929         -DE/DX =    0.0                 !
 ! R18   R(9,10)                 1.3817         -DE/DX =    0.0                 !
 ! R19   R(9,22)                 1.0838         -DE/DX =    0.0                 !
 ! R20   R(10,11)                1.3936         -DE/DX =    0.0                 !
 ! R21   R(10,25)                1.5004         -DE/DX =    0.0                 !
 ! R22   R(11,12)                1.3825         -DE/DX =    0.0                 !
 ! R23   R(11,26)                1.0833         -DE/DX =    0.0                 !
 ! R24   R(12,13)                1.3904         -DE/DX =    0.0                 !
 ! R25   R(12,23)                1.7458         -DE/DX =    0.0                 !
 ! R26   R(13,24)                1.0791         -DE/DX =    0.0                 !
 ! R27   R(25,27)                1.3448         -DE/DX =    0.0                 !
 ! R28   R(25,28)                1.3455         -DE/DX =    0.0                 !
 ! R29   R(25,29)                1.3377         -DE/DX =    0.0                 !
 ! A1    A(2,1,9)              116.5914         -DE/DX =    0.0                 !
 ! A2    A(2,1,13)             123.6385         -DE/DX =    0.0                 !
 ! A3    A(9,1,13)             119.7627         -DE/DX =    0.0                 !
 ! A4    A(1,2,3)              127.5371         -DE/DX =    0.0                 !
 ! A5    A(1,2,14)             116.5472         -DE/DX =    0.0                 !
 ! A6    A(3,2,14)             115.7551         -DE/DX =    0.0                 !
 ! A7    A(2,3,4)              125.9909         -DE/DX =    0.0                 !
 ! A8    A(2,3,5)              109.7733         -DE/DX =    0.0                 !
 ! A9    A(4,3,5)              124.2358         -DE/DX =    0.0                 !
 ! A10   A(3,5,6)              116.1836         -DE/DX =    0.0                 !
 ! A11   A(5,6,7)              107.5508         -DE/DX =    0.0                 !
 ! A12   A(5,6,15)             108.6064         -DE/DX =    0.0                 !
 ! A13   A(5,6,16)             108.5581         -DE/DX =    0.0                 !
 ! A14   A(7,6,15)             111.5484         -DE/DX =    0.0                 !
 ! A15   A(7,6,16)             111.5688         -DE/DX =    0.0                 !
 ! A16   A(15,6,16)            108.9151         -DE/DX =    0.0                 !
 ! A17   A(6,7,8)              110.4828         -DE/DX =    0.0                 !
 ! A18   A(6,7,17)             109.1181         -DE/DX =    0.0                 !
 ! A19   A(6,7,18)             109.1295         -DE/DX =    0.0                 !
 ! A20   A(8,7,17)             110.2988         -DE/DX =    0.0                 !
 ! A21   A(8,7,18)             110.2986         -DE/DX =    0.0                 !
 ! A22   A(17,7,18)            107.4473         -DE/DX =    0.0                 !
 ! A23   A(7,8,19)             111.1183         -DE/DX =    0.0                 !
 ! A24   A(7,8,20)             110.8648         -DE/DX =    0.0                 !
 ! A25   A(7,8,21)             111.1406         -DE/DX =    0.0                 !
 ! A26   A(19,8,20)            107.8396         -DE/DX =    0.0                 !
 ! A27   A(19,8,21)            107.8937         -DE/DX =    0.0                 !
 ! A28   A(20,8,21)            107.8363         -DE/DX =    0.0                 !
 ! A29   A(1,9,10)             119.5579         -DE/DX =    0.0                 !
 ! A30   A(1,9,22)             119.529          -DE/DX =    0.0                 !
 ! A31   A(10,9,22)            120.913          -DE/DX =    0.0                 !
 ! A32   A(9,10,11)            121.9832         -DE/DX =    0.0                 !
 ! A33   A(9,10,25)            120.3261         -DE/DX =    0.0                 !
 ! A34   A(11,10,25)           117.6906         -DE/DX =    0.0                 !
 ! A35   A(10,11,12)           117.1356         -DE/DX =    0.0                 !
 ! A36   A(10,11,26)           121.4681         -DE/DX =    0.0                 !
 ! A37   A(12,11,26)           121.3964         -DE/DX =    0.0                 !
 ! A38   A(11,12,13)           122.9239         -DE/DX =    0.0                 !
 ! A39   A(11,12,23)           118.8376         -DE/DX =    0.0                 !
 ! A40   A(13,12,23)           118.2381         -DE/DX =    0.0                 !
 ! A41   A(1,13,12)            118.6348         -DE/DX =    0.0                 !
 ! A42   A(1,13,24)            121.2543         -DE/DX =    0.0                 !
 ! A43   A(12,13,24)           120.1098         -DE/DX =    0.0                 !
 ! A44   A(10,25,27)           111.748          -DE/DX =    0.0                 !
 ! A45   A(10,25,28)           111.7206         -DE/DX =    0.0                 !
 ! A46   A(10,25,29)           112.9582         -DE/DX =    0.0                 !
 ! A47   A(27,25,28)           106.1986         -DE/DX =    0.0                 !
 ! A48   A(27,25,29)           106.9441         -DE/DX =    0.0                 !
 ! A49   A(28,25,29)           106.8634         -DE/DX =    0.0                 !
 ! D1    D(9,1,2,3)           -169.411          -DE/DX =    0.0                 !
 ! D2    D(9,1,2,14)             5.7539         -DE/DX =    0.0                 !
 ! D3    D(13,1,2,3)            11.5868         -DE/DX =    0.0                 !
 ! D4    D(13,1,2,14)         -173.2484         -DE/DX =    0.0                 !
 ! D5    D(2,1,9,10)          -179.2284         -DE/DX =    0.0                 !
 ! D6    D(2,1,9,22)             0.8447         -DE/DX =    0.0                 !
 ! D7    D(13,1,9,10)           -0.1853         -DE/DX =    0.0                 !
[...]
 0000007,-0.00000049,-0.00000081,0.00016788,0.00003937,-0.00003242,0.04
 116679,0.00219766,0.00477891,-0.00041206,0.00164387,-0.00185283,-0.000
 17512,-0.00262050,-0.00108172,-0.00031971,0.00082271,0.00073472,0.0002
 0503,0.00120117,-0.00034285,-0.00006206,-0.00030744,-0.00012477,-0.000
 03801,0.00004820,0.00006016,0.00001380,0.00000532,-0.00003711,-0.00000
 834,0.00044706,-0.00298862,-0.00030460,-0.00673492,0.00134025,0.000348
 41,0.00500752,-0.04182194,-0.00456036,0.01462498,-0.16262972,-0.013937
 40,0.00644377,-0.03416149,-0.00372760,0.00039658,0.00018534,0.00012801
 ,0.00005418,0.00001240,0.00000856,0.00005544,0.00001549,0.00000074,-0.
 00000062,-0.00000550,-0.00000323,-0.00000181,-0.00000590,0.00000050,0.
 00000112,0.00000259,-0.00000137,0.00001706,0.00000245,0.00000087,0.000
 00092,0.00000157,0.00000239,0.00006924,-0.00005405,0.00002392,-0.02419
 552,0.23761135,0.00097243,-0.00000381,0.00504893,0.00008790,-0.0002121
 0,0.00001429,-0.00025618,-0.00011123,0.00000832,0.00005881,0.00008219,
 0.00004259,0.00010833,-0.00001503,-0.00001794,-0.00002575,-0.00000999,
 -0.00000312,0.00000458,0.00000551,0.00000077,0.00000044,-0.00000423,0.
 00000104,-0.00012783,-0.00021626,-0.00103842,0.00003118,-0.00026804,0.
 00505598,0.00021218,-0.00262114,0.00397664,0.00300891,-0.01394937,-0.0
 2422444,0.00081472,-0.00570028,0.00323559,0.00004022,0.00002960,-0.000
 12285,0.00000615,0.00000043,0.00000085,0.00000424,0.00000108,0.0000004
 6,-0.00000055,-0.00000034,-0.00000014,-0.00000015,-0.00000060,-0.00000
 003,0.00000007,0.00000016,-0.00000047,0.00000153,0.00000028,-0.0000000
 3,0.00000021,-0.00000009,0.00000012,-0.00003618,0.00003949,-0.00046136
 ,-0.00447127,0.02266170,0.01362389,0.01092037,0.00401759,-0.00022382,-
 0.00153758,-0.00108227,-0.00048240,0.00081174,0.00315209,0.00060709,-0
 .00688341,0.00015895,-0.00076134,0.00001311,-0.00036602,-0.00007123,-0
 .00013093,-0.00003842,0.00000523,0.00000460,0.00001181,0.00000369,0.00
 000282,-0.00000731,-0.00000229,0.00024741,0.00211255,0.00058211,0.0003
 2403,0.00103611,0.00000873,-0.00290763,0.00251854,0.00089460,-0.017195
 27,-0.01559145,0.00037834,-0.23807405,-0.15104423,0.00560428,-0.000053
 12,-0.00009873,0.00004745,-0.00000105,0.00000716,0.00000817,-0.0000080
 7,0.00001181,-0.00000630,-0.00000006,-0.00000048,-0.00000136,0.0000002
 6,-0.00000171,0.00000063,0.00000040,0.00000065,0.00000004,0.00000276,0
 .00000040,0.00000001,0.00000054,0.00000068,0.00000026,0.00042428,0.000
 41315,0.00003624,0.00102714,-0.00120301,-0.00034224,0.25357687,-0.0240
 9730,-0.01212367,0.00053610,0.00021351,0.00217407,0.00067487,0.0005124
 4,-0.00405560,-0.00076774,-0.00109280,0.00229678,0.00016729,-0.0004338
 6,0.00088300,0.00026930,0.00024117,0.00008360,0.00002467,-0.00001337,-
 0.00002301,-0.00000178,0.00000015,0.00001789,0.00000311,0.00175042,-0.
 00472915,-0.00113047,0.00099885,-0.00071662,-0.00006641,0.00316334,-0.
 00042563,-0.00077744,0.01137675,0.01013677,-0.00029272,-0.15007453,-0.
 17815540,0.00101277,-0.00003666,-0.00003290,-0.00003223,-0.00001926,-0
 .00001242,0.00000305,-0.00002227,-0.00000833,-0.00001022,-0.00000496,0
 .00000733,0.00000253,-0.00000376,0.00000779,0.00000073,-0.00000096,-0.
 00000202,0.00000081,-0.00001026,-0.00000132,-0.00000045,-0.00000121,-0
 .00000144,-0.00000152,-0.00111655,-0.00050641,0.00003270,0.00138050,0.
 00072292,0.00004278,0.15684827,0.18382923,-0.00280095,-0.00200638,0.00
 523125,-0.00063964,0.00076542,-0.00357692,0.00019436,0.00049132,-0.000
 37800,-0.00013596,-0.00005423,0.00019413,-0.00012567,-0.00010016,0.000
 38470,0.00001830,-0.00001164,0.00010387,-0.00000640,-0.00000476,-0.000
 00083,0.00000059,0.00000166,0.00000176,0.00058394,-0.00122384,0.006338
 02,0.00001504,-0.00012616,-0.00070860,0.00108779,-0.00079588,0.0056450
 3,0.00263349,0.00220571,0.00253068,0.00558599,0.00019751,-0.03665273,0
 .00003155,0.00006438,-0.00036700,0.00002639,-0.00001235,-0.00002158,-0
 .00003371,0.00001921,-0.00001371,0.00000038,-0.00000275,-0.00000171,-0
 .00000024,0.00000266,-0.00000075,0.00000115,0.00000099,0.00000005,-0.0
 0000137,0.,-0.00000062,-0.00000106,-0.00000044,-0.00000112,-0.00015347
 ,-0.00006344,-0.00025739,-0.00014409,0.00025127,-0.00250926,-0.0061909
 1,0.00022823,0.02441508,-0.00669390,0.00317214,0.00126899,0.00444335,-
 0.00035425,-0.00014963,-0.00406343,-0.00172703,-0.00031400,0.00138184,
 0.00118676,0.00032301,0.00182694,-0.00061621,-0.00013839,-0.00047265,-
 0.00017328,-0.00007353,0.00006723,0.00009184,0.00002140,0.00000599,-0.
 00005548,-0.00001231,-0.02264038,-0.01282799,0.00036916,-0.17651819,-0
 .06138431,0.00214030,0.00999844,-0.00709681,-0.00126228,0.00497664,0.0
 0011810,0.00007686,0.00090385,0.00432961,0.00024913,-0.00007248,0.0003
 3404,0.00008001,0.00008425,0.00001741,0.00000996,0.00008781,0.00001812
 ,0.00000313,-0.00000094,-0.00000877,-0.00000566,-0.00000206,-0.0000104
 8,0.00000082,0.00000197,0.00000384,-0.00000130,0.00002681,0.00000271,0
 .00000122,0.00000130,0.00000291,0.00000290,-0.00029705,-0.00044144,-0.
 00035592,0.00036467,0.00421707,0.00033363,-0.00053476,0.00000612,-0.00
 001297,0.56576394,0.00247540,0.00131471,-0.00064127,0.00446744,0.00084
 822,0.00000528,-0.00290718,-0.00158910,-0.00051888,0.00093117,0.000921
 91,0.00023978,0.00158745,-0.00045513,-0.00006480,-0.00036664,-0.000173
 37,-0.00003664,0.00006165,0.00008146,0.00001728,0.00000782,-0.00004935
 ,-0.00001111,0.00131921,0.01671936,0.00141082,-0.06516843,-0.13899889,
 -0.00283656,-0.02365112,-0.01971415,-0.00032260,0.00034419,-0.00642537
 ,-0.00120628,0.00369624,-0.00046949,-0.00017588,0.00002692,0.00033938,
 0.00008836,0.00006858,0.00001745,0.00000796,0.00006536,0.00001719,0.00
 000366,0.00000019,-0.00000651,-0.00000727,-0.00000027,-0.00001037,0.00
 000431,-0.00000010,0.00000233,0.00000010,0.00002303,0.00000275,0.00000
 059,0.00000042,0.00000247,0.00000136,0.00228733,-0.00170450,0.00012344
 ,-0.00042087,0.00100424,0.00009997,-0.00028894,-0.00014528,0.00004689,
 0.04565310,0.56398574,0.00129974,-0.00060365,0.00712857,0.00011680,0.0
 0011571,0.00015383,0.00001478,0.00001090,-0.00010481,0.00001631,-0.000
 01909,0.00001974,0.00001704,0.00000183,-0.00002654,0.00000004,-0.00000
 478,0.00001641,0.00000335,0.00000155,0.00000408,0.00000084,-0.00000115
 ,-0.00000129,0.00214330,0.00242477,0.00252729,0.00195451,-0.00278494,-
 0.06586690,-0.00294683,-0.00121929,-0.00071506,0.00029116,-0.00112698,
 0.00618590,0.00025802,-0.00032941,-0.00115509,0.00001369,-0.00000174,0
 .00005019,0.00000047,-0.00000209,-0.00000263,0.00000065,0.00000231,-0.
 00000119,-0.00000053,-0.00000154,-0.00000227,-0.00000104,0.00000312,-0
 .00000007,0.00000103,0.00000175,-0.00000032,0.00000055,-0.00000018,0.0
 0000055,-0.00000088,-0.00000088,-0.00000111,-0.00009623,0.00027317,-0.
 00408943,-0.00006133,-0.00024991,0.00024845,-0.00002558,0.00003468,-0.
 00054700,-0.00442705,0.00535937,0.46637056,-0.00006088,-0.00067714,-0.
 00011266,0.00035152,0.00007682,-0.00005781,-0.00013303,-0.00023581,-0.
 00005947,-0.00013872,0.00017562,0.00000765,0.00000794,0.00001760,0.000
 01359,0.00000067,0.00000318,0.00000472,0.00000028,0.00000074,0.0000000
 8,0.00000007,0.00000034,-0.00000021,0.00156796,-0.00054080,0.00033310,
 0.00255816,0.00022576,0.00001920,-0.30680794,0.10239756,0.03014345,-0.
 01667686,0.01066239,0.00243124,-0.00156534,-0.00350720,0.00028574,-0.0
 0001842,0.00001570,-0.00000464,0.00000198,-0.00000108,-0.00000019,0.00
 000112,-0.00000020,-0.00000081,-0.00000029,0.00000022,0.00000003,-0.00
 000028,0.00000045,0.00000012,-0.00000006,-0.00000002,0.00000003,-0.000
 00005,0.00000010,0.00000002,-0.00000011,-0.00000004,-0.00000009,0.0001
 4839,-0.00015260,0.00001785,0.00087356,0.00077378,-0.00016822,-0.00049
 654,0.00054422,0.00012388,-0.00054358,-0.00029895,-0.00018803,0.320210
 61,-0.00036613,-0.00086966,0.00001889,0.00006991,0.00025363,0.00009269
 ,0.00002846,-0.00014894,-0.00002678,-0.00013869,0.00012156,0.00000108,
 -0.00000574,0.00004368,0.00000478,0.00000764,-0.00000112,-0.00000261,0
 .00000095,-0.00000001,-0.00000004,0.00000021,-0.00000005,0.00000016,-0
 .00101875,-0.00519129,-0.00099492,0.02765512,-0.00572818,-0.00293098,0
 .10409486,-0.10110837,-0.01432456,-0.01859435,0.00961247,0.00204495,-0
 .00319604,-0.00246853,-0.00045237,-0.00009691,0.00001190,0.00001415,-0
 .00000111,0.00000037,0.00000104,-0.00000025,-0.00000062,-0.00000040,-0
 .00000029,0.00000028,0.00000013,-0.00000019,0.00000021,-0.00000004,-0.
 00000001,-0.00000005,-0.00000003,-0.00000012,0.,-0.00000002,0.00000010
 ,-0.00000007,0.00000001,0.00134209,-0.00019005,-0.00016853,-0.00088790
 ,0.00094918,0.00032288,-0.00070407,0.00065426,0.00010966,0.00159999,-0
 .00031759,0.00010214,-0.10902563,0.10447231,-0.00019506,0.00004604,-0.
 00090470,0.00003881,0.00018618,-0.00058848,-0.00004739,0.00005889,-0.0
 0018965,0.00009724,-0.00000722,-0.00001077,-0.00000182,-0.00002871,0.0
 0009794,-0.00000194,-0.00000641,0.00002761,-0.00000009,0.00000044,0.00
 000019,-0.00000009,-0.00000003,-0.00000145,0.00016481,-0.00094401,0.00
 595891,0.00261525,-0.00084850,0.00252955,0.03034336,-0.01418164,-0.037
 40532,-0.00038538,-0.00009580,0.00257792,0.00042042,-0.00062430,0.0056
 3611,-0.00000660,-0.00003257,0.00006402,0.00000645,-0.00000471,-0.0000
 0592,-0.00000464,0.00000532,-0.00000253,0.00000004,-0.00000071,-0.0000
 0048,0.,0.00000053,-0.00000009,0.00000038,0.00000019,-0.00000013,0.000
 00020,0.00000002,-0.00000003,-0.00000035,-0.00000012,-0.00000018,0.000
 16000,-0.00004334,0.00053206,-0.00027053,0.00014775,-0.00267855,-0.000
 04822,0.00001241,0.00030695,0.00000769,0.00028679,-0.00301671,-0.03273
 512,0.01602731,0.02779623,-0.00005512,-0.00069844,-0.00206701,-0.00183
 652,-0.00036070,-0.00019851,0.00142747,0.00075572,0.00018461,-0.000490
 55,-0.00044257,-0.00013191,-0.00075789,0.00020361,0.00004985,0.0001862
 8,0.00008431,0.00003632,-0.00003097,-0.00003896,-0.00000772,-0.0000031
 1,0.00002370,0.00000478,0.00030995,-0.00522773,0.00104189,-0.02564964,
 0.00054260,0.03819798,-0.00137676,0.00149848,-0.00013282,-0.00032156,0
 .00143685,-0.00112082,-0.00122847,-0.00041614,0.00035496,0.00003193,-0
 .00013428,-0.00003426,-0.00003349,-0.00000794,-0.00000496,-0.00003341,
 -0.00000814,-0.00000094,0.00000057,0.00000313,0.00000198,0.00000098,0.
 00000438,-0.00000071,-0.00000067,-0.00000140,0.00000043,-0.00001109,-0
 .00000124,-0.00000044,-0.00000075,-0.00000133,-0.00000145,0.00035788,0
 .00012657,0.00095793,0.00000797,-0.00100469,-0.00003358,0.00019723,-0.
 00002308,0.00009575,-0.14119234,-0.00423813,0.08865593,0.00031628,-0.0
 0046336,0.00070510,0.16118565,-0.00057427,-0.00042154,-0.00064808,-0.0
 0081267,-0.00013889,-0.00012866,0.00053619,0.00031518,0.00005906,-0.00
 016319,-0.00017326,-0.00004063,-0.00029230,0.00007918,0.00002052,0.000
 06715,0.00003018,0.00001232,-0.00001195,-0.00001518,-0.00000239,-0.000
 00165,0.00000951,0.00000187,-0.00010289,-0.00290904,0.00093623,-0.0147
 8592,0.00967383,0.01363883,-0.00026054,0.00021492,-0.00008552,0.000932
 04,0.00111879,0.00041525,-0.00091621,0.00042211,0.00012135,-0.00000303
 ,-0.00006111,-0.00000034,-0.00001179,-0.00000293,-0.00000152,-0.000012
 80,-0.00000342,-0.00000065,0.00000015,0.00000130,0.00000130,0.00000014
 ,0.00000180,-0.00000080,-0.00000009,-0.00000048,0.,-0.00000432,-0.0000
 0047,-0.00000023,-0.00000011,-0.00000047,-0.00000028,-0.00015903,0.000
 11763,0.00020146,0.00000981,-0.00027653,-0.00001091,0.00003482,0.00002
 480,-0.00004353,0.00045044,-0.07198203,-0.00562808,-0.00041769,-0.0003
 0383,-0.00007717,-0.02240883,0.08178166,0.00003814,-0.00033346,0.00058
 370,0.00123593,0.00033628,0.00013124,-0.00085916,-0.00051742,-0.000142
 69,0.00027782,0.00029706,0.00009440,0.00046355,-0.00010956,-0.00002250
 ,-0.00010947,-0.00005268,-0.00002270,0.00001938,0.00002361,0.00000493,
 0.00000202,-0.00001446,-0.00000302,0.00096308,0.00396712,-0.00071794,0
 .01727586,-0.00277446,-0.01191027,0.00025374,-0.00185682,0.00099406,0.
 00041182,-0.00047512,0.00036330,0.00027991,0.00039950,-0.00013548,-0.0
 0003837,0.00008547,0.00001317,0.00002011,0.00000518,0.00000378,0.00001
 982,0.00000483,0.00000092,-0.00000053,-0.00000150,-0.00000040,-0.00000
 041,-0.00000335,0.00000035,0.00000012,0.00000045,-0.00000019,0.0000066
 4,0.00000092,0.00000014,0.00000082,0.00000097,0.00000118,-0.00029590,0
 .00000379,-0.00023807,0.00001087,0.00064741,0.00001669,-0.00010614,0.0
 0004246,-0.00003506,0.09312950,0.00043256,-0.18004106,-0.00010448,0.00
 031900,-0.00041390,-0.13967198,0.03170704,0.30325236,0.00039462,-0.001
 09832,0.00210190,-0.00190781,-0.00035970,0.00013703,0.00152409,0.00080
 611,0.00018837,-0.00050554,-0.00047824,-0.00011507,-0.00079103,0.00022
 286,0.00002689,0.00019659,0.00008606,0.00002630,-0.00003258,-0.0000401
 8,-0.00001119,-0.00000251,0.00002417,0.00000517,0.00016450,-0.00491932
 ,-0.00187622,-0.03115876,0.00514327,-0.03551610,-0.00104269,0.00168110
 ,0.00067613,-0.00025133,0.00116267,0.00167872,-0.00124264,-0.00050480,
 -0.00035615,0.00003118,-0.00013719,-0.00006853,-0.00003548,-0.00000826
 ,-0.00000429,-0.00003417,-0.00000941,-0.00000091,0.00000056,0.00000361
 ,0.00000285,0.00000104,0.00000392,-0.00000033,-0.00000073,-0.00000193,
 0.00000064,-0.00001168,-0.00000138,-0.00000048,-0.00000024,-0.00000112
 ,-0.00000107,0.00021134,0.00029775,-0.00099632,-0.00001114,-0.00106877
 ,-0.00014339,0.00019725,-0.00000155,-0.00013686,-0.15828831,0.00912454
 ,-0.08966434,0.00020376,-0.00025427,-0.00085836,0.02027890,-0.00098529
 ,0.00176964,0.18794869,-0.00046361,-0.00067768,0.00057117,-0.00062032,
 -0.00007730,0.00009174,0.00043314,0.00022335,0.00010851,-0.00011554,-0
 .00013913,-0.00003568,-0.00022517,0.00007135,0.00000184,0.00005404,0.0
 0002545,0.00000299,-0.00000893,-0.00001126,-0.00000254,-0.00000093,0.0
 0000656,0.00000140,0.00003348,-0.00210019,-0.00121480,-0.01384032,0.01
 063051,-0.00951684,0.00000008,0.00033817,0.00028413,0.00099669,0.00108
 144,-0.00029167,-0.00091127,0.00049885,0.00007244,-0.00000799,-0.00004
 314,-0.00002017,-0.00001077,-0.00000253,-0.00000111,-0.00000899,-0.000
 00225,-0.00000041,-0.00000002,0.00000071,0.00000108,0.00000007,0.00000
 156,-0.00000075,0.00000014,-0.00000021,-0.00000010,-0.00000332,-0.0000
 0041,-0.00000004,0.,-0.00000037,-0.00000020,-0.00020797,0.00014026,-0.
 00016203,0.00001123,-0.00017484,-0.00003325,0.00003846,0.00001939,0.00
 004437,0.01394091,-0.07391077,0.01744816,-0.00019596,-0.00012235,0.000
 09748,-0.00015650,0.01133531,0.00529385,-0.04620089,0.09254812,-0.0000
 4956,0.00004550,0.00053352,-0.00116303,-0.00028871,0.00010018,0.000814
 03,0.00047237,0.00017399,-0.00025008,-0.00028011,-0.00007272,-0.000431
 59,0.00011225,0.00001275,0.00010245,0.00005063,-0.00000140,-0.00001718
 ,-0.00002164,-0.00000567,-0.00000199,0.00001306,0.00000391,-0.00096150
 ,-0.00346951,-0.00127404,-0.01740852,0.00493825,-0.00741215,-0.0000049
 4,0.00136857,0.00134022,-0.00012500,0.00047324,0.00030388,-0.00037396,
 -0.00020326,-0.00010571,0.00002939,-0.00007318,-0.00004611,-0.00001879
 ,-0.00000409,-0.00000194,-0.00001838,-0.00000552,-0.00000013,-0.000000
 12,0.00000266,0.00000206,0.00000067,0.00000137,-0.00000001,-0.00000068
 ,-0.00000132,0.00000050,-0.00000617,-0.00000070,-0.00000050,0.00000015
 ,-0.00000027,-0.00000019,0.00020252,0.00003092,-0.00020025,-0.00001595
 ,-0.00058469,-0.00008108,0.00008833,-0.00002615,-0.00003787,-0.0930117
 9,0.01260848,-0.15876049,0.00004743,-0.00019074,-0.00037387,-0.0129511
 2,0.00872356,-0.09297600,0.14461944,-0.05469266,0.26268933,0.00175110,
 -0.00071082,-0.00020010,-0.00080239,0.00003129,0.00003473,0.00073880,0
 .00037494,0.00007181,-0.00021093,-0.00025500,-0.00006625,-0.00032562,0
 .00009851,0.00002192,0.00008286,0.00003028,0.00001155,-0.00001145,-0.0
 0001616,-0.00000388,-0.00000106,0.00000980,0.00000198,-0.00333998,-0.0
 0130900,-0.00002439,0.00920321,-0.02468393,-0.00188227,-0.00428754,-0.
 00083306,0.00042849,0.00014421,-0.00055617,-0.00014537,-0.00026125,-0.
 00059322,-0.00000695,0.00006566,-0.00005337,-0.00002195,-0.00001501,-0
 .00000299,-0.00000186,-0.00001573,-0.00000343,-0.00000012,0.00000045,0
 .00000155,0.00000092,0.00000071,0.00000172,0.,-0.00000043,-0.00000076,
 0.00000042,-0.00000472,-0.00000040,-0.00000019,-0.00000023,-0.00000048
 ,-0.00000069,-0.00216758,-0.00337788,-0.00005340,-0.00016058,-0.000890
 39,-0.00008019,0.00007163,-0.00008334,-0.00001528,-0.07861496,0.025200
 60,0.00262363,0.00019981,-0.00004553,-0.00000417,-0.01127876,0.0398938
 3,0.02500765,-0.01583590,0.04747026,-0.01909406,0.10507570,0.00125900,
 -0.00026447,-0.00016259,-0.00181254,0.00002000,0.00006545,0.00134505,0
 .00063441,0.00013114,-0.00041788,-0.00040623,-0.00011127,-0.00062906,0
 .00021681,0.00004051,0.00015136,0.00005871,0.00002403,-0.00002274,-0.0
 0003249,-0.00000689,-0.00000333,0.00002002,0.00000412,0.00273392,-0.00
 181932,-0.00078356,0.01062789,-0.04530850,-0.00429339,-0.00972411,-0.0
 0094310,0.00067414,0.00122167,-0.00056276,-0.00020971,-0.00072575,-0.0
 0037989,0.00004953,-0.00002700,-0.00014171,-0.00001663,-0.00002872,-0.
 00000637,-0.00000253,-0.00002857,-0.00000572,-0.00000219,-0.00000026,0
 .00000258,0.00000315,-0.00000025,0.00000450,-0.00000196,0.00000010,-0.
 00000060,-0.00000028,-0.00000911,-0.00000100,-0.00000031,-0.00000010,-
 0.00000098,-0.00000033,-0.00203707,-0.00008342,0.00016520,-0.00041747,
 -0.00186367,-0.00012939,0.00006362,0.00008136,0.00001631,0.00955092,-0
 .26930533,-0.01380575,0.00015862,0.00033088,0.00002587,0.03095410,-0.0
 2883703,-0.03742868,0.03751455,-0.03965859,0.03100169,-0.07969684,0.38
 825194,-0.00004289,0.00006937,-0.00004452,-0.00006773,-0.00000255,0.00
 004696,0.00004476,0.00001059,0.00003045,-0.00001723,-0.00000704,-0.000
 00274,-0.00001962,0.00000608,0.00000465,0.00000532,0.00000222,-0.00000
 484,-0.00000032,-0.00000072,-0.00000237,-0.00000025,0.00000102,0.00000
 077,0.00012206,-0.00025517,-0.00022434,0.00060844,-0.00261077,0.007916
 85,-0.00026233,-0.00010881,0.00163765,-0.00003255,0.00003672,-0.000440
 91,-0.00000104,-0.00002292,0.00006389,-0.00001168,-0.00000234,-0.00001
 544,-0.00000126,0.00000037,0.00000055,-0.00000099,-0.00000071,0.000000
 07,-0.00000010,0.00000037,0.00000069,0.00000010,-0.00000030,0.00000003
 ,-0.00000016,-0.00000025,0.00000010,-0.00000034,0.00000004,-0.00000016
 ,0.00000019,0.00000008,0.00000022,-0.00002897,0.00026715,-0.00004661,-
 0.00002605,-0.00005588,-0.00013692,-0.00000335,0.00001865,-0.00004136,
 0.00174712,-0.01491570,-0.06837362,0.00000356,0.00003315,0.00006527,0.
 02607071,-0.04917002,-0.01880093,-0.02148344,0.04195307,-0.00381021,-0
 .00660197,0.02475430,0.08217680\\0.00000216,-0.00000007,0.00000052,-0.
 00000330,0.00000293,-0.00000115,0.00000126,-0.00000427,-0.00000231,0.0
 0000223,-0.00000315,0.00000285,-0.00000557,-0.00000152,0.00000073,0.00
 000090,-0.00000676,0.00000077,-0.00000222,-0.00000813,-0.00000049,-0.0
 0000136,-0.00001112,0.00000040,0.00000191,0.00000724,-0.00000165,-0.00
 000105,0.00000729,-0.00000054,0.00000384,0.00000675,0.00000049,0.00000
 485,0.00000682,0.00000172,0.00000366,0.00000352,0.00000192,-0.00000243
 ,-0.00000023,0.00000023,0.00000096,-0.00000805,0.00000131,0.00000204,-
 0.00000596,0.00000101,-0.00000296,-0.00000665,-0.00000130,-0.00000424,
 -0.00000849,-0.00000088,-0.00000017,-0.00001103,0.00000080,-0.00000353
 ,-0.00001286,-0.00000055,-0.00000145,-0.00001281,0.00000096,-0.0000036
 0,0.00000546,-0.00000220,0.00000784,0.00000599,0.00000322,0.00000504,0
 .00000150,0.00000202,-0.00000412,0.00001023,-0.00000172,0.00000379,0.0
 0001008,0.00000081,-0.00000004,0.00001018,-0.00000491,0.00000074,0.000
 01193,0.00000102,-0.00000516,0.00001120,-0.00000308\\\@


 THEORY:  SUPPOSITION WHICH HAS SCIENTIFIC BASIS,
          BUT NOT EXPERIMENTALLY PROVEN.
 FACT:    A THEORY WHICH HAS BEEN PROVEN BY ENOUGH 
          MONEY TO PAY FOR THE EXPERIMENTS.

                          --  THE WIZARD OF ID
 Job cpu time:       0 days  4 hours 11 minutes 45.2 seconds.
 File lengths (MBytes):  RWF=    659 Int=      0 D2E=      0 Chk=     22 Scr=      1
 Normal termination of Gaussian 09 at Thu Nov 14 16:52:09 2019.
pbs_rusage has been removed.
Please contact help@nci.org.au if you require this functionality.
