 Entering Gaussian System, Link 0=/apps/gaussian/g16c01/g16/g16
 Initial command:
 /apps/gaussian/g16c01/g16/l1.exe "/jobfs/11098725.gadi-pbs/Gau-411665.inp" -scrdir="/jobfs/11098725.gadi-pbs/"
 Entering Link 1 = /apps/gaussian/g16c01/g16/l1.exe PID=    411666.
  
 Copyright (c) 1988-2019, Gaussian, Inc.  All Rights Reserved.
  
 This is part of the Gaussian(R) 16 program.  It is based on
 the Gaussian(R) 09 system (copyright 2009, Gaussian, Inc.),
 the Gaussian(R) 03 system (copyright 2003, Gaussian, Inc.),
 the Gaussian(R) 98 system (copyright 1998, Gaussian, Inc.),
 the Gaussian(R) 94 system (copyright 1995, Gaussian, Inc.),
 the Gaussian 92(TM) system (copyright 1992, Gaussian, Inc.),
 the Gaussian 90(TM) system (copyright 1990, Gaussian, Inc.),
 the Gaussian 88(TM) system (copyright 1988, Gaussian, Inc.),
 the Gaussian 86(TM) system (copyright 1986, Carnegie Mellon
 University), and the Gaussian 82(TM) system (copyright 1983,
 Carnegie Mellon University). Gaussian is a federally registered
 trademark of Gaussian, Inc.
  
 This software contains proprietary and confidential information,
 including trade secrets, belonging to Gaussian, Inc.
  
 This software is provided under written license and may be
 used, copied, transmitted, or stored only in accord with that
 written license.
  
 The following legend is applicable only to US Government
 contracts under FAR:
  
                    RESTRICTED RIGHTS LEGEND
  
 Use, reproduction and disclosure by the US Government is
 subject to restrictions as set forth in subparagraphs (a)
 and (c) of the Commercial Computer Software - Restricted
 Rights clause in FAR 52.227-19.
  
 Gaussian, Inc.
 340 Quinnipiac St., Bldg. 40, Wallingford CT 06492
  
  
 ---------------------------------------------------------------
 Warning -- This program may not be used in any manner that
 competes with the business of Gaussian, Inc. or will provide
 assistance to any competitor of Gaussian, Inc.  The licensee
 of this program is prohibited from giving any competitor of
 Gaussian, Inc. access to this program.  By using this program,
 the user acknowledges that Gaussian, Inc. is engaged in the
 business of creating and licensing software in the field of
 computational chemistry and represents and warrants to the
 licensee that it is not a competitor of Gaussian, Inc. and that
 it will not use this program in any manner prohibited above.
 ---------------------------------------------------------------
  

 Cite this work as:
 Gaussian 16, Revision C.01,
 M. J. Frisch, G. W. Trucks, H. B. Schlegel, G. E. Scuseria, 
 M. A. Robb, J. R. Cheeseman, G. Scalmani, V. Barone, 
 G. A. Petersson, H. Nakatsuji, X. Li, M. Caricato, A. V. Marenich, 
 J. Bloino, B. G. Janesko, R. Gomperts, B. Mennucci, H. P. Hratchian, 
 J. V. Ortiz, A. F. Izmaylov, J. L. Sonnenberg, D. Williams-Young, 
 F. Ding, F. Lipparini, F. Egidi, J. Goings, B. Peng, A. Petrone, 
 T. Henderson, D. Ranasinghe, V. G. Zakrzewski, J. Gao, N. Rega, 
 G. Zheng, W. Liang, M. Hada, M. Ehara, K. Toyota, R. Fukuda, 
 J. Hasegawa, M. Ishida, T. Nakajima, Y. Honda, O. Kitao, H. Nakai, 
 T. Vreven, K. Throssell, J. A. Montgomery, Jr., J. E. Peralta, 
 F. Ogliaro, M. J. Bearpark, J. J. Heyd, E. N. Brothers, K. N. Kudin, 
 V. N. Staroverov, T. A. Keith, R. Kobayashi, J. Normand, 
 K. Raghavachari, A. P. Rendell, J. C. Burant, S. S. Iyengar, 
 J. Tomasi, M. Cossi, J. M. Millam, M. Klene, C. Adamo, R. Cammi, 
 J. W. Ochterski, R. L. Martin, K. Morokuma, O. Farkas, 
 J. B. Foresman, and D. J. Fox, Gaussian, Inc., Wallingford CT, 2019.
 
 ******************************************
 Gaussian 16:  ES64L-G16RevC.01  3-Jul-2019
                10-Sep-2020 
 ******************************************
 %NprocShared=8
 Will use up to    8 processors via shared memory.
 %Mem=192000MB
 %chk=NM2CA_c2.DSDPBEP86_AUG-cc-PVTZ.chk
 ---------------------------------------------------------------------
 # DSDPBEP86/AUG-cc-PVTZ SCF=Tight INT(grid=ultrafine) MaxDisk=60000MB
 ---------------------------------------------------------------------
 1/38=1,172=1/1;
 2/12=2,17=6,18=5,40=1/2;
 3/5=16,6=1,7=10,11=9,25=1,30=1,74=-77,75=-5/1,2,3;
 4//1;
 5/5=2,32=2,38=5/2;
 8/10=1/1;
 9/16=-3/6;
 6/7=2,8=2,9=2,10=2/1;
 99/5=1,9=1/99;
 ------------------------------
 NM2CA_c2.DSDPBEP86_AUG-cc-PVTZ
 ------------------------------
 Symbolic Z-matrix:
 Charge =  0 Multiplicity = 1
 C                    -5.81651   1.50248   0.22126 
 N                    -4.57911   0.85891   0.16426 
 C                    -3.33781   1.44448   0.08081 
 O                    -3.10742   2.62469   0.04944 
 O                    -2.40649   0.48017   0.03914 
 C                    -1.04714   0.93803  -0.04934 
 C                    -0.15327  -0.28216  -0.09328 
 C                     1.31549   0.12224  -0.18701 
 C                    -6.95415   0.68996   0.28999 
 C                    -8.22508   1.23472   0.34583 
 C                    -8.38707   2.62733   0.34553 
 C                    -7.25225   3.42516   0.2717 
 C                    -5.97345   2.88787   0.21079 
 H                    -4.57797  -0.15053   0.17716 
 H                    -0.83178   1.56849   0.81674 
 H                    -0.94087   1.55206  -0.94686 
 H                    -0.43452  -0.89879  -0.95121 
 H                    -0.32686  -0.88326   0.80333 
 H                     1.50895   0.70928  -1.08806 
 H                     1.9614   -0.75588  -0.21925 
 H                     1.6172    0.72425   0.6735 
 H                    -6.8412   -0.38781   0.29153 
 H                    -5.11196   3.53533   0.15673 
 C                    -9.73282   3.30954   0.38121 
 C                    -9.38539   0.2676    0.44695 
 H                    -7.36389   4.5018    0.2685 
 F                    -10.56886   2.74505   1.25881 
 F                    -10.33622   3.29757  -0.81528 
 F                    -9.61012   4.59811   0.7343 
 F                    -9.01896  -0.96926   0.07321 
 F                    -10.40868   0.62013  -0.33351 
 F                    -9.84052   0.16792   1.70114 
 
                          Input orientation:                          
 ---------------------------------------------------------------------
 Center     Atomic      Atomic             Coordinates (Angstroms)
 Number     Number       Type             X           Y           Z
 ---------------------------------------------------------------------
      1          6           0       -5.816510    1.502476    0.221260
      2          7           0       -4.579106    0.858914    0.164256
      3          6           0       -3.337808    1.444480    0.080809
      4          8           0       -3.107425    2.624687    0.049442
      5          8           0       -2.406493    0.480166    0.039136
      6          6           0       -1.047136    0.938034   -0.049338
      7          6           0       -0.153274   -0.282158   -0.093282
      8          6           0        1.315486    0.122241   -0.187005
      9          6           0       -6.954149    0.689956    0.289992
     10          6           0       -8.225079    1.234724    0.345827
     11          6           0       -8.387075    2.627334    0.345535
     12          6           0       -7.252251    3.425156    0.271701
     13          6           0       -5.973445    2.887873    0.210785
     14          1           0       -4.577971   -0.150529    0.177164
     15          1           0       -0.831776    1.568493    0.816744
     16          1           0       -0.940866    1.552059   -0.946863
     17          1           0       -0.434521   -0.898790   -0.951205
     18          1           0       -0.326858   -0.883263    0.803329
     19          1           0        1.508947    0.709277   -1.088056
     20          1           0        1.961405   -0.755877   -0.219247
     21          1           0        1.617198    0.724253    0.673499
     22          1           0       -6.841204   -0.387811    0.291533
     23          1           0       -5.111963    3.535327    0.156734
     24          6           0       -9.732821    3.309536    0.381205
     25          6           0       -9.385393    0.267595    0.446949
     26          1           0       -7.363890    4.501800    0.268496
     27          9           0      -10.568858    2.745049    1.258809
     28          9           0      -10.336222    3.297569   -0.815276
     29          9           0       -9.610124    4.598114    0.734299
     30          9           0       -9.018959   -0.969256    0.073208
     31          9           0      -10.408677    0.620130   -0.333513
     32          9           0       -9.840521    0.167921    1.701141
 ---------------------------------------------------------------------
                    Distance matrix (angstroms):
                    1          2          3          4          5
     1  C    0.000000
     2  N    1.395919   0.000000
     3  C    2.483356   1.375018   0.000000
     4  O    2.937350   2.301518   1.202892   0.000000
     5  O    3.564618   2.208926   1.341262   2.256188   0.000000
     6  C    4.810275   3.539307   2.349596   2.664460   1.437123
     7  C    5.946100   4.577812   3.626685   4.146942   2.382367
     8  C    7.275789   5.950823   4.844913   5.087267   3.745982
     9  C    1.399691   2.384362   3.700134   4.312579   4.559398
    10  C    2.426605   3.669784   4.898944   5.311330   5.875317
    11  C    2.808657   4.202475   5.192718   5.287947   6.361727
    12  C    2.400124   3.707134   4.391171   4.227260   5.675246
    13  C    1.394297   2.462320   3.007800   2.882598   4.306932
    14  H    2.065998   1.009526   2.022707   3.143349   2.265424
    15  H    5.020611   3.869332   2.614799   2.623524   2.066123
    16  H    5.013868   3.866759   2.610174   2.614791   2.066207
    17  H    6.008873   4.638035   3.871051   4.534380   2.602109
    18  H    6.013887   4.639527   3.873789   4.539341   2.601502
    19  H    7.483702   6.217321   5.039623   5.125777   4.080898
    20  H    8.111114   6.747808   5.745716   6.098643   4.546768
    21  H    7.488001   6.218653   5.042032   5.130610   4.080697
    22  H    2.151307   2.586041   3.959227   4.803630   4.525897
    23  H    2.152449   2.728953   2.743180   2.204303   4.082573
    24  C    4.316079   5.710813   6.668198   6.668955   7.861133
    25  C    3.783224   4.850769   6.171904   6.717646   6.994036
    26  H    3.375286   4.586557   5.058831   4.657148   6.387638
    27  F    5.020489   6.374377   7.440918   7.559765   8.558125
    28  F    4.972380   6.328579   7.294842   7.311362   8.458628
    29  F    4.923179   6.294260   7.050845   6.829974   8.326647
    30  F    4.048093   4.802373   6.172654   6.918326   6.769541
    31  F    4.708960   5.855654   7.130807   7.581107   8.012078
    32  F    4.490407   5.524670   6.822050   7.355162   7.623945
                    6          7          8          9         10
     6  C    0.000000
     7  C    1.513205   0.000000
     8  C    2.503289   1.526296   0.000000
     9  C    5.921950   6.880684   8.302812   0.000000
    10  C    7.194932   8.224827   9.619974   1.383890   0.000000
    11  C    7.542172   8.743751  10.034878   2.410352   1.402001
    12  C    6.692704   8.017036   9.193790   2.751458   2.397891
    13  C    5.304532   6.634452   7.806118   2.408089   2.796603
    14  H    3.701765   4.434908   5.910995   2.522968   3.904967
    15  H    1.092683   2.171042   2.776669   6.207475   7.415800
    16  H    1.092644   2.171003   2.777209   6.199403   7.404829
    17  H    2.136021   1.093328   2.165417   6.824239   8.180890
    18  H    2.136109   1.093330   2.165431   6.830778   8.190059
    19  H    2.768543   2.176120   1.092672   8.574578   9.853090
    20  H    3.456808   2.170747   1.090570   9.046373  10.394530
    21  H    2.768912   2.176095   1.092665   8.579991   9.860951
    22  H    5.953594   6.699825   8.186620   1.083670   2.133232
    23  H    4.828169   6.262931   7.285562   3.392278   3.875567
    24  C    9.013906  10.241734  11.512897   3.819887   2.565030
    25  C    8.379875   9.264237  10.720626   2.472644   1.513900
    26  H    7.259671   8.660838   9.732399   3.833863   3.379557
    27  F    9.779557  10.930532  12.255902   4.269442   2.933926
    28  F    9.614634  10.817955  12.092962   4.411313   3.171816
    29  F    9.345322  10.673985  11.842770   4.746084   3.658094
    30  F    8.197727   8.893829  10.395183   2.657710   2.358410
    31  F    9.371247  10.297821  11.735645   3.511039   2.367980
    32  F    8.998937   9.862317  11.314755   3.254997   2.363176
                   11         12         13         14         15
    11  C    0.000000
    12  C    1.389171   0.000000
    13  C    2.431387   1.388426   0.000000
    14  H    4.717430   4.466120   3.343705   0.000000
    15  H    7.643672   6.705726   5.342725   4.171100   0.000000
    16  H    7.633644   6.695294   5.333985   4.170224   1.767054
    17  H    8.795351   8.165381   6.809458   4.359047   3.061200
    18  H    8.803463   8.173504   6.815902   4.359008   2.503244
    19  H   10.181620   9.272730   7.900599   6.276195   3.137754
    20  H   10.902116  10.129833   8.742064   6.579288   3.778602
    21  H   10.188952   9.280271   7.906530   6.276282   2.594366
    22  H    3.388766   3.835111   3.389636   2.278510   6.341624
    23  H    3.403888   2.146203   1.079014   3.724393   4.756475
    24  C    1.509206   2.485677   3.786786   6.211776   9.080172
    25  C    2.564233   3.814603   4.308481   4.833106   8.659875
    26  H    2.136928   1.082421   2.131062   5.423453   7.181460
    27  F    2.368144   3.526587   4.715567   6.741295   9.817865
    28  F    2.365560   3.272412   4.500497   6.784672   9.797331
    29  F    2.351799   2.673835   4.052706   6.941367   9.286808
    30  F    3.661817   4.740413   4.916455   4.517023   8.603661
    31  F    2.928626   4.265851   5.011007   5.903544   9.692240
    32  F    3.162102   4.399094   4.957174   5.488019   9.159763
                   16         17         18         19         20
    16  H    0.000000
    17  H    2.502611   0.000000
    18  H    3.061204   1.757903   0.000000
    19  H    2.594572   2.526198   3.079562   0.000000
    20  H    3.778779   2.509312   2.509589   1.762448   0.000000
    21  H    3.139192   3.079527   2.525929   1.764942   1.762459
    22  H    6.333301   6.546074   6.553176   8.534161   8.825094
    23  H    4.748613   6.539678   6.545170   7.305650   8.281807
    24  C    9.063716  10.292896  10.306789  11.631742  12.395283
    25  C    8.654628   9.134188   9.138300  11.010811  11.412323
    26  H    7.171701   8.869622   8.877205   9.744265  10.716444
    27  F    9.949193  10.993931  10.875232  12.470988  13.093839
    28  F    9.557031  10.755073  10.967526  12.127725  12.962149
    29  F    9.341348  10.828138  10.780969  11.919639  12.785725
    30  F    8.523682   8.645633   8.723136  10.723937  10.986330
    31  F    9.533317  10.108039  10.256494  11.941819  12.446902
    32  F    9.387844   9.830852   9.613576  11.699706  11.992779
                   21         22         23         24         25
    21  H    0.000000
    22  H    8.539739   0.000000
    23  H    7.311005   4.289459   0.000000
    24  C   11.644400   4.694663   4.631814   0.000000
    25  C   11.014393   2.631845   5.387439   3.062423   0.000000
    26  H    9.751606   4.917522   2.453107   2.654436   4.695403
    27  F   12.366332   4.964458   5.622883   1.337084   2.863125
    28  F   12.317575   5.198289   5.319231   1.340077   3.417313
    29  F   11.877005   5.720350   4.657956   1.341701   4.345856
    30  F   10.786851   2.264589   5.963461   4.348853   1.343040
    31  F   12.068412   3.759453   6.065797   2.863653   1.334358
    32  F   11.517156   3.360318   6.006987   3.409337   1.337937
                   26         27         28         29         30
    26  H    0.000000
    27  F    3.786649   0.000000
    28  F    3.385188   2.158988   0.000000
    29  F    2.296044   2.151309   2.149377   0.000000
    30  F    5.719252   4.195700   4.553063   5.637564   0.000000
    31  F    4.969960   2.660156   2.721401   4.195505   2.150090
    32  F    5.193138   2.714355   4.046329   4.540317   2.149024
                   31         32
    31  F    0.000000
    32  F    2.160350   0.000000
 Stoichiometry    C12H11F6NO2
 Framework group  C1[X(C12H11F6NO2)]
 Deg. of freedom    90
 Full point group                 C1      NOp   1
 Largest Abelian subgroup         C1      NOp   1
 Largest concise Abelian subgroup C1      NOp   1
                         Standard orientation:                         
 ---------------------------------------------------------------------
 Center     Atomic      Atomic             Coordinates (Angstroms)
 Number     Number       Type             X           Y           Z
 ---------------------------------------------------------------------
      1          6           0        0.587052   -0.076126   -0.011015
      2          7           0        1.913396    0.359076   -0.010192
      3          6           0        3.046504   -0.419858   -0.011510
      4          8           0        3.084623   -1.622112   -0.020585
      5          8           0        4.122192    0.381248   -0.001066
      6          6           0        5.392527   -0.290741   -0.001189
      7          6           0        6.472745    0.768735    0.019563
      8          6           0        7.859804    0.131831    0.019641
      9          6           0       -0.406478    0.909672    0.004278
     10          6           0       -1.749847    0.577266    0.008819
     11          6           0       -2.134341   -0.770793   -0.013683
     12          6           0       -1.140942   -1.741803   -0.023384
     13          6           0        0.209247   -1.418204   -0.023477
     14          1           0        2.076831    1.355231    0.000109
     15          1           0        5.457188   -0.919534   -0.892478
     16          1           0        5.445531   -0.942216    0.874392
     17          1           0        6.340491    1.394684    0.906164
     18          1           0        6.351368    1.418199   -0.851548
     19          1           0        8.003276   -0.507075    0.894368
     20          1           0        8.639828    0.893846    0.035039
     21          1           0        8.014449   -0.482885   -0.870373
     22          1           0       -0.121226    1.954989    0.021093
     23          1           0        0.956515   -2.196507   -0.033799
     24          6           0       -3.572564   -1.227470    0.012105
     25          6           0       -2.742469    1.720264   -0.003356
     26          1           0       -1.424638   -2.786274   -0.038587
     27          9           0       -4.351672   -0.508781   -0.802923
     28          9           0       -4.102036   -1.157376    1.241151
     29          9           0       -3.678381   -2.507136   -0.377023
     30          9           0       -2.161895    2.870000    0.377165
     31          9           0       -3.766559    1.511188    0.826125
     32          9           0       -3.241161    1.931471   -1.226783
 ---------------------------------------------------------------------
 Rotational constants (GHZ):           0.6913408           0.1132756           0.1009532
 Standard basis: Aug-CC-pVTZ (5D, 7F)
 There are  1430 symmetry adapted cartesian basis functions of A   symmetry.
 There are  1219 symmetry adapted basis functions of A   symmetry.
  1219 basis functions,  1809 primitive gaussians,  1430 cartesian basis functions
    80 alpha electrons       80 beta electrons
       nuclear repulsion energy      1771.8738800461 Hartrees.
 NAtoms=   32 NActive=   32 NUniq=   32 SFac= 1.00D+00 NAtFMM=   60 NAOKFM=F Big=F
 Integral buffers will be    131072 words long.
 Regular integral format.
 Two-electron integral symmetry is turned on.
 Nuclear repulsion after empirical dispersion term =     1771.8509699183 Hartrees.
 One-electron integrals computed using PRISM.
 NBasis=  1219 RedAO= T EigKep=  1.21D-06  NBF=  1219
 NBsUse=  1215 1.00D-06 EigRej=  7.74D-07 NBFU=  1215
 ExpMin= 2.53D-02 ExpMax= 1.95D+04 ExpMxC= 6.65D+02 IAcc=3 IRadAn=         5 AccDes= 0.00D+00
 Harris functional with IExCor= 1004 and IRadAn=       5 diagonalized for initial guess.
 HarFok:  IExCor= 1004 AccDes= 0.00D+00 IRadAn=         5 IDoV= 1 UseB2=F ITyADJ=14
 ICtDFT=  3500011 ScaDFX=  1.000000  1.000000  1.000000  1.000000
 FoFCou: FMM=F IPFlag=           0 FMFlag=      100000 FMFlg1=           0
         NFxFlg=           0 DoJE=T BraDBF=F KetDBF=T FulRan=T
         wScrn=  0.000000 ICntrl=       500 IOpCl=  0 I1Cent=   200000004 NGrid=           0
         NMat0=    1 NMatS0=      1 NMatT0=    0 NMatD0=    1 NMtDS0=    0 NMtDT0=    0
 Petite list used in FoFCou.
 Requested convergence on RMS density matrix=1.00D-08 within 128 cycles.
 Requested convergence on MAX density matrix=1.00D-06.
 Requested convergence on             energy=1.00D-06.
 No special actions if energy rises.
 SCF Done:  E(RDSDPBEP86) =  -1264.69335741     A.U. after   13 cycles
            NFock= 13  Conv=0.66D-08     -V/T= 2.0031
 DoSCS=T DFT=T ScalE2(SS,OS)=  0.220000  0.520000
 ExpMin= 2.53D-02 ExpMax= 1.95D+04 ExpMxC= 6.65D+02 IAcc=3 IRadAn=         5 AccDes= 0.00D+00
 HarFok:  IExCor=  205 AccDes= 0.00D+00 IRadAn=         5 IDoV=-2 UseB2=F ITyADJ=14
 ICtDFT= 12500011 ScaDFX=  1.000000  1.000000  1.000000  1.000000
 GSVD:  LWork=        -609 too small for GESVD, short by        2520 words or        2520 for optimal perf.
 Range of M.O.s used for correlation:    22  1215
 NBasis=  1219 NAE=    80 NBE=    80 NFC=    21 NFV=     0
 NROrb=   1194 NOA=    59 NOB=    59 NVA=  1135 NVB=  1135

 **** Warning!!: The largest alpha MO coefficient is  0.91506878D+02

 DoSCS=T DFT=T ScalE2(SS,OS)=  0.220000  0.520000
 Fully direct method using O(OVN) memory.
 JobTyp=1 Pass  1:  I=   1 to  59 NPSUse=  8 ParTrn=T ParDer=T DoDerP=F.
 Spin components of T(2) and E(2):
     alpha-alpha T2 =       0.1930504488D+00 E2=     -0.1348354878D+00
     alpha-beta  T2 =       0.9946783438D+00 E2=     -0.1788747147D+01
     beta-beta   T2 =       0.1930504488D+00 E2=     -0.1348354878D+00
 E2(DSDPBEP86) =    -0.2058418123D+01 E(DSDPBEP86) =    -0.12667517755338D+04

 **********************************************************************

            Population analysis using the SCF Density.

 **********************************************************************

 Orbital symmetries:
       Occupied  (A) (A) (A) (A) (A) (A) (A) (A) (A) (A) (A) (A)
                 (A) (A) (A) (A) (A) (A) (A) (A) (A) (A) (A) (A)
                 (A) (A) (A) (A) (A) (A) (A) (A) (A) (A) (A) (A)
                 (A) (A) (A) (A) (A) (A) (A) (A) (A) (A) (A) (A)
                 (A) (A) (A) (A) (A) (A) (A) (A) (A) (A) (A) (A)
                 (A) (A) (A) (A) (A) (A) (A) (A) (A) (A) (A) (A)
                 (A) (A) (A) (A) (A) (A) (A) (A)
       Virtual   (A) (A) (A) (A) (A) (A) (A) (A) (A) (A) (A) (A)
                 (A) (A) (A) (A) (A) (A) (A) (A) (A) (A) (A) (A)
                 (A) (A) (A) (A) (A) (A) (A) (A) (A) (A) (A) (A)
                 (A) (A) (A) (A) (A) (A) (A) (A) (A) (A) (A) (A)
                 (A) (A) (A) (A) (A) (A) (A) (A) (A) (A) (A) (A)
                 (A) (A) (A) (A) (A) (A) (A) (A) (A) (A) (A) (A)
                 (A) (A) (A) (A) (A) (A) (A) (A) (A) (A) (A) (A)
                 (A) (A) (A) (A) (A) (A) (A) (A) (A) (A) (A) (A)
                 (A) (A) (A) (A) (A) (A) (A) (A) (A) (A) (A) (A)
                 (A) (A) (A) (A) (A) (A) (A) (A) (A) (A) (A) (A)
                 (A) (A) (A) (A) (A) (A) (A) (A) (A) (A) (A) (A)
                 (A) (A) (A) (A) (A) (A) (A) (A) (A) (A) (A) (A)
                 (A) (A) (A) (A) (A) (A) (A) (A) (A) (A) (A) (A)
                 (A) (A) (A) (A) (A) (A) (A) (A) (A) (A) (A) (A)
                 (A) (A) (A) (A) (A) (A) (A) (A) (A) (A) (A) (A)
                 (A) (A) (A) (A) (A) (A) (A) (A) (A) (A) (A) (A)
                 (A) (A) (A) (A) (A) (A) (A) (A) (A) (A) (A) (A)
                 (A) (A) (A) (A) (A) (A) (A) (A) (A) (A) (A) (A)
                 (A) (A) (A) (A) (A) (A) (A) (A) (A) (A) (A) (A)
                 (A) (A) (A) (A) (A) (A) (A) (A) (A) (A) (A) (A)
                 (A) (A) (A) (A) (A) (A) (A) (A) (A) (A) (A) (A)
                 (A) (A) (A) (A) (A) (A) (A) (A) (A) (A) (A) (A)
                 (A) (A) (A) (A) (A) (A) (A) (A) (A) (A) (A) (A)
                 (A) (A) (A) (A) (A) (A) (A) (A) (A) (A) (A) (A)
                 (A) (A) (A) (A) (A) (A) (A) (A) (A) (A) (A) (A)
                 (A) (A) (A) (A) (A) (A) (A) (A) (A) (A) (A) (A)
                 (A) (A) (A) (A) (A) (A) (A) (A) (A) (A) (A) (A)
                 (A) (A) (A) (A) (A) (A) (A) (A) (A) (A) (A) (A)
                 (A) (A) (A) (A) (A) (A) (A) (A) (A) (A) (A) (A)
                 (A) (A) (A) (A) (A) (A) (A) (A) (A) (A) (A) (A)
                 (A) (A) (A) (A) (A) (A) (A) (A) (A) (A) (A) (A)
                 (A) (A) (A) (A) (A) (A) (A) (A) (A) (A) (A) (A)
                 (A) (A) (A) (A) (A) (A) (A) (A) (A) (A) (A) (A)
                 (A) (A) (A) (A) (A) (A) (A) (A) (A) (A) (A) (A)
                 (A) (A) (A) (A) (A) (A) (A) (A) (A) (A) (A) (A)
                 (A) (A) (A) (A) (A) (A) (A) (A) (A) (A) (A) (A)
                 (A) (A) (A) (A) (A) (A) (A) (A) (A) (A) (A) (A)
                 (A) (A) (A) (A) (A) (A) (A) (A) (A) (A) (A) (A)
                 (A) (A) (A) (A) (A) (A) (A) (A) (A) (A) (A) (A)
                 (A) (A) (A) (A) (A) (A) (A) (A) (A) (A) (A) (A)
                 (A) (A) (A) (A) (A) (A) (A) (A) (A) (A) (A) (A)
                 (A) (A) (A) (A) (A) (A) (A) (A) (A) (A) (A) (A)
                 (A) (A) (A) (A) (A) (A) (A) (A) (A) (A) (A) (A)
                 (A) (A) (A) (A) (A) (A) (A) (A) (A) (A) (A) (A)
                 (A) (A) (A) (A) (A) (A) (A) (A) (A) (A) (A) (A)
                 (A) (A) (A) (A) (A) (A) (A) (A) (A) (A) (A) (A)
                 (A) (A) (A) (A) (A) (A) (A) (A) (A) (A) (A) (A)
                 (A) (A) (A) (A) (A) (A) (A) (A) (A) (A) (A) (A)
                 (A) (A) (A) (A) (A) (A) (A) (A) (A) (A) (A) (A)
                 (A) (A) (A) (A) (A) (A) (A) (A) (A) (A) (A) (A)
                 (A) (A) (A) (A) (A) (A) (A) (A) (A) (A) (A) (A)
                 (A) (A) (A) (A) (A) (A) (A) (A) (A) (A) (A) (A)
                 (A) (A) (A) (A) (A) (A) (A) (A) (A) (A) (A) (A)
                 (A) (A) (A) (A) (A) (A) (A) (A) (A) (A) (A) (A)
                 (A) (A) (A) (A) (A) (A) (A) (A) (A) (A) (A) (A)
                 (A) (A) (A) (A) (A) (A) (A) (A) (A) (A) (A) (A)
                 (A) (A) (A) (A) (A) (A) (A) (A) (A) (A) (A) (A)
                 (A) (A) (A) (A) (A) (A) (A) (A) (A) (A) (A) (A)
                 (A) (A) (A) (A) (A) (A) (A) (A) (A) (A) (A) (A)
                 (A) (A) (A) (A) (A) (A) (A) (A) (A) (A) (A) (A)
                 (A) (A) (A) (A) (A) (A) (A) (A) (A) (A) (A) (A)
                 (A) (A) (A) (A) (A) (A) (A) (A) (A) (A) (A) (A)
                 (A) (A) (A) (A) (A) (A) (A) (A) (A) (A) (A) (A)
                 (A) (A) (A) (A) (A) (A) (A) (A) (A) (A) (A) (A)
                 (A) (A) (A) (A) (A) (A) (A) (A) (A) (A) (A) (A)
                 (A) (A) (A) (A) (A) (A) (A) (A) (A) (A) (A) (A)
                 (A) (A) (A) (A) (A) (A) (A) (A) (A) (A) (A) (A)
                 (A) (A) (A) (A) (A) (A) (A) (A) (A) (A) (A) (A)
                 (A) (A) (A) (A) (A) (A) (A) (A) (A) (A) (A) (A)
                 (A) (A) (A) (A) (A) (A) (A) (A) (A) (A) (A) (A)
                 (A) (A) (A) (A) (A) (A) (A) (A) (A) (A) (A) (A)
                 (A) (A) (A) (A) (A) (A) (A) (A) (A) (A) (A) (A)
                 (A) (A) (A) (A) (A) (A) (A) (A) (A) (A) (A) (A)
                 (A) (A) (A) (A) (A) (A) (A) (A) (A) (A) (A) (A)
                 (A) (A) (A) (A) (A) (A) (A) (A) (A) (A) (A) (A)
                 (A) (A) (A) (A) (A) (A) (A) (A) (A) (A) (A) (A)
                 (A) (A) (A) (A) (A) (A) (A) (A) (A) (A) (A) (A)
                 (A) (A) (A) (A) (A) (A) (A) (A) (A) (A) (A) (A)
                 (A) (A) (A) (A) (A) (A) (A) (A) (A) (A) (A) (A)
                 (A) (A) (A) (A) (A) (A) (A) (A) (A) (A) (A) (A)
                 (A) (A) (A) (A) (A) (A) (A) (A) (A) (A) (A) (A)
                 (A) (A) (A) (A) (A) (A) (A) (A) (A) (A) (A) (A)
                 (A) (A) (A) (A) (A) (A) (A) (A) (A) (A) (A) (A)
                 (A) (A) (A) (A) (A) (A) (A) (A) (A) (A) (A) (A)
                 (A) (A) (A) (A) (A) (A) (A) (A) (A) (A) (A) (A)
                 (A) (A) (A) (A) (A) (A) (A) (A) (A) (A) (A) (A)
                 (A) (A) (A) (A) (A) (A) (A) (A) (A) (A) (A) (A)
                 (A) (A) (A) (A) (A) (A) (A) (A) (A) (A) (A) (A)
                 (A) (A) (A) (A) (A) (A) (A) (A) (A) (A) (A) (A)
                 (A) (A) (A) (A) (A) (A) (A) (A) (A) (A) (A) (A)
                 (A) (A) (A) (A) (A) (A) (A) (A) (A) (A) (A) (A)
                 (A) (A) (A) (A) (A) (A) (A) (A) (A) (A) (A) (A)
                 (A) (A) (A) (A) (A) (A) (A) (A) (A) (A) (A) (A)
                 (A) (A) (A) (A) (A) (A) (A) (A) (A) (A) (A) (A)
                 (A) (A) (A) (A) (A) (A) (A)
 The electronic state is 1-A.
 Alpha  occ. eigenvalues --  -25.71856 -25.71525 -25.71302 -25.71274 -25.71016
 Alpha  occ. eigenvalues --  -25.70722 -20.06949 -20.00346 -15.14854 -11.09703
 Alpha  occ. eigenvalues --  -11.09136 -11.00644 -10.91121 -10.88823 -10.88300
 Alpha  occ. eigenvalues --  -10.87060 -10.86127 -10.85954 -10.84730 -10.83099
 Alpha  occ. eigenvalues --  -10.82086  -1.58502  -1.57758  -1.49047  -1.48726
 Alpha  occ. eigenvalues --   -1.48360  -1.48061  -1.36174  -1.25907  -1.17710
 Alpha  occ. eigenvalues --   -1.08870  -0.99395  -0.98153  -0.97200  -0.90116
 Alpha  occ. eigenvalues --   -0.87988  -0.85986  -0.81159  -0.80229  -0.76736
 Alpha  occ. eigenvalues --   -0.74928  -0.74809  -0.74597  -0.74070  -0.73684
 Alpha  occ. eigenvalues --   -0.73301  -0.70072  -0.69795  -0.64850  -0.64354
 Alpha  occ. eigenvalues --   -0.63101  -0.63048  -0.62282  -0.62204  -0.61577
 Alpha  occ. eigenvalues --   -0.60048  -0.59586  -0.58651  -0.58348  -0.57723
 Alpha  occ. eigenvalues --   -0.57488  -0.56805  -0.56327  -0.55893  -0.55818
 Alpha  occ. eigenvalues --   -0.54765  -0.53437  -0.53212  -0.50504  -0.49921
 Alpha  occ. eigenvalues --   -0.49126  -0.48065  -0.47765  -0.45197  -0.45069
 Alpha  occ. eigenvalues --   -0.43346  -0.42368  -0.41401  -0.35266  -0.31613
 Alpha virt. eigenvalues --    0.00870   0.01628   0.02014   0.02303   0.02432
 Alpha virt. eigenvalues --    0.02970   0.03209   0.03595   0.04882   0.05044
 Alpha virt. eigenvalues --    0.05077   0.05148   0.05857   0.06542   0.06582
 Alpha virt. eigenvalues --    0.06960   0.07417   0.07600   0.08468   0.08891
 Alpha virt. eigenvalues --    0.09096   0.09416   0.09889   0.10026   0.10221
 Alpha virt. eigenvalues --    0.10653   0.10947   0.11222   0.11290   0.11432
 Alpha virt. eigenvalues --    0.12092   0.12559   0.12812   0.12943   0.13178
 Alpha virt. eigenvalues --    0.13641   0.13834   0.13918   0.14175   0.15033
 Alpha virt. eigenvalues --    0.15265   0.15362   0.15994   0.16130   0.16642
 Alpha virt. eigenvalues --    0.17130   0.17380   0.17473   0.17552   0.17930
 Alpha virt. eigenvalues --    0.18470   0.18701   0.18985   0.19639   0.19757
 Alpha virt. eigenvalues --    0.19946   0.20083   0.20650   0.21188   0.21496
 Alpha virt. eigenvalues --    0.21759   0.22165   0.22684   0.22823   0.22955
 Alpha virt. eigenvalues --    0.23279   0.23619   0.23921   0.24059   0.24584
 Alpha virt. eigenvalues --    0.24844   0.25054   0.25379   0.25743   0.26078
 Alpha virt. eigenvalues --    0.26333   0.26654   0.27251   0.27451   0.27812
 Alpha virt. eigenvalues --    0.28078   0.28211   0.28563   0.28805   0.29058
 Alpha virt. eigenvalues --    0.29118   0.29284   0.29790   0.29971   0.30313
 Alpha virt. eigenvalues --    0.30447   0.30576   0.30870   0.31223   0.31433
 Alpha virt. eigenvalues --    0.31629   0.31787   0.31984   0.32248   0.32626
 Alpha virt. eigenvalues --    0.32772   0.33367   0.33812   0.34089   0.34158
 Alpha virt. eigenvalues --    0.34483   0.34719   0.35006   0.35388   0.35564
 Alpha virt. eigenvalues --    0.35959   0.36097   0.36249   0.36547   0.36817
 Alpha virt. eigenvalues --    0.37133   0.37207   0.37386   0.37827   0.38067
 Alpha virt. eigenvalues --    0.38294   0.38599   0.39239   0.39698   0.39925
 Alpha virt. eigenvalues --    0.40066   0.40137   0.40318   0.40721   0.40793
 Alpha virt. eigenvalues --    0.40860   0.41388   0.41768   0.42010   0.42057
 Alpha virt. eigenvalues --    0.42494   0.42660   0.42723   0.43235   0.43519
 Alpha virt. eigenvalues --    0.43840   0.43899   0.44310   0.44691   0.45004
 Alpha virt. eigenvalues --    0.45093   0.45773   0.46051   0.46396   0.46763
 Alpha virt. eigenvalues --    0.46812   0.47138   0.47464   0.47779   0.47953
 Alpha virt. eigenvalues --    0.48375   0.48624   0.49045   0.49267   0.49350
 Alpha virt. eigenvalues --    0.49515   0.49968   0.50106   0.50892   0.51003
 Alpha virt. eigenvalues --    0.51189   0.51366   0.51534   0.51819   0.52016
 Alpha virt. eigenvalues --    0.52991   0.53368   0.53460   0.53755   0.53815
 Alpha virt. eigenvalues --    0.54298   0.54670   0.54966   0.55398   0.55608
 Alpha virt. eigenvalues --    0.56064   0.56223   0.56642   0.58199   0.58322
 Alpha virt. eigenvalues --    0.58556   0.58803   0.59023   0.59705   0.60059
 Alpha virt. eigenvalues --    0.60467   0.61091   0.61814   0.62459   0.62602
 Alpha virt. eigenvalues --    0.63044   0.63195   0.63528   0.64179   0.64802
 Alpha virt. eigenvalues --    0.65214   0.65353   0.65752   0.66194   0.66577
 Alpha virt. eigenvalues --    0.66846   0.67423   0.67709   0.68239   0.68653
 Alpha virt. eigenvalues --    0.69007   0.70014   0.70551   0.70664   0.71358
 Alpha virt. eigenvalues --    0.71919   0.72522   0.73021   0.73339   0.73575
 Alpha virt. eigenvalues --    0.73839   0.74480   0.74561   0.74968   0.75485
 Alpha virt. eigenvalues --    0.76171   0.76577   0.76973   0.77218   0.77549
 Alpha virt. eigenvalues --    0.77887   0.78731   0.79267   0.79451   0.79934
 Alpha virt. eigenvalues --    0.80079   0.80571   0.80960   0.81721   0.82373
 Alpha virt. eigenvalues --    0.82418   0.82512   0.83223   0.83475   0.83838
 Alpha virt. eigenvalues --    0.84154   0.84616   0.84865   0.85093   0.85527
 Alpha virt. eigenvalues --    0.85726   0.85944   0.86106   0.86613   0.87008
 Alpha virt. eigenvalues --    0.87308   0.87695   0.88051   0.88249   0.88529
 Alpha virt. eigenvalues --    0.88987   0.89222   0.89730   0.90263   0.90402
 Alpha virt. eigenvalues --    0.90949   0.91201   0.91356   0.91753   0.92529
 Alpha virt. eigenvalues --    0.92701   0.93427   0.93568   0.93948   0.94409
 Alpha virt. eigenvalues --    0.95142   0.95591   0.96047   0.96597   0.96715
 Alpha virt. eigenvalues --    0.97233   0.97554   0.98009   0.98310   0.99023
 Alpha virt. eigenvalues --    0.99345   0.99927   1.00139   1.00451   1.00526
 Alpha virt. eigenvalues --    1.01090   1.01590   1.01774   1.02155   1.02509
 Alpha virt. eigenvalues --    1.03126   1.03492   1.03914   1.04204   1.04299
 Alpha virt. eigenvalues --    1.04665   1.05018   1.05102   1.05555   1.06170
 Alpha virt. eigenvalues --    1.06676   1.06928   1.07331   1.07550   1.07831
 Alpha virt. eigenvalues --    1.08298   1.08715   1.09106   1.09522   1.09663
 Alpha virt. eigenvalues --    1.09956   1.10332   1.10817   1.10909   1.11227
 Alpha virt. eigenvalues --    1.11972   1.12539   1.12761   1.13277   1.13815
 Alpha virt. eigenvalues --    1.14039   1.14165   1.14622   1.15136   1.15338
 Alpha virt. eigenvalues --    1.16041   1.16176   1.16860   1.17266   1.17581
 Alpha virt. eigenvalues --    1.17763   1.18428   1.18602   1.18965   1.19116
 Alpha virt. eigenvalues --    1.19268   1.20183   1.20322   1.20453   1.21241
 Alpha virt. eigenvalues --    1.21649   1.22178   1.22644   1.22870   1.22949
 Alpha virt. eigenvalues --    1.23798   1.24446   1.24769   1.25495   1.25848
 Alpha virt. eigenvalues --    1.26438   1.26958   1.27319   1.27676   1.28010
 Alpha virt. eigenvalues --    1.28760   1.28882   1.29242   1.29499   1.29907
 Alpha virt. eigenvalues --    1.30271   1.30995   1.31405   1.31799   1.32440
 Alpha virt. eigenvalues --    1.32558   1.32863   1.33474   1.33822   1.33883
 Alpha virt. eigenvalues --    1.34647   1.35584   1.36049   1.36279   1.36505
 Alpha virt. eigenvalues --    1.36815   1.37435   1.37727   1.37944   1.38406
 Alpha virt. eigenvalues --    1.39032   1.39327   1.39613   1.40181   1.40822
 Alpha virt. eigenvalues --    1.41205   1.41894   1.42177   1.42559   1.43111
 Alpha virt. eigenvalues --    1.43611   1.43893   1.44746   1.45144   1.45757
 Alpha virt. eigenvalues --    1.46048   1.47171   1.47920   1.48086   1.48399
 Alpha virt. eigenvalues --    1.49445   1.50284   1.50520   1.50952   1.51643
 Alpha virt. eigenvalues --    1.52045   1.52349   1.53145   1.53935   1.54002
 Alpha virt. eigenvalues --    1.54618   1.54801   1.55080   1.55412   1.56380
 Alpha virt. eigenvalues --    1.56858   1.57195   1.57561   1.57810   1.58052
 Alpha virt. eigenvalues --    1.58948   1.59311   1.60020   1.60398   1.61163
 Alpha virt. eigenvalues --    1.61420   1.61979   1.62350   1.62709   1.62962
 Alpha virt. eigenvalues --    1.63492   1.64193   1.64310   1.64987   1.65697
 Alpha virt. eigenvalues --    1.66271   1.66843   1.67037   1.67394   1.67735
 Alpha virt. eigenvalues --    1.68204   1.68604   1.68897   1.69604   1.70423
 Alpha virt. eigenvalues --    1.70721   1.71300   1.71470   1.71803   1.72367
 Alpha virt. eigenvalues --    1.72820   1.73420   1.74046   1.74860   1.75372
 Alpha virt. eigenvalues --    1.75739   1.76043   1.76697   1.77024   1.77855
 Alpha virt. eigenvalues --    1.78081   1.79087   1.79506   1.80081   1.81531
 Alpha virt. eigenvalues --    1.81952   1.82487   1.82905   1.83376   1.83597
 Alpha virt. eigenvalues --    1.84447   1.84612   1.85155   1.85418   1.86182
 Alpha virt. eigenvalues --    1.86266   1.86539   1.87074   1.87845   1.88272
 Alpha virt. eigenvalues --    1.88668   1.89187   1.89564   1.90141   1.90789
 Alpha virt. eigenvalues --    1.91599   1.91749   1.92377   1.93275   1.93418
 Alpha virt. eigenvalues --    1.94068   1.94500   1.95330   1.95731   1.96030
 Alpha virt. eigenvalues --    1.96861   1.97578   1.98160   1.98828   1.99019
 Alpha virt. eigenvalues --    1.99394   1.99808   2.00550   2.01113   2.01559
 Alpha virt. eigenvalues --    2.02451   2.02597   2.03057   2.03200   2.04586
 Alpha virt. eigenvalues --    2.05030   2.06945   2.07487   2.07845   2.09270
 Alpha virt. eigenvalues --    2.09530   2.10446   2.10807   2.11846   2.12843
 Alpha virt. eigenvalues --    2.12895   2.14034   2.14640   2.15012   2.15435
 Alpha virt. eigenvalues --    2.16061   2.17350   2.17602   2.18598   2.19402
 Alpha virt. eigenvalues --    2.20149   2.20351   2.20995   2.21701   2.22422
 Alpha virt. eigenvalues --    2.24149   2.24533   2.25035   2.26250   2.26930
 Alpha virt. eigenvalues --    2.28319   2.29102   2.29313   2.30812   2.31105
 Alpha virt. eigenvalues --    2.31969   2.32468   2.33759   2.34277   2.34847
 Alpha virt. eigenvalues --    2.35480   2.35865   2.37106   2.37596   2.38913
 Alpha virt. eigenvalues --    2.39222   2.40578   2.41080   2.42432   2.43542
 Alpha virt. eigenvalues --    2.44855   2.45508   2.46893   2.47532   2.47677
 Alpha virt. eigenvalues --    2.48674   2.49470   2.50164   2.51128   2.51631
 Alpha virt. eigenvalues --    2.53346   2.53652   2.55247   2.56011   2.57681
 Alpha virt. eigenvalues --    2.57843   2.58327   2.61200   2.61518   2.62469
 Alpha virt. eigenvalues --    2.63544   2.64381   2.65011   2.66241   2.68249
 Alpha virt. eigenvalues --    2.69518   2.70006   2.71536   2.72177   2.72734
 Alpha virt. eigenvalues --    2.73336   2.75071   2.75471   2.75953   2.76464
 Alpha virt. eigenvalues --    2.77204   2.78100   2.78613   2.79109   2.79782
 Alpha virt. eigenvalues --    2.80930   2.81198   2.82034   2.83046   2.84437
 Alpha virt. eigenvalues --    2.85239   2.85759   2.86916   2.87308   2.88197
 Alpha virt. eigenvalues --    2.89008   2.89602   2.90488   2.91768   2.93019
 Alpha virt. eigenvalues --    2.94118   2.94659   2.94843   2.95867   2.96467
 Alpha virt. eigenvalues --    2.97025   2.97745   2.98817   2.98985   2.99404
 Alpha virt. eigenvalues --    3.00674   3.00977   3.01601   3.02301   3.04319
 Alpha virt. eigenvalues --    3.04559   3.05316   3.06279   3.07131   3.07487
 Alpha virt. eigenvalues --    3.08432   3.08750   3.09005   3.09806   3.10637
 Alpha virt. eigenvalues --    3.10763   3.11906   3.13036   3.13825   3.14614
 Alpha virt. eigenvalues --    3.15104   3.16708   3.17770   3.18432   3.19958
 Alpha virt. eigenvalues --    3.20579   3.21167   3.21460   3.22761   3.23753
 Alpha virt. eigenvalues --    3.24264   3.24338   3.25463   3.26439   3.26876
 Alpha virt. eigenvalues --    3.27154   3.27590   3.28416   3.28441   3.29435
 Alpha virt. eigenvalues --    3.29664   3.30699   3.31668   3.32796   3.33183
 Alpha virt. eigenvalues --    3.33507   3.34149   3.34363   3.34982   3.35833
 Alpha virt. eigenvalues --    3.36011   3.36378   3.36968   3.37634   3.37693
 Alpha virt. eigenvalues --    3.37835   3.39232   3.40183   3.40736   3.42020
 Alpha virt. eigenvalues --    3.42889   3.43397   3.44018   3.45193   3.45636
 Alpha virt. eigenvalues --    3.46299   3.47101   3.47337   3.47935   3.48327
 Alpha virt. eigenvalues --    3.49187   3.49693   3.51416   3.51824   3.53565
 Alpha virt. eigenvalues --    3.54659   3.55173   3.55373   3.55757   3.56318
 Alpha virt. eigenvalues --    3.56712   3.56989   3.58372   3.58755   3.59288
 Alpha virt. eigenvalues --    3.59868   3.60244   3.60838   3.61568   3.61771
 Alpha virt. eigenvalues --    3.62118   3.62531   3.63171   3.63303   3.64535
 Alpha virt. eigenvalues --    3.65112   3.65302   3.65594   3.66427   3.67414
 Alpha virt. eigenvalues --    3.67520   3.67816   3.68200   3.68881   3.69003
 Alpha virt. eigenvalues --    3.69767   3.70549   3.70962   3.71401   3.72364
 Alpha virt. eigenvalues --    3.72849   3.74031   3.74889   3.75533   3.75925
 Alpha virt. eigenvalues --    3.76434   3.77228   3.78257   3.78387   3.78742
 Alpha virt. eigenvalues --    3.79227   3.79645   3.80589   3.81074   3.81691
 Alpha virt. eigenvalues --    3.82739   3.82968   3.83112   3.84160   3.84599
 Alpha virt. eigenvalues --    3.85719   3.85962   3.86600   3.86895   3.87837
 Alpha virt. eigenvalues --    3.88354   3.88947   3.89482   3.90397   3.91836
 Alpha virt. eigenvalues --    3.92281   3.92891   3.93624   3.94035   3.94761
 Alpha virt. eigenvalues --    3.95940   3.96726   3.97948   3.98421   3.99441
 Alpha virt. eigenvalues --    4.00312   4.00788   4.01997   4.02617   4.03305
 Alpha virt. eigenvalues --    4.03910   4.05147   4.05853   4.06665   4.06899
 Alpha virt. eigenvalues --    4.07462   4.08071   4.08296   4.08969   4.09302
 Alpha virt. eigenvalues --    4.10147   4.10492   4.11318   4.11701   4.12082
 Alpha virt. eigenvalues --    4.13128   4.14020   4.14617   4.14642   4.15100
 Alpha virt. eigenvalues --    4.16001   4.16066   4.17025   4.17786   4.18654
 Alpha virt. eigenvalues --    4.19214   4.19745   4.20425   4.21277   4.22451
 Alpha virt. eigenvalues --    4.23819   4.24329   4.25263   4.25545   4.25989
 Alpha virt. eigenvalues --    4.26308   4.26765   4.28692   4.29456   4.30212
 Alpha virt. eigenvalues --    4.30958   4.32318   4.32889   4.33541   4.34608
 Alpha virt. eigenvalues --    4.34912   4.35393   4.36392   4.36722   4.38371
 Alpha virt. eigenvalues --    4.38726   4.39284   4.40616   4.42196   4.42619
 Alpha virt. eigenvalues --    4.43186   4.43276   4.43494   4.44636   4.45667
 Alpha virt. eigenvalues --    4.46648   4.47840   4.49746   4.51297   4.51624
 Alpha virt. eigenvalues --    4.52235   4.52665   4.53191   4.54343   4.55060
 Alpha virt. eigenvalues --    4.55825   4.56292   4.56930   4.57429   4.58701
 Alpha virt. eigenvalues --    4.59374   4.59592   4.60242   4.62395   4.64181
 Alpha virt. eigenvalues --    4.64460   4.64598   4.66640   4.67092   4.68792
 Alpha virt. eigenvalues --    4.70725   4.71352   4.72175   4.72949   4.73762
 Alpha virt. eigenvalues --    4.74519   4.75235   4.75769   4.76212   4.78482
 Alpha virt. eigenvalues --    4.78613   4.78645   4.80311   4.80501   4.81540
 Alpha virt. eigenvalues --    4.82155   4.82623   4.83214   4.85403   4.86759
 Alpha virt. eigenvalues --    4.87519   4.88170   4.88306   4.88985   4.90441
 Alpha virt. eigenvalues --    4.91955   4.92659   4.94169   4.94310   4.95553
 Alpha virt. eigenvalues --    4.95836   4.96505   4.96901   4.99004   4.99439
 Alpha virt. eigenvalues --    4.99680   5.00367   5.01370   5.01696   5.04273
 Alpha virt. eigenvalues --    5.05707   5.08175   5.08869   5.09148   5.09667
 Alpha virt. eigenvalues --    5.10595   5.11944   5.12601   5.14034   5.15235
 Alpha virt. eigenvalues --    5.16512   5.17919   5.19140   5.19485   5.19977
 Alpha virt. eigenvalues --    5.20302   5.21218   5.22179   5.22939   5.23755
 Alpha virt. eigenvalues --    5.24785   5.27104   5.29118   5.30335   5.36060
 Alpha virt. eigenvalues --    5.36774   5.37749   5.38161   5.39278   5.42053
 Alpha virt. eigenvalues --    5.44520   5.45087   5.45294   5.45760   5.46872
 Alpha virt. eigenvalues --    5.50842   5.52707   5.54144   5.55535   5.56174
 Alpha virt. eigenvalues --    5.57537   5.58415   5.59938   5.60486   5.61368
 Alpha virt. eigenvalues --    5.62139   5.64934   5.68070   5.69346   5.69637
 Alpha virt. eigenvalues --    5.71176   5.72886   5.73240   5.74141   5.77087
 Alpha virt. eigenvalues --    5.79396   5.80834   5.82212   5.83768   5.85068
 Alpha virt. eigenvalues --    5.87338   5.87452   5.87938   5.88729   5.89605
 Alpha virt. eigenvalues --    5.92615   5.93037   5.95670   5.97267   5.98862
 Alpha virt. eigenvalues --    6.00704   6.02700   6.04925   6.05523   6.06925
 Alpha virt. eigenvalues --    6.09995   6.11159   6.13206   6.14137   6.18312
 Alpha virt. eigenvalues --    6.22145   6.24979   6.27068   6.31526   6.34154
 Alpha virt. eigenvalues --    6.36232   6.38864   6.46736   6.52389   6.56908
 Alpha virt. eigenvalues --    6.57641   6.58961   6.60588   6.64519   6.67123
 Alpha virt. eigenvalues --    6.69898   6.73078   6.74276   6.75348   6.77513
 Alpha virt. eigenvalues --    6.79622   6.83374   6.84827   6.87507   6.98038
 Alpha virt. eigenvalues --    6.98678   6.99963   7.00860   7.02035   7.08449
 Alpha virt. eigenvalues --    7.10448   7.15639   7.17078   7.19212   7.20710
 Alpha virt. eigenvalues --    7.21093   7.27134   7.30221   7.30992   7.35725
 Alpha virt. eigenvalues --    7.41084   7.46380   7.47279   7.52392   7.63027
 Alpha virt. eigenvalues --    7.70417   7.72100   7.81375   7.90455   8.06581
 Alpha virt. eigenvalues --    8.20390   8.43427   8.71343   8.75252   8.76253
 Alpha virt. eigenvalues --    8.76781   8.78183   8.79561   8.79866   8.81628
 Alpha virt. eigenvalues --    8.82476   8.83532   8.85927   8.87642   8.93331
 Alpha virt. eigenvalues --    8.95284   8.97967   8.99742   9.07535   9.09669
 Alpha virt. eigenvalues --    9.10073   9.11014   9.11680   9.13301   9.14824
 Alpha virt. eigenvalues --    9.15423   9.16367   9.17863   9.18546   9.19091
 Alpha virt. eigenvalues --    9.20746   9.21699   9.23206   9.23546   9.25237
 Alpha virt. eigenvalues --    9.25322   9.26985   9.27115   9.28084   9.28189
 Alpha virt. eigenvalues --    9.30044   9.30523   9.30876   9.33330   9.33497
 Alpha virt. eigenvalues --    9.34516   9.34765   9.37774   9.39158   9.40740
 Alpha virt. eigenvalues --    9.40978   9.42409   9.44393   9.46522   9.46855
 Alpha virt. eigenvalues --    9.48384   9.50145   9.50643   9.52076   9.52843
 Alpha virt. eigenvalues --    9.54593   9.55575   9.58460   9.61521   9.72523
 Alpha virt. eigenvalues --    9.74255   9.74486   9.77571   9.79886   9.84355
 Alpha virt. eigenvalues --    9.95195   9.97268  10.00452  10.01409  15.26608
 Alpha virt. eigenvalues --   15.89607  16.05864  16.09323  16.25764  16.36140
 Alpha virt. eigenvalues --   16.44992  16.51797  16.82166  17.08288  17.41846
 Alpha virt. eigenvalues --   17.56443  18.01856  18.11575  18.64789  19.14923
 Alpha virt. eigenvalues --   20.18039  20.29432  20.55429  21.08395  21.48650
          Condensed to atoms (all electrons):
               1          2          3          4          5          6
     1  C    9.566417  -0.274058  -0.879997   0.174426  -0.027810   0.027728
     2  N   -0.274058   8.221951   0.393487  -0.164839  -0.412926  -0.079134
     3  C   -0.879997   0.393487   5.779758   0.262939   0.273288  -0.142593
     4  O    0.174426  -0.164839   0.262939   8.862658  -0.066832   0.014722
     5  O   -0.027810  -0.412926   0.273288  -0.066832   8.683961   0.228341
     6  C    0.027728  -0.079134  -0.142593   0.014722   0.228341   5.529105
     7  C   -0.010850  -0.012117   0.029212  -0.014713  -0.106430   0.071291
     8  C    0.001286  -0.000826   0.001650  -0.005171   0.003701  -0.036134
     9  C   -1.012608  -0.375588  -0.006099   0.001382  -0.057241  -0.031664
    10  C   -0.543430   0.135925  -0.019160  -0.005156  -0.006297  -0.008949
    11  C    0.039092  -0.004607   0.019429   0.004250   0.014622   0.008191
    12  C    0.015447   0.091882  -0.082963   0.042525  -0.012570  -0.011216
    13  C   -1.008405  -0.581230   0.033723  -0.187775  -0.000656  -0.023426
    14  H    0.019844   0.319239  -0.137093   0.020137   0.069936   0.003040
    15  H   -0.005879   0.005097  -0.016516  -0.008315  -0.035648   0.300233
    16  H   -0.010590   0.001030  -0.008277  -0.010517  -0.039208   0.304001
    17  H   -0.000190  -0.008531  -0.002109   0.005357  -0.034906   0.046538
    18  H   -0.001454  -0.010278   0.001777   0.005511  -0.035627   0.046148
    19  H    0.000436  -0.000590   0.003312   0.000003   0.000882  -0.002899
    20  H    0.000035  -0.000449   0.002339  -0.000344   0.000826  -0.009343
    21  H    0.000312  -0.000591   0.003311   0.000009   0.000475  -0.004483
    22  H   -0.470905  -0.035314  -0.096536   0.002371  -0.035843  -0.010939
    23  H   -0.439378  -0.016450   0.108354  -0.128516   0.016102  -0.012085
    24  C   -0.001895  -0.000821   0.000343   0.000401  -0.000450   0.000248
    25  C    0.054170  -0.002425   0.003015  -0.000675  -0.000822  -0.000463
    26  H    0.083652  -0.042354  -0.052169   0.000711  -0.002623  -0.000785
    27  F    0.000949   0.002706   0.000795  -0.000005   0.000009   0.000007
    28  F   -0.003773   0.000002  -0.000351  -0.000004   0.000002  -0.000030
    29  F   -0.016897   0.001624  -0.000134   0.000021  -0.000022  -0.000002
    30  F   -0.010668   0.007077   0.003125  -0.000075  -0.000211   0.000058
    31  F    0.002370   0.002483   0.000558  -0.000023  -0.000017  -0.000017
    32  F    0.014357   0.000035   0.000234   0.000051   0.000152   0.000062
               7          8          9         10         11         12
     1  C   -0.010850   0.001286  -1.012608  -0.543430   0.039092   0.015447
     2  N   -0.012117  -0.000826  -0.375588   0.135925  -0.004607   0.091882
     3  C    0.029212   0.001650  -0.006099  -0.019160   0.019429  -0.082963
     4  O   -0.014713  -0.005171   0.001382  -0.005156   0.004250   0.042525
     5  O   -0.106430   0.003701  -0.057241  -0.006297   0.014622  -0.012570
     6  C    0.071291  -0.036134  -0.031664  -0.008949   0.008191  -0.011216
     7  C    5.527100   0.114802   0.004109   0.000024  -0.000076   0.001347
     8  C    0.114802   5.795922   0.000021  -0.000033   0.000059  -0.000037
     9  C    0.004109   0.000021  10.349367  -0.854269  -0.217197  -0.352107
    10  C    0.000024  -0.000033  -0.854269   8.902735  -1.312081  -0.075706
    11  C   -0.000076   0.000059  -0.217197  -1.312081   9.194379  -1.571261
    12  C    0.001347  -0.000037  -0.352107  -0.075706  -1.571261  10.650234
    13  C   -0.004509  -0.000729  -0.108398   0.052617   0.076752  -1.021211
    14  H    0.000822  -0.000219  -0.008239  -0.041987   0.012704  -0.005440
    15  H    0.009336  -0.002886  -0.000089   0.000111  -0.000134  -0.000228
    16  H    0.012064  -0.004159   0.000335  -0.000081   0.000008  -0.000837
    17  H    0.399999  -0.038609   0.000216   0.000074  -0.000070   0.000003
    18  H    0.403937  -0.040358   0.000627  -0.000184   0.000184  -0.000068
    19  H    0.035192   0.363809  -0.000020  -0.000008   0.000012   0.000031
    20  H   -0.027427   0.447612  -0.000021  -0.000005   0.000007  -0.000008
    21  H    0.037055   0.364774  -0.000016   0.000029  -0.000023   0.000034
    22  H   -0.000255   0.000034   0.130906  -0.099437  -0.085774   0.029398
    23  H   -0.000377  -0.000174  -0.071236  -0.040732   0.138686  -0.599283
    24  C   -0.000010   0.000002   0.040727  -0.185162  -0.382787  -0.558935
    25  C   -0.000037  -0.000001  -0.397057  -0.370820  -0.090772   0.058383
    26  H   -0.000036  -0.000004   0.080993  -0.049675  -0.392610   0.455877
    27  F    0.000000   0.000000  -0.017498   0.020813   0.016703  -0.043164
    28  F    0.000000  -0.000000  -0.002295  -0.022000   0.060670  -0.038098
    29  F   -0.000001   0.000000  -0.009115   0.013603  -0.012661  -0.022242
    30  F   -0.000017   0.000000  -0.021324   0.009114   0.004948  -0.005479
    31  F    0.000000  -0.000000  -0.034022  -0.016431   0.054852  -0.003092
    32  F    0.000002   0.000000  -0.020517   0.020626  -0.006521   0.008103
              13         14         15         16         17         18
     1  C   -1.008405   0.019844  -0.005879  -0.010590  -0.000190  -0.001454
     2  N   -0.581230   0.319239   0.005097   0.001030  -0.008531  -0.010278
     3  C    0.033723  -0.137093  -0.016516  -0.008277  -0.002109   0.001777
     4  O   -0.187775   0.020137  -0.008315  -0.010517   0.005357   0.005511
     5  O   -0.000656   0.069936  -0.035648  -0.039208  -0.034906  -0.035627
     6  C   -0.023426   0.003040   0.300233   0.304001   0.046538   0.046148
     7  C   -0.004509   0.000822   0.009336   0.012064   0.399999   0.403937
     8  C   -0.000729  -0.000219  -0.002886  -0.004159  -0.038609  -0.040358
     9  C   -0.108398  -0.008239  -0.000089   0.000335   0.000216   0.000627
    10  C    0.052617  -0.041987   0.000111  -0.000081   0.000074  -0.000184
    11  C    0.076752   0.012704  -0.000134   0.000008  -0.000070   0.000184
    12  C   -1.021211  -0.005440  -0.000228  -0.000837   0.000003  -0.000068
    13  C    9.277277   0.001296   0.001427   0.002527  -0.000017  -0.000425
    14  H    0.001296   0.822278  -0.003048  -0.002337  -0.001540  -0.001360
    15  H    0.001427  -0.003048   0.420185   0.015311   0.019636  -0.017890
    16  H    0.002527  -0.002337   0.015311   0.417671  -0.017959   0.018702
    17  H   -0.000017  -0.001540   0.019636  -0.017959   0.410764   0.010535
    18  H   -0.000425  -0.001360  -0.017890   0.018702   0.010535   0.409747
    19  H   -0.000120   0.000068  -0.007410  -0.009220   0.000878   0.000586
    20  H   -0.000033   0.000056  -0.000197  -0.000080  -0.002982  -0.002756
    21  H    0.000051   0.000067  -0.009301  -0.007698   0.000605   0.000907
    22  H   -0.017447  -0.041346  -0.000271  -0.000261   0.000180   0.000022
    23  H    0.220114  -0.009959   0.000041   0.000246  -0.000136  -0.000208
    24  C    0.099897   0.000535   0.000011   0.000013  -0.000004   0.000004
    25  C   -0.010925  -0.003925  -0.000007   0.000011   0.000000   0.000006
    26  H   -0.460791   0.001496  -0.000166  -0.000101  -0.000006   0.000022
    27  F    0.006027  -0.000189   0.000002   0.000001  -0.000000   0.000000
    28  F    0.016123  -0.000271  -0.000001  -0.000004   0.000001  -0.000001
    29  F    0.018838   0.000219  -0.000003  -0.000002  -0.000000   0.000000
    30  F    0.003940   0.000186   0.000010   0.000010   0.000002  -0.000003
    31  F    0.001791   0.000080   0.000000   0.000000   0.000001  -0.000001
    32  F   -0.013815  -0.000163  -0.000004   0.000002  -0.000002   0.000003
              19         20         21         22         23         24
     1  C    0.000436   0.000035   0.000312  -0.470905  -0.439378  -0.001895
     2  N   -0.000590  -0.000449  -0.000591  -0.035314  -0.016450  -0.000821
     3  C    0.003312   0.002339   0.003311  -0.096536   0.108354   0.000343
     4  O    0.000003  -0.000344   0.000009   0.002371  -0.128516   0.000401
     5  O    0.000882   0.000826   0.000475  -0.035843   0.016102  -0.000450
     6  C   -0.002899  -0.009343  -0.004483  -0.010939  -0.012085   0.000248
     7  C    0.035192  -0.027427   0.037055  -0.000255  -0.000377  -0.000010
     8  C    0.363809   0.447612   0.364774   0.000034  -0.000174   0.000002
     9  C   -0.000020  -0.000021  -0.000016   0.130906  -0.071236   0.040727
    10  C   -0.000008  -0.000005   0.000029  -0.099437  -0.040732  -0.185162
    11  C    0.000012   0.000007  -0.000023  -0.085774   0.138686  -0.382787
    12  C    0.000031  -0.000008   0.000034   0.029398  -0.599283  -0.558935
    13  C   -0.000120  -0.000033   0.000051  -0.017447   0.220114   0.099897
    14  H    0.000068   0.000056   0.000067  -0.041346  -0.009959   0.000535
    15  H   -0.007410  -0.000197  -0.009301  -0.000271   0.000041   0.000011
    16  H   -0.009220  -0.000080  -0.007698  -0.000261   0.000246   0.000013
    17  H    0.000878  -0.002982   0.000605   0.000180  -0.000136  -0.000004
    18  H    0.000586  -0.002756   0.000907   0.000022  -0.000208   0.000004
    19  H    0.314798   0.000528   0.021342  -0.000007   0.000025   0.000000
    20  H    0.000528   0.304654   0.000322  -0.000008   0.000003   0.000000
    21  H    0.021342   0.000322   0.314314   0.000011   0.000045  -0.000000
    22  H   -0.000007  -0.000008   0.000011   1.610127  -0.040305   0.009067
    23  H    0.000025   0.000003   0.000045  -0.040305   1.463903  -0.029403
    24  C    0.000000   0.000000  -0.000000   0.009067  -0.029403   5.384548
    25  C   -0.000001  -0.000000  -0.000000  -0.112248  -0.000950  -0.040778
    26  H    0.000001  -0.000000  -0.000004   0.008910  -0.240862  -0.061820
    27  F    0.000000   0.000000  -0.000000  -0.001925   0.000614   0.186113
    28  F   -0.000000  -0.000000   0.000000   0.001312   0.001284   0.155083
    29  F    0.000000  -0.000000   0.000000  -0.000799  -0.003462   0.172326
    30  F   -0.000000   0.000000   0.000000  -0.028818   0.000446   0.005292
    31  F   -0.000000  -0.000000   0.000000   0.007391   0.000293   0.006306
    32  F    0.000000   0.000000  -0.000000   0.009080  -0.000285  -0.004282
              25         26         27         28         29         30
     1  C    0.054170   0.083652   0.000949  -0.003773  -0.016897  -0.010668
     2  N   -0.002425  -0.042354   0.002706   0.000002   0.001624   0.007077
     3  C    0.003015  -0.052169   0.000795  -0.000351  -0.000134   0.003125
     4  O   -0.000675   0.000711  -0.000005  -0.000004   0.000021  -0.000075
     5  O   -0.000822  -0.002623   0.000009   0.000002  -0.000022  -0.000211
     6  C   -0.000463  -0.000785   0.000007  -0.000030  -0.000002   0.000058
     7  C   -0.000037  -0.000036   0.000000   0.000000  -0.000001  -0.000017
     8  C   -0.000001  -0.000004   0.000000  -0.000000   0.000000   0.000000
     9  C   -0.397057   0.080993  -0.017498  -0.002295  -0.009115  -0.021324
    10  C   -0.370820  -0.049675   0.020813  -0.022000   0.013603   0.009114
    11  C   -0.090772  -0.392610   0.016703   0.060670  -0.012661   0.004948
    12  C    0.058383   0.455877  -0.043164  -0.038098  -0.022242  -0.005479
    13  C   -0.010925  -0.460791   0.006027   0.016123   0.018838   0.003940
    14  H   -0.003925   0.001496  -0.000189  -0.000271   0.000219   0.000186
    15  H   -0.000007  -0.000166   0.000002  -0.000001  -0.000003   0.000010
    16  H    0.000011  -0.000101   0.000001  -0.000004  -0.000002   0.000010
    17  H    0.000000  -0.000006  -0.000000   0.000001  -0.000000   0.000002
    18  H    0.000006   0.000022   0.000000  -0.000001   0.000000  -0.000003
    19  H   -0.000001   0.000001   0.000000  -0.000000   0.000000  -0.000000
    20  H   -0.000000  -0.000000   0.000000  -0.000000  -0.000000   0.000000
    21  H   -0.000000  -0.000004  -0.000000   0.000000   0.000000   0.000000
    22  H   -0.112248   0.008910  -0.001925   0.001312  -0.000799  -0.028818
    23  H   -0.000950  -0.240862   0.000614   0.001284  -0.003462   0.000446
    24  C   -0.040778  -0.061820   0.186113   0.155083   0.172326   0.005292
    25  C    5.137142   0.001803   0.014211  -0.005683   0.004700   0.188610
    26  H    0.001803   1.389916  -0.000224   0.005114   0.000217  -0.000315
    27  F    0.014211  -0.000224   9.357202  -0.026404  -0.084181   0.005759
    28  F   -0.005683   0.005114  -0.026404   9.337553  -0.065666  -0.001354
    29  F    0.004700   0.000217  -0.084181  -0.065666   9.374289   0.000225
    30  F    0.188610  -0.000315   0.005759  -0.001354   0.000225   9.371842
    31  F    0.168500  -0.002426  -0.002064  -0.002957   0.004846  -0.089083
    32  F    0.163848  -0.000204  -0.003162  -0.001940  -0.000948  -0.066951
              31         32
     1  C    0.002370   0.014357
     2  N    0.002483   0.000035
     3  C    0.000558   0.000234
     4  O   -0.000023   0.000051
     5  O   -0.000017   0.000152
     6  C   -0.000017   0.000062
     7  C    0.000000   0.000002
     8  C   -0.000000   0.000000
     9  C   -0.034022  -0.020517
    10  C   -0.016431   0.020626
    11  C    0.054852  -0.006521
    12  C   -0.003092   0.008103
    13  C    0.001791  -0.013815
    14  H    0.000080  -0.000163
    15  H    0.000000  -0.000004
    16  H    0.000000   0.000002
    17  H    0.000001  -0.000002
    18  H   -0.000001   0.000003
    19  H   -0.000000   0.000000
    20  H   -0.000000   0.000000
    21  H    0.000000  -0.000000
    22  H    0.007391   0.009080
    23  H    0.000293  -0.000285
    24  C    0.006306  -0.004282
    25  C    0.168500   0.163848
    26  H   -0.002426  -0.000204
    27  F   -0.002064  -0.003162
    28  F   -0.002957  -0.001940
    29  F    0.004846  -0.000948
    30  F   -0.089083  -0.066951
    31  F    9.353681  -0.022167
    32  F   -0.022167   9.328037
 Mulliken charges:
               1
     1  C    0.718263
     2  N   -0.159408
     3  C    0.523347
     4  O   -0.804512
     5  O   -0.416157
     6  C   -0.205551
     7  C   -0.469439
     8  C   -0.964333
     9  C   -1.012063
    10  C    0.495933
    11  C    0.431026
    12  C   -0.949320
    13  C   -0.372489
    14  H   -0.014887
    15  H    0.336591
    16  H    0.339398
    17  H    0.212271
    18  H    0.211891
    19  H    0.278370
    20  H    0.287271
    21  H    0.278455
    22  H    0.269629
    23  H    0.683646
    24  C    1.205428
    25  C    1.243188
    26  H    0.278464
    27  F   -0.433095
    28  F   -0.406310
    29  F   -0.374774
    30  F   -0.376345
    31  F   -0.430855
    32  F   -0.403632
 Sum of Mulliken charges =  -0.00000
 Mulliken charges with hydrogens summed into heavy atoms:
               1
     1  C    0.718263
     2  N   -0.174295
     3  C    0.523347
     4  O   -0.804512
     5  O   -0.416157
     6  C    0.470438
     7  C   -0.045277
     8  C   -0.120238
     9  C   -0.742434
    10  C    0.495933
    11  C    0.431026
    12  C   -0.670856
    13  C    0.311157
    24  C    1.205428
    25  C    1.243188
    27  F   -0.433095
    28  F   -0.406310
    29  F   -0.374774
    30  F   -0.376345
    31  F   -0.430855
    32  F   -0.403632
 Electronic spatial extent (au):  <R**2>=           9884.4435
 Charge=              0.0000 electrons
 Dipole moment (field-independent basis, Debye):
    X=              6.2631    Y=              1.2132    Z=              0.0066  Tot=              6.3795
 Quadrupole moment (field-independent basis, Debye-Ang):
   XX=           -115.7571   YY=           -120.7591   ZZ=           -120.6966
   XY=              7.3680   XZ=              0.1681   YZ=              0.1273
 Traceless Quadrupole moment (field-independent basis, Debye-Ang):
   XX=              3.3138   YY=             -1.6882   ZZ=             -1.6257
   XY=              7.3680   XZ=              0.1681   YZ=              0.1273
 Octapole moment (field-independent basis, Debye-Ang**2):
  XXX=            111.4707  YYY=             11.1287  ZZZ=              0.1982  XYY=            -29.8089
  XXY=             22.6149  XXZ=             -0.3039  XZZ=            -21.3460  YZZ=              4.0197
  YYZ=              0.4831  XYZ=             -1.2597
 Hexadecapole moment (field-independent basis, Debye-Ang**3):
 XXXX=          -9621.8137 YYYY=          -1367.0804 ZZZZ=           -267.5985 XXXY=             19.6783
 XXXZ=              5.4743 YYYX=             27.5083 YYYZ=             -5.9418 ZZZX=             -0.1459
 ZZZY=              2.7457 XXYY=          -2032.9184 XXZZ=          -1770.3264 YYZZ=           -278.4677
 XXYZ=              4.2213 YYXZ=             -2.8709 ZZXY=            -11.5562
 N-N= 1.771850969918D+03 E-N=-6.528159466453D+03  KE= 1.260829714651D+03
 Unable to Open any file for archive entry.
 1\1\GINC-GADI-CPU-CLX-0482\SP\RDSDPBEP86-FC\Aug-CC-pVTZ\C12H11F6N1O2\H
 IO507\10-Sep-2020\0\\# DSDPBEP86/AUG-cc-PVTZ SCF=Tight INT(grid=ultraf
 ine) MaxDisk=60000MB\\NM2CA_c2.DSDPBEP86_AUG-cc-PVTZ\\0,1\C,0,-5.81651
 02221,1.5024757836,0.2212603451\N,0,-4.5791064725,0.8589135928,0.16425
 59533\C,0,-3.3378077155,1.4444796831,0.0808085345\O,0,-3.1074249503,2.
 6246873298,0.0494415844\O,0,-2.4064932612,0.4801661694,0.0391363875\C,
 0,-1.047136191,0.9380336952,-0.0493378016\C,0,-0.1532739999,-0.2821582
 92,-0.0932824801\C,0,1.3154860527,0.1222409537,-0.18700508\C,0,-6.9541
 491172,0.689955862,0.2899922494\C,0,-8.2250788661,1.2347241791,0.34582
 69295\C,0,-8.3870746121,2.6273343332,0.3455348755\C,0,-7.2522505671,3.
 4251563159,0.2717014226\C,0,-5.9734453456,2.8878728966,0.2107852248\H,
 0,-4.5779711915,-0.1505288053,0.1771641896\H,0,-0.831776091,1.56849317
 23,0.81674399\H,0,-0.9408663987,1.5520586648,-0.9468626421\H,0,-0.4345
 210724,-0.8987901162,-0.9512051984\H,0,-0.3268576954,-0.8832626467,0.8
 033291339\H,0,1.508947373,0.7092770821,-1.0880560087\H,0,1.9614049074,
 -0.7558771273,-0.219246886\H,0,1.617197861,0.7242534288,0.6734993705\H
 ,0,-6.8412039748,-0.3878111577,0.2915328773\H,0,-5.1119629431,3.535327
 4358,0.1567335482\C,0,-9.7328207716,3.3095359279,0.3812052674\C,0,-9.3
 853925872,0.2675952419,0.446949001\H,0,-7.3638899367,4.5017996182,0.26
 84964863\F,0,-10.5688581647,2.7450489931,1.2588093709\F,0,-10.33622228
 39,3.2975689582,-0.8152764807\F,0,-9.6101243373,4.5981137972,0.7342993
 17\F,0,-9.0189592434,-0.9692559193,0.0732078339\F,0,-10.4086768562,0.6
 201301961,-0.333512755\F,0,-9.8405213257,0.1679207535,1.7011414395\\Ve
 rsion=ES64L-G16RevC.01\State=1-A\HF=-1264.6933574\MP2=-1266.7517755\RM
 SD=6.598e-09\PG=C01 [X(C12H11F6N1O2)]\\@
 The archive entry for this job was punched.


 WHEN A MATHEMATICIAN ENGAGED IN INVESTIGATING
 PHYSICAL ACTIONS AND RESULTS HAS ARRIVED AT HIS
 CONCLUSIONS, MAY THEY NOT BE EXPRESSED IN COMMON
 LANGUAGE AS FULLY, CLEARLY, AND DEFINITELY AS IN
 MATHEMATICAL FORMULAE?
           - LETTER FROM M. FARADAY TO J.C. MAXWELL, 1857.
 Job cpu time:       1 days 10 hours 24 minutes  7.6 seconds.
 Elapsed time:       0 days  4 hours 19 minutes 59.9 seconds.
 File lengths (MBytes):  RWF=    767 Int=      0 D2E=      0 Chk=     97 Scr=      1
 Normal termination of Gaussian 16 at Thu Sep 10 15:47:05 2020.
