 Entering Gaussian System, Link 0=/apps/gaussian/g09e01/g09/g09
 Initial command:
 /apps/gaussian/g09e01/g09/l1.exe "/jobfs/local/3588758.r-man2/Gau-8471.inp" -scrdir="/jobfs/local/3588758.r-man2/"
 Entering Link 1 = /apps/gaussian/g09e01/g09/l1.exe PID=      8472.
  
 Copyright (c) 1988,1990,1992,1993,1995,1998,2003,2009,2015,
            Gaussian, Inc.  All Rights Reserved.
  
 This is part of the Gaussian(R) 09 program.  It is based on
 the Gaussian(R) 03 system (copyright 2003, Gaussian, Inc.),
 the Gaussian(R) 98 system (copyright 1998, Gaussian, Inc.),
 the Gaussian(R) 94 system (copyright 1995, Gaussian, Inc.),
 the Gaussian 92(TM) system (copyright 1992, Gaussian, Inc.),
 the Gaussian 90(TM) system (copyright 1990, Gaussian, Inc.),
 the Gaussian 88(TM) system (copyright 1988, Gaussian, Inc.),
 the Gaussian 86(TM) system (copyright 1986, Carnegie Mellon
 University), and the Gaussian 82(TM) system (copyright 1983,
 Carnegie Mellon University). Gaussian is a federally registered
 trademark of Gaussian, Inc.
  
 This software contains proprietary and confidential information,
 including trade secrets, belonging to Gaussian, Inc.
  
 This software is provided under written license and may be
 used, copied, transmitted, or stored only in accord with that
 written license.
  
 The following legend is applicable only to US Government
 contracts under FAR:
  
                    RESTRICTED RIGHTS LEGEND
  
 Use, reproduction and disclosure by the US Government is
 subject to restrictions as set forth in subparagraphs (a)
 and (c) of the Commercial Computer Software - Restricted
 Rights clause in FAR 52.227-19.
  
 Gaussian, Inc.
 340 Quinnipiac St., Bldg. 40, Wallingford CT 06492
  
  
 ---------------------------------------------------------------
 Warning -- This program may not be used in any manner that
 competes with the business of Gaussian, Inc. or will provide
 assistance to any competitor of Gaussian, Inc.  The licensee
 of this program is prohibited from giving any competitor of
 Gaussian, Inc. access to this program.  By using this program,
 the user acknowledges that Gaussian, Inc. is engaged in the
 business of creating and licensing software in the field of
 computational chemistry and represents and warrants to the
 licensee that it is not a competitor of Gaussian, Inc. and that
 it will not use this program in any manner prohibited above.
 ---------------------------------------------------------------
  

 Cite this work as:
 Gaussian 09, Revision E.01,
 M. J. Frisch, G. W. Trucks, H. B. Schlegel, G. E. Scuseria, 
 M. A. Robb, J. R. Cheeseman, G. Scalmani, V. Barone, B. Mennucci, 
 G. A. Petersson, H. Nakatsuji, M. Caricato, X. Li, H. P. Hratchian, 
 A. F. Izmaylov, J. Bloino, G. Zheng, J. L. Sonnenberg, M. Hada, 
 M. Ehara, K. Toyota, R. Fukuda, J. Hasegawa, M. Ishida, T. Nakajima, 
 Y. Honda, O. Kitao, H. Nakai, T. Vreven, J. A. Montgomery, Jr., 
 J. E. Peralta, F. Ogliaro, M. Bearpark, J. J. Heyd, E. Brothers, 
 K. N. Kudin, V. N. Staroverov, T. Keith, R. Kobayashi, J. Normand, 
 K. Raghavachari, A. Rendell, J. C. Burant, S. S. Iyengar, J. Tomasi, 
 M. Cossi, N. Rega, J. M. Millam, M. Klene, J. E. Knox, J. B. Cross, 
 V. Bakken, C. Adamo, J. Jaramillo, R. Gomperts, R. E. Stratmann, 
 O. Yazyev, A. J. Austin, R. Cammi, C. Pomelli, J. W. Ochterski, 
 R. L. Martin, K. Morokuma, V. G. Zakrzewski, G. A. Voth, 
 P. Salvador, J. J. Dannenberg, S. Dapprich, A. D. Daniels, 
 O. Farkas, J. B. Foresman, J. V. Ortiz, J. Cioslowski, 
 and D. J. Fox, Gaussian, Inc., Wallingford CT, 2013.
 
 ******************************************
 Gaussian 09:  ES64L-G09RevE.01 30-Nov-2015
                14-Nov-2019 
 ******************************************
 %chk=NM2CA_c2.M062X_6-311pGd_opt_Pentadecane_GD3.chk
 %mem=196608000
 %nproc=8
 Will use up to    8 processors via shared memory.
 ----------------------------------------------------------------------
 # M062X/6-311+G* SCF=Tight INT(grid=ultrafine) OPT IOP(2/17=4) Empiric
 alDispersion=GD3 SCRF=(SMD,Solvent=n-Pentadecane) maxdisk=2684354560
 ----------------------------------------------------------------------
 1/14=-1,18=20,19=15,26=4,38=1/1,3;
 2/9=110,12=2,17=4,18=5,40=1/2;
 3/5=4,6=6,7=11,11=2,16=1,25=1,30=1,70=32201,71=1,72=151,74=-55,75=-5,124=31/1,2,3;
 4//1;
 5/5=2,32=2,38=5,53=151/2;
 6/7=2,8=2,9=2,10=2,28=1/1;
 7//1,2,3,16;
 1/14=-1,18=20,19=15,26=4/3(2);
 2/9=110,17=4/2;
 99//99;
 2/9=110,17=4/2;
 3/5=4,6=6,7=11,11=2,16=1,25=1,30=1,70=32205,71=1,72=151,74=-55,75=-5,124=31/1,2,3;
 4/5=5,16=3,69=1/1;
 5/5=2,32=2,38=5,53=151/2;
 7//1,2,3,16;
 1/14=-1,18=20,19=15,26=4/3(-5);
 2/9=110,17=4/2;
 6/7=2,8=2,9=2,10=2,19=2,28=1/1;
 99/9=1/99;
 -------------------------------------------
 NM2CA_c2.M062X_6-311pGd_opt_Pentadecane_GD3
 -------------------------------------------
 Symbolic Z-matrix:
 Charge =  0 Multiplicity = 1
 C                    -5.8107    1.51153   0.26616 
 N                    -4.57402   0.86904   0.23822 
 C                    -3.33583   1.44828   0.09842 
 O                    -3.11024   2.62751  -0.00039 
 O                    -2.40493   0.48689   0.08729 
 C                    -1.04521   0.9346   -0.06305 
 C                    -0.1554   -0.28871  -0.06018 
 C                     1.3083    0.10695  -0.2266 
 C                    -6.94862   0.69516   0.29501 
 C                    -8.22029   1.23841   0.33211 
 C                    -8.38539   2.63167   0.34841 
 C                    -7.25138   3.43281   0.30956 
 C                    -5.97127   2.89669   0.27103 
 H                    -4.57697  -0.14032   0.2919 
 H                    -0.80532   1.61148   0.76045 
 H                    -0.96115   1.49285  -0.99854 
 H                    -0.4631   -0.95579  -0.87015 
 H                    -0.29812  -0.83269   0.87757 
 H                     1.47277   0.63407  -1.1699 
 H                     1.95329  -0.77314  -0.22298 
 H                     1.63805   0.7626    0.58338 
 H                    -6.82952  -0.38183   0.27791 
 H                    -5.11233   3.54914   0.24575 
 C                    -9.7321    3.30832   0.36683 
 C                    -9.38099   0.27099   0.3946 
 H                    -7.36156   4.50969   0.3179 
 F                    -10.58629   2.73073   1.2216 
 F                    -10.31963   3.30956  -0.8401 
 F                    -9.62695   4.59342   0.73697 
 F                    -9.01409  -0.96076   0.00812 
 F                    -10.39339   0.63653  -0.39769 
 F                    -9.86498   0.14981   1.63845 
 

 GradGradGradGradGradGradGradGradGradGradGradGradGradGradGradGradGradGrad
 Berny optimization.
 Initialization pass.
                           ----------------------------
                           !    Initial Parameters    !
                           ! (Angstroms and Degrees)  !
 --------------------------                            --------------------------
 ! Name  Definition              Value          Derivative Info.                !
 --------------------------------------------------------------------------------
 ! R1    R(1,2)                  1.3939         estimate D2E/DX2                !
 ! R2    R(1,9)                  1.4008         estimate D2E/DX2                !
 ! R3    R(1,13)                 1.3944         estimate D2E/DX2                !
 ! R4    R(2,3)                  1.3741         estimate D2E/DX2                !
 ! R5    R(2,14)                 1.0108         estimate D2E/DX2                !
 ! R6    R(3,4)                  1.2047         estimate D2E/DX2                !
 ! R7    R(3,5)                  1.3383         estimate D2E/DX2                !
 ! R8    R(5,6)                  1.4394         estimate D2E/DX2                !
 ! R9    R(6,7)                  1.5127         estimate D2E/DX2                !
 ! R10   R(6,15)                 1.0926         estimate D2E/DX2                !
 ! R11   R(6,16)                 1.0926         estimate D2E/DX2                !
 ! R12   R(7,8)                  1.5253         estimate D2E/DX2                !
 ! R13   R(7,17)                 1.0935         estimate D2E/DX2                !
 ! R14   R(7,18)                 1.0935         estimate D2E/DX2                !
 ! R15   R(8,19)                 1.093          estimate D2E/DX2                !
 ! R16   R(8,20)                 1.0911         estimate D2E/DX2                !
 ! R17   R(8,21)                 1.093          estimate D2E/DX2                !
 ! R18   R(9,10)                 1.3833         estimate D2E/DX2                !
 ! R19   R(9,22)                 1.0837         estimate D2E/DX2                !
 ! R20   R(10,11)                1.4031         estimate D2E/DX2                !
 ! R21   R(10,25)                1.5123         estimate D2E/DX2                !
 ! R22   R(11,12)                1.389          estimate D2E/DX2                !
 ! R23   R(11,24)                1.5073         estimate D2E/DX2                !
 ! R24   R(12,13)                1.3884         estimate D2E/DX2                !
 ! R25   R(12,26)                1.0825         estimate D2E/DX2                !
 ! R26   R(13,23)                1.0789         estimate D2E/DX2                !
 ! R27   R(24,27)                1.3394         estimate D2E/DX2                !
 ! R28   R(24,28)                1.3423         estimate D2E/DX2                !
 ! R29   R(24,29)                1.3415         estimate D2E/DX2                !
 ! R30   R(25,30)                1.3421         estimate D2E/DX2                !
 ! R31   R(25,31)                1.3365         estimate D2E/DX2                !
 ! R32   R(25,32)                1.3402         estimate D2E/DX2                !
 ! A1    A(2,1,9)              116.905          estimate D2E/DX2                !
 ! A2    A(2,1,13)             124.0622         estimate D2E/DX2                !
 ! A3    A(9,1,13)             119.0325         estimate D2E/DX2                !
 ! A4    A(1,2,3)              127.3873         estimate D2E/DX2                !
 ! A5    A(1,2,14)             117.1698         estimate D2E/DX2                !
 ! A6    A(3,2,14)             115.4016         estimate D2E/DX2                !
 ! A7    A(2,3,4)              126.1362         estimate D2E/DX2                !
 ! A8    A(2,3,5)              108.9548         estimate D2E/DX2                !
 ! A9    A(4,3,5)              124.909          estimate D2E/DX2                !
 ! A10   A(3,5,6)              115.7543         estimate D2E/DX2                !
 ! A11   A(5,6,7)              107.6934         estimate D2E/DX2                !
 ! A12   A(5,6,15)             108.7454         estimate D2E/DX2                !
 ! A13   A(5,6,16)             108.7246         estimate D2E/DX2                !
 ! A14   A(7,6,15)             111.7401         estimate D2E/DX2                !
 ! A15   A(7,6,16)             111.6882         estimate D2E/DX2                !
 ! A16   A(15,6,16)            108.1727         estimate D2E/DX2                !
 ! A17   A(6,7,8)              110.7614         estimate D2E/DX2                !
 ! A18   A(6,7,17)             109.0512         estimate D2E/DX2                !
 ! A19   A(6,7,18)             109.0968         estimate D2E/DX2                !
 ! A20   A(8,7,17)             110.3309         estimate D2E/DX2                !
 ! A21   A(8,7,18)             110.3563         estimate D2E/DX2                !
 ! A22   A(17,7,18)            107.1594         estimate D2E/DX2                !
 ! A23   A(7,8,19)             111.3243         estimate D2E/DX2                !
 ! A24   A(7,8,20)             110.956          estimate D2E/DX2                !
 ! A25   A(7,8,21)             111.3616         estimate D2E/DX2                !
 ! A26   A(19,8,20)            107.6311         estimate D2E/DX2                !
 ! A27   A(19,8,21)            107.7487         estimate D2E/DX2                !
 ! A28   A(20,8,21)            107.6404         estimate D2E/DX2                !
 ! A29   A(1,9,10)             121.2285         estimate D2E/DX2                !
 ! A30   A(1,9,22)             119.3137         estimate D2E/DX2                !
 ! A31   A(10,9,22)            119.4549         estimate D2E/DX2                !
 ! A32   A(9,10,11)            119.897          estimate D2E/DX2                !
 ! A33   A(9,10,25)            117.0931         estimate D2E/DX2                !
 ! A34   A(11,10,25)           122.9851         estimate D2E/DX2                !
 ! A35   A(10,11,12)           118.4463         estimate D2E/DX2                !
 ! A36   A(10,11,24)           123.4397         estimate D2E/DX2                !
 ! A37   A(12,11,24)           118.0909         estimate D2E/DX2                !
 ! A38   A(11,12,13)           122.0602         estimate D2E/DX2                !
 ! A39   A(11,12,26)           119.3701         estimate D2E/DX2                !
 ! A40   A(13,12,26)           118.5676         estimate D2E/DX2                !
 ! A41   A(1,13,12)            119.3305         estimate D2E/DX2                !
 ! A42   A(1,13,23)            120.5931         estimate D2E/DX2                !
 ! A43   A(12,13,23)           120.0763         estimate D2E/DX2                !
 ! A44   A(11,24,27)           112.5834         estimate D2E/DX2                !
 ! A45   A(11,24,28)           112.3647         estimate D2E/DX2                !
 ! A46   A(11,24,29)           111.3087         estimate D2E/DX2                !
 ! A47   A(27,24,28)           107.1621         estimate D2E/DX2                !
 ! A48   A(27,24,29)           106.6798         estimate D2E/DX2                !
 ! A49   A(28,24,29)           106.3504         estimate D2E/DX2                !
 ! A50   A(10,25,30)           111.4316         estimate D2E/DX2                !
 ! A51   A(10,25,31)           112.4527         estimate D2E/DX2                !
 ! A52   A(10,25,32)           111.9242         estimate D2E/DX2                !
 ! A53   A(30,25,31)           106.7016         estimate D2E/DX2                !
 ! A54   A(30,25,32)           106.4397         estimate D2E/DX2                !
 ! A55   A(31,25,32)           107.5394         estimate D2E/DX2                !
 ! D1    D(9,1,2,3)            174.2673         estimate D2E/DX2                !
 ! D2    D(9,1,2,14)            -3.2735         estimate D2E/DX2                !
 ! D3    D(13,1,2,3)            -5.9377         estimate D2E/DX2                !
 ! D4    D(13,1,2,14)          176.5214         estimate D2E/DX2                !
 ! D5    D(2,1,9,10)           179.608          estimate D2E/DX2                !
 ! D6    D(2,1,9,22)            -1.0108         estimate D2E/DX2                !
 ! D7    D(13,1,9,10)           -0.1977         estimate D2E/DX2                !
 ! D8    D(13,1,9,22)          179.1835         estimate D2E/DX2                !
 ! D9    D(2,1,13,12)         -179.5397         estimate D2E/DX2                !
 ! D10   D(2,1,13,23)            0.4262         estimate D2E/DX2                !
 ! D11   D(9,1,13,12)            0.2511         estimate D2E/DX2                !
 ! D12   D(9,1,13,23)         -179.783          estimate D2E/DX2                !
 ! D13   D(1,2,3,4)              1.4543         estimate D2E/DX2                !
 ! D14   D(1,2,3,5)           -178.4801         estimate D2E/DX2                !
 ! D15   D(14,2,3,4)           179.0324         estimate D2E/DX2                !
 ! D16   D(14,2,3,5)            -0.902          estimate D2E/DX2                !
 ! D17   D(2,3,5,6)            179.5823         estimate D2E/DX2                !
 ! D18   D(4,3,5,6)             -0.353          estimate D2E/DX2                !
 ! D19   D(3,5,6,7)           -179.6636         estimate D2E/DX2                !
 ! D20   D(3,5,6,15)            59.0827         estimate D2E/DX2                !
 ! D21   D(3,5,6,16)           -58.4845         estimate D2E/DX2                !
 ! D22   D(5,6,7,8)            179.5871         estimate D2E/DX2                !
 ! D23   D(5,6,7,17)            57.9854         estimate D2E/DX2                !
 ! D24   D(5,6,7,18)           -58.7495         estimate D2E/DX2                !
 ! D25   D(15,6,7,8)           -61.0487         estimate D2E/DX2                !
 ! D26   D(15,6,7,17)          177.3496         estimate D2E/DX2                !
 ! D27   D(15,6,7,18)           60.6147         estimate D2E/DX2                !
 ! D28   D(16,6,7,8)            60.2791         estimate D2E/DX2                !
 ! D29   D(16,6,7,17)          -61.3226         estimate D2E/DX2                !
 ! D30   D(16,6,7,18)         -178.0575         estimate D2E/DX2                !
 ! D31   D(6,7,8,19)           -60.2649         estimate D2E/DX2                !
 ! D32   D(6,7,8,20)           179.8882         estimate D2E/DX2                !
 ! D33   D(6,7,8,21)            60.0048         estimate D2E/DX2                !
 ! D34   D(17,7,8,19)           60.5813         estimate D2E/DX2                !
 ! D35   D(17,7,8,20)          -59.2656         estimate D2E/DX2                !
 ! D36   D(17,7,8,21)         -179.1491         estimate D2E/DX2                !
 ! D37   D(18,7,8,19)          178.8147         estimate D2E/DX2                !
 ! D38   D(18,7,8,20)           58.9678         estimate D2E/DX2                !
 ! D39   D(18,7,8,21)          -60.9156         estimate D2E/DX2                !
 ! D40   D(1,9,10,11)           -0.3333         estimate D2E/DX2                !
 ! D41   D(1,9,10,25)         -178.5739         estimate D2E/DX2                !
 ! D42   D(22,9,10,11)        -179.7136         estimate D2E/DX2                !
 ! D43   D(22,9,10,25)           2.0457         estimate D2E/DX2                !
 ! D44   D(9,10,11,12)           0.7945         estimate D2E/DX2                !
 ! D45   D(9,10,11,24)         179.0095         estimate D2E/DX2                !
 ! D46   D(25,10,11,12)        178.9272         estimate D2E/DX2                !
 ! D47   D(25,10,11,24)         -2.8578         estimate D2E/DX2                !
 ! D48   D(9,10,25,30)         -18.5029         estimate D2E/DX2                !
 ! D49   D(9,10,25,31)        -138.2565         estimate D2E/DX2                !
 ! D50   D(9,10,25,32)         100.5568         estimate D2E/DX2                !
 ! D51   D(11,10,25,30)        163.3155         estimate D2E/DX2                !
 ! D52   D(11,10,25,31)         43.5619         estimate D2E/DX2                !
 ! D53   D(11,10,25,32)        -77.6248         estimate D2E/DX2                !
 ! D54   D(10,11,12,13)         -0.7536         estimate D2E/DX2                !
 ! D55   D(10,11,12,26)        179.7829         estimate D2E/DX2                !
 ! D56   D(24,11,12,13)       -179.0652         estimate D2E/DX2                !
 ! D57   D(24,11,12,26)          1.4713         estimate D2E/DX2                !
 ! D58   D(10,11,24,27)         43.6632         estimate D2E/DX2                !
 ! D59   D(10,11,24,28)        -77.4484         estimate D2E/DX2                !
 ! D60   D(10,11,24,29)        163.3925         estimate D2E/DX2                !
 ! D61   D(12,11,24,27)       -138.1159         estimate D2E/DX2                !
 ! D62   D(12,11,24,28)        100.7726         estimate D2E/DX2                !
 ! D63   D(12,11,24,29)        -18.3865         estimate D2E/DX2                !
 ! D64   D(11,12,13,1)           0.2312         estimate D2E/DX2                !
 ! D65   D(11,12,13,23)       -179.7349         estimate D2E/DX2                !
 ! D66   D(26,12,13,1)         179.6988         estimate D2E/DX2                !
 ! D67   D(26,12,13,23)         -0.2672         estimate D2E/DX2                !
 --------------------------------------------------------------------------------
 Trust Radius=3.00D-01 FncErr=1.00D-07 GrdErr=1.00D-06
 Number of steps in this run=    164 maximum allowed number of steps=    192.
 GradGradGradGradGradGradGradGradGradGradGradGradGradGradGradGradGradGrad

                          Input orientation:                          
 ---------------------------------------------------------------------
 Center     Atomic      Atomic             Coordinates (Angstroms)
 Number     Number       Type             X           Y           Z
 ---------------------------------------------------------------------
      1          6           0       -5.810698    1.511528    0.266162
      2          7           0       -4.574024    0.869045    0.238216
      3          6           0       -3.335826    1.448277    0.098425
      4          8           0       -3.110244    2.627514   -0.000389
      5          8           0       -2.404926    0.486887    0.087289
      6          6           0       -1.045209    0.934601   -0.063054
      7          6           0       -0.155401   -0.288714   -0.060176
      8          6           0        1.308295    0.106947   -0.226595
      9          6           0       -6.948619    0.695157    0.295012
     10          6           0       -8.220285    1.238413    0.332106
     11          6           0       -8.385392    2.631667    0.348412
     12          6           0       -7.251379    3.432811    0.309559
     13          6           0       -5.971269    2.896687    0.271028
     14          1           0       -4.576966   -0.140323    0.291898
     15          1           0       -0.805317    1.611478    0.760449
     16          1           0       -0.961149    1.492848   -0.998535
     17          1           0       -0.463095   -0.955793   -0.870150
     18          1           0       -0.298122   -0.832688    0.877573
     19          1           0        1.472772    0.634072   -1.169895
     20          1           0        1.953286   -0.773137   -0.222981
     21          1           0        1.638052    0.762603    0.583376
     22          1           0       -6.829517   -0.381827    0.277907
     23          1           0       -5.112332    3.549138    0.245752
     24          6           0       -9.732104    3.308317    0.366827
     25          6           0       -9.380986    0.270992    0.394604
     26          1           0       -7.361565    4.509691    0.317901
     27          9           0      -10.586292    2.730732    1.221601
     28          9           0      -10.319632    3.309558   -0.840099
     29          9           0       -9.626945    4.593425    0.736967
     30          9           0       -9.014085   -0.960763    0.008123
     31          9           0      -10.393386    0.636531   -0.397689
     32          9           0       -9.864979    0.149806    1.638447
 ---------------------------------------------------------------------
                    Distance matrix (angstroms):
                    1          2          3          4          5
     1  C    0.000000
     2  N    1.393889   0.000000
     3  C    2.481356   1.374113   0.000000
     4  O    2.934096   2.300390   1.204679   0.000000
     5  O    3.561062   2.207671   1.338271   2.255536   0.000000
     6  C    4.811560   3.542259   2.353054   2.671002   1.439403
     7  C    5.943883   4.577518   3.627312   4.151994   2.384044
     8  C    7.272945   5.949666   4.844860   5.091947   3.745783
     9  C    1.400771   2.381630   3.695688   4.307480   4.553204
    10  C    2.425913   3.666124   4.894547   5.305909   5.868827
    11  C    2.809008   4.200655   5.192401   5.286668   6.358792
    12  C    2.401827   3.707589   4.394828   4.230079   5.675912
    13  C    1.394444   2.462662   3.012183   2.886448   4.308097
    14  H    2.061884   1.010798   2.025219   3.146049   2.270025
    15  H    5.030721   3.876479   2.620761   2.631329   2.067994
    16  H    5.011779   3.869309   2.616180   2.627237   2.067720
    17  H    5.997977   4.632305   3.869143   4.539160   2.601677
    18  H    6.021434   4.646290   3.877824   4.544430   2.608534
    19  H    7.475368   6.213029   5.039264   5.132796   4.079059
    20  H    8.107922   6.746498   5.745666   6.103549   4.547300
    21  H    7.493023   6.222569   5.044283   5.134685   4.082621
    22  H    2.150099   2.579439   3.948085   4.792345   4.513093
    23  H    2.154062   2.733630   2.755231   2.217732   4.090543
    24  C    4.314628   5.707222   6.666646   6.666886   7.856599
    25  C    3.781850   4.846546   6.165849   6.710545   6.986163
    26  H    3.375922   4.585961   5.062312   4.660217   6.387832
    27  F    5.020519   6.370265   7.448186   7.575962   8.558986
    28  F    4.978676   6.334893   7.288261   7.290101   8.453998
    29  F    4.927828   6.296965   7.062427   6.846597   8.333264
    30  F    4.054688   4.807835   6.168813   6.908772   6.766309
    31  F    4.712468   5.858618   7.121392   7.560821   8.004567
    32  F    4.491620   5.520159   6.832828   7.379110   7.627064
                    6          7          8          9         10
     6  C    0.000000
     7  C    1.512701   0.000000
     8  C    2.500148   1.525337   0.000000
     9  C    5.919104   6.873279   8.294257   0.000000
    10  C    7.192369   8.217564   9.611775   1.383343   0.000000
    11  C    7.545040   8.742329  10.033565   2.411895   1.403097
    12  C    6.700481   8.021181   9.198742   2.754382   2.398889
    13  C    5.312952   6.639337   7.811679   2.408843   2.794939
    14  H    3.708741   4.438041   5.913230   2.514512   3.895677
    15  H    1.092643   2.169458   2.775829   6.228679   7.436694
    16  H    1.092626   2.168804   2.768933   6.177327   7.384470
    17  H    2.136317   1.093493   2.163655   6.793030   8.150703
    18  H    2.136873   1.093458   2.163950   6.848562   8.206562
    19  H    2.766884   2.175766   1.093036   8.548070   9.827339
    20  H    3.454405   2.169731   1.091133   9.037041  10.385374
    21  H    2.765384   2.176213   1.093014   8.591776   9.873011
    22  H    5.942007   6.683322   8.168073   1.083685   2.135966
    23  H    4.844859   6.276453   7.300429   3.394051   3.873794
    24  C    9.015624  10.238858  11.510489   3.818580   2.563456
    25  C    8.374665   9.253730  10.708573   2.471082   1.512295
    26  H    7.267926   8.665819   9.738948   3.836889   3.382139
    27  F    9.793298  10.934508  12.266325   4.270222   2.935337
    28  F    9.605162  10.810524  12.076498   4.414442   3.173478
    29  F    9.363398  10.685544  11.859023   4.750289   3.660425
    30  F    8.191486   8.884402  10.380108   2.662804   2.360393
    31  F    9.358912  10.285248  11.714909   3.514213   2.370070
    32  F    9.016615   9.866788  11.327942   3.256898   2.365715
                   11         12         13         14         15
    11  C    0.000000
    12  C    1.389002   0.000000
    13  C    2.429859   1.388379   0.000000
    14  H    4.710756   4.463192   3.341848   0.000000
    15  H    7.659511   6.713589   5.345873   4.184936   0.000000
    16  H    7.630895   6.711301   5.355731   4.172122   1.769854
    17  H    8.781660   8.168987   6.817908   4.351929   3.060531
    18  H    8.813949   8.177096   6.816211   4.373888   2.498983
    19  H   10.172465   9.280762   7.912612   6.271831   3.141853
    20  H   10.899882  10.134073   8.747012   6.581014   3.776693
    21  H   10.198923   9.285848   7.909086   6.287025   2.592681
    22  H    3.392177   3.838024   3.388996   2.265503   6.363734
    23  H    3.400766   2.143158   1.078936   3.728387   4.750771
    24  C    1.507259   2.484507   3.784508   6.202756   9.095149
    25  C    2.562445   3.813077   4.305313   4.822690   8.687512
    26  H    2.139189   1.082535   2.130000   5.420082   7.181913
    27  F    2.369859   3.527942   4.714824   6.724529   9.855600
    28  F    2.369257   3.278884   4.507031   6.794211   9.796296
    29  F    2.353916   2.678248   4.057091   6.936046   9.312018
    30  F    3.662868   4.743573   4.920140   4.521247   8.635178
    31  F    2.927332   4.265160   5.011049   5.908449   9.706847
    32  F    3.164333   4.401701   4.957436   5.464471   9.218723
                   16         17         18         19         20
    16  H    0.000000
    17  H    2.502076   0.000000
    18  H    3.060638   1.759804   0.000000
    19  H    2.586664   2.522915   3.078892   0.000000
    20  H    3.772281   2.508204   2.506711   1.762889   0.000000
    21  H    3.129145   3.079033   2.525921   1.765729   1.762975
    22  H    6.291379   6.494521   6.574344   8.488591   8.805773
    23  H    4.796760   6.569250   6.540353   7.339296   8.296067
    24  C    9.060342  10.277513  10.315465  11.621633  12.391710
    25  C    8.621336   9.090291   9.162412  10.971944  11.399006
    26  H    7.197199   8.880983   8.873921   9.761120  10.722279
    27  F    9.955136  10.974743  10.893243  12.471417  13.099805
    28  F    9.534503  10.739899  10.979037  12.096602  12.948889
    29  F    9.365979  10.832949  10.793026  11.938020  12.799345
    30  F    8.478405   8.595977   8.760158  10.672647  10.971410
    31  F    9.490068  10.068237  10.281014  11.891258  12.428113
    32  F    9.382730   9.793407   9.647226  11.690419  11.999504
                   21         22         23         24         25
    21  H    0.000000
    22  H    8.550015   0.000000
    23  H    7.310708   4.289784   0.000000
    24  C   11.653669   4.695752   4.627629   0.000000
    25  C   11.031615   2.636245   5.384218   3.057679   0.000000
    26  H    9.752141   4.920531   2.446817   2.658035   4.695798
    27  F   12.398203   4.969098   5.620169   1.339358   2.861294
    28  F   12.308512   5.201650   5.324701   1.342333   3.411514
    29  F   11.899535   5.726209   4.659780   1.341478   4.342940
    30  F   10.805968   2.276024   5.968195   4.343876   1.342090
    31  F   12.072029   3.767578   6.065214   2.856610   1.336525
    32  F   11.567559   3.368639   6.006888   3.407473   1.340179
                   26         27         28         29         30
    26  H    0.000000
    27  F    3.792128   0.000000
    28  F    3.395798   2.157951   0.000000
    29  F    2.305336   2.150544   2.148316   0.000000
    30  F    5.722993   4.191836   4.545280   5.635229   0.000000
    31  F    4.970451   2.654240   2.710395   4.187109   2.149070
    32  F    5.198031   2.712053   4.041527   4.540383   2.148334
                   31         32
    31  F    0.000000
    32  F    2.159159   0.000000
 Stoichiometry    C12H11F6NO2
 Framework group  C1[X(C12H11F6NO2)]
 Deg. of freedom    90
 Full point group                 C1      NOp   1
 Largest Abelian subgroup         C1      NOp   1
 Largest concise Abelian subgroup C1      NOp   1
                         Standard orientation:                         
 ---------------------------------------------------------------------
 Center     Atomic      Atomic             Coordinates (Angstroms)
 Number     Number       Type             X           Y           Z
 ---------------------------------------------------------------------
      1          6           0        0.589221   -0.084205   -0.061087
      2          7           0        1.913633    0.349458   -0.089303
      3          6           0        3.046760   -0.424897   -0.021584
      4          8           0        3.082536   -1.626901    0.050222
      5          8           0        4.120764    0.373137   -0.046583
      6          6           0        5.395515   -0.291295    0.027035
      7          6           0        6.470845    0.772099   -0.006458
      8          6           0        7.857310    0.141898    0.078469
      9          6           0       -0.401123    0.905596   -0.020202
     10          6           0       -1.744366    0.575679    0.001973
     11          6           0       -2.134027   -0.771983   -0.023586
     12          6           0       -1.144570   -1.746340   -0.054083
     13          6           0        0.205908   -1.424854   -0.075354
     14          1           0        2.071922    1.346963   -0.129810
     15          1           0        5.481483   -0.980505   -0.816450
     16          1           0        5.433846   -0.875391    0.949637
     17          1           0        6.315802    1.462873    0.826921
     18          1           0        6.372275    1.351631   -0.928455
     19          1           0        7.980330   -0.424639    1.005092
     20          1           0        8.635624    0.906182    0.052579
     21          1           0        8.035951   -0.541168   -0.755910
     22          1           0       -0.108096    1.948619    0.004493
     23          1           0        0.947741   -2.207805   -0.103186
     24          6           0       -3.571960   -1.221793    0.019437
     25          6           0       -2.734301    1.718901    0.012381
     26          1           0       -1.428361   -2.790885   -0.070489
     27          9           0       -4.362141   -0.495983   -0.782244
     28          9           0       -4.091697   -1.153613    1.255190
     29          9           0       -3.695154   -2.498924   -0.372126
     30          9           0       -2.153742    2.866834    0.395010
     31          9           0       -3.752317    1.504982    0.851537
     32          9           0       -3.252906    1.942839   -1.202930
 ---------------------------------------------------------------------
 Rotational constants (GHZ):      0.6916104      0.1132735      0.1009738
 Standard basis: 6-311+G(d) (5D, 7F)
 There are   516 symmetry adapted cartesian basis functions of A   symmetry.
 There are   495 symmetry adapted basis functions of A   symmetry.
   495 basis functions,   811 primitive gaussians,   516 cartesian basis functions
    80 alpha electrons       80 beta electrons
       nuclear repulsion energy      1771.8207398528 Hartrees.
 NAtoms=   32 NActive=   32 NUniq=   32 SFac= 1.00D+00 NAtFMM=   60 NAOKFM=F Big=F
 Integral buffers will be    131072 words long.
 Raffenetti 2 integral format.
 Two-electron integral symmetry is turned on.
 Nuclear repulsion after empirical dispersion term =     1771.8192448531 Hartrees.
 ------------------------------------------------------------------------------
 Polarizable Continuum Model (PCM)
 =================================
 Model                : PCM (using non-symmetric T matrix).
 Atomic radii         : SMD-Coulomb.
 Polarization charges : Total charges.
 Charge compensation  : None.
 Solution method      : On-the-fly selection.
 Cavity type          : VdW (van der Waals Surface) (Alpha=1.000).
 Cavity algorithm     : GePol (No added spheres)
                        Default sphere list used, NSphG=   32.
                        Lebedev-Laikov grids with approx.  5.0 points / Ang**2.
                        Smoothing algorithm: York/Karplus (Gamma=1.0000).
                        Polarization charges: spherical gaussians, with
                                              point-specific exponents (IZeta= 3).
                        Self-potential: point-specific (ISelfS= 7).
                        Self-field    : sphere-specific E.n sum rule (ISelfD= 2).
 1st derivatives      : Analytical E(r).r(x)/FMM algorithm (CHGder, D1EAlg=3).
                        Cavity 1st derivative terms included.
 Solvent              : n-Pentadecane, Eps=   2.033300 Eps(inf)=   2.049192
 ------------------------------------------------------------------------------
 ------------------------------------------------------------------------------
 Atomic radii for non-electrostatic terms: SMD-CDS.
 ------------------------------------------------------------------------------
 Nuclear repulsion after PCM non-electrostatic terms =     1771.8159903488 Hartrees.
 One-electron integrals computed using PRISM.
 NBasis=   495 RedAO= T EigKep=  1.32D-06  NBF=   495
 NBsUse=   493 1.00D-06 EigRej=  5.37D-07 NBFU=   493
 ExpMin= 4.38D-02 ExpMax= 1.14D+04 ExpMxC= 1.72D+03 IAcc=3 IRadAn=         5 AccDes= 0.00D+00
 Harris functional with IExCor= 1009 and IRadAn=       5 diagonalized for initial guess.
 HarFok:  IExCor= 1009 AccDes= 0.00D+00 IRadAn=         5 IDoV= 1 UseB2=F ITyADJ=14
 ICtDFT=  3500011 ScaDFX=  1.000000  1.000000  1.000000  1.000000
 FoFCou: FMM=F IPFlag=           0 FMFlag=      100000 FMFlg1=           0
         NFxFlg=           0 DoJE=T BraDBF=F KetDBF=T FulRan=T
         wScrn=  0.000000 ICntrl=     500 IOpCl=  0 I1Cent=   200000004 NGrid=           0
         NMat0=    1 NMatS0=      1 NMatT0=    0 NMatD0=    1 NMtDS0=    0 NMtDT0=    0
 Petite list used in FoFCou.
 Requested convergence on RMS density matrix=1.00D-08 within 128 cycles.
 Requested convergence on MAX density matrix=1.00D-06.
 Requested convergence on             energy=1.00D-06.
 No special actions if energy rises.
 Inv3:  Mode=1 IEnd=    18213888.
 Iteration    1 A*A^-1 deviation from unit magnitude is 5.55D-15 for   2455.
 Iteration    1 A*A^-1 deviation from orthogonality  is 1.86D-15 for   1367   1225.
 Iteration    1 A^-1*A deviation from unit magnitude is 6.00D-15 for   2455.
 Iteration    1 A^-1*A deviation from orthogonality  is 6.65D-15 for   2048   1378.
 Error on total polarization charges =  0.01785
 SCF Done:  E(RM062X) =  -1268.13173420     A.U. after   16 cycles
            NFock= 16  Conv=0.38D-08     -V/T= 2.0030
 SMD-CDS (non-electrostatic) energy       (kcal/mol) =      -2.04
 (included in total energy above)

 **********************************************************************

            Population analysis using the SCF density.

 **********************************************************************

 Orbital symmetries:
       Occupied  (A) (A) (A) (A) (A) (A) (A) (A) (A) (A) (A) (A)
                 (A) (A) (A) (A) (A) (A) (A) (A) (A) (A) (A) (A)
                 (A) (A) (A) (A) (A) (A) (A) (A) (A) (A) (A) (A)
                 (A) (A) (A) (A) (A) (A) (A) (A) (A) (A) (A) (A)
                 (A) (A) (A) (A) (A) (A) (A) (A) (A) (A) (A) (A)
                 (A) (A) (A) (A) (A) (A) (A) (A) (A) (A) (A) (A)
                 (A) (A) (A) (A) (A) (A) (A) (A)
       Virtual   (A) (A) (A) (A) (A) (A) (A) (A) (A) (A) (A) (A)
                 (A) (A) (A) (A) (A) (A) (A) (A) (A) (A) (A) (A)
                 (A) (A) (A) (A) (A) (A) (A) (A) (A) (A) (A) (A)
                 (A) (A) (A) (A) (A) (A) (A) (A) (A) (A) (A) (A)
                 (A) (A) (A) (A) (A) (A) (A) (A) (A) (A) (A) (A)
                 (A) (A) (A) (A) (A) (A) (A) (A) (A) (A) (A) (A)
                 (A) (A) (A) (A) (A) (A) (A) (A) (A) (A) (A) (A)
                 (A) (A) (A) (A) (A) (A) (A) (A) (A) (A) (A) (A)
                 (A) (A) (A) (A) (A) (A) (A) (A) (A) (A) (A) (A)
                 (A) (A) (A) (A) (A) (A) (A) (A) (A) (A) (A) (A)
                 (A) (A) (A) (A) (A) (A) (A) (A) (A) (A) (A) (A)
                 (A) (A) (A) (A) (A) (A) (A) (A) (A) (A) (A) (A)
                 (A) (A) (A) (A) (A) (A) (A) (A) (A) (A) (A) (A)
                 (A) (A) (A) (A) (A) (A) (A) (A) (A) (A) (A) (A)
                 (A) (A) (A) (A) (A) (A) (A) (A) (A) (A) (A) (A)
                 (A) (A) (A) (A) (A) (A) (A) (A) (A) (A) (A) (A)
                 (A) (A) (A) (A) (A) (A) (A) (A) (A) (A) (A) (A)
                 (A) (A) (A) (A) (A) (A) (A) (A) (A) (A) (A) (A)
                 (A) (A) (A) (A) (A) (A) (A) (A) (A) (A) (A) (A)
                 (A) (A) (A) (A) (A) (A) (A) (A) (A) (A) (A) (A)
                 (A) (A) (A) (A) (A) (A) (A) (A) (A) (A) (A) (A)
                 (A) (A) (A) (A) (A) (A) (A) (A) (A) (A) (A) (A)
                 (A) (A) (A) (A) (A) (A) (A) (A) (A) (A) (A) (A)
                 (A) (A) (A) (A) (A) (A) (A) (A) (A) (A) (A) (A)
                 (A) (A) (A) (A) (A) (A) (A) (A) (A) (A) (A) (A)
                 (A) (A) (A) (A) (A) (A) (A) (A) (A) (A) (A) (A)
                 (A) (A) (A) (A) (A) (A) (A) (A) (A) (A) (A) (A)
                 (A) (A) (A) (A) (A) (A) (A) (A) (A) (A) (A) (A)
                 (A) (A) (A) (A) (A) (A) (A) (A) (A) (A) (A) (A)
                 (A) (A) (A) (A) (A) (A) (A) (A) (A) (A) (A) (A)
                 (A) (A) (A) (A) (A) (A) (A) (A) (A) (A) (A) (A)
                 (A) (A) (A) (A) (A) (A) (A) (A) (A) (A) (A) (A)
                 (A) (A) (A) (A) (A) (A) (A) (A) (A) (A) (A) (A)
                 (A) (A) (A) (A) (A) (A) (A) (A) (A) (A) (A) (A)
                 (A) (A) (A) (A) (A)
 The electronic state is 1-A.
 Alpha  occ. eigenvalues --  -25.28844 -25.28591 -25.28375 -25.28327 -25.28180
 Alpha  occ. eigenvalues --  -25.27854 -19.68137 -19.62270 -14.81091 -10.81670
 Alpha  occ. eigenvalues --  -10.81215 -10.71862 -10.62892 -10.60387 -10.60115
 Alpha  occ. eigenvalues --  -10.59368 -10.58185 -10.57861 -10.56838 -10.54301
 Alpha  occ. eigenvalues --  -10.53168  -1.48299  -1.47632  -1.38847  -1.38485
 Alpha  occ. eigenvalues --   -1.38222  -1.37909  -1.26306  -1.16380  -1.08783
 Alpha  occ. eigenvalues --   -1.00713  -0.91896  -0.90857  -0.89595  -0.83996
 Alpha  occ. eigenvalues --   -0.82017  -0.79882  -0.75775  -0.74845  -0.71540
 Alpha  occ. eigenvalues --   -0.70673  -0.70572  -0.70087  -0.69763  -0.69229
 Alpha  occ. eigenvalues --   -0.68144  -0.65460  -0.64931  -0.60449  -0.60048
 Alpha  occ. eigenvalues --   -0.58923  -0.58870  -0.58116  -0.58016  -0.57300
 Alpha  occ. eigenvalues --   -0.56018  -0.55380  -0.54727  -0.54396  -0.53577
 Alpha  occ. eigenvalues --   -0.53431  -0.52785  -0.52154  -0.51732  -0.51643
 Alpha  occ. eigenvalues --   -0.50958  -0.49874  -0.49702  -0.47015  -0.46487
 Alpha  occ. eigenvalues --   -0.45616  -0.44487  -0.43869  -0.41703  -0.41245
 Alpha  occ. eigenvalues --   -0.40645  -0.38823  -0.37980  -0.34690  -0.30571
 Alpha virt. eigenvalues --   -0.02499  -0.01326   0.00224   0.01895   0.02033
 Alpha virt. eigenvalues --    0.03092   0.03152   0.03510   0.04307   0.04545
 Alpha virt. eigenvalues --    0.04967   0.05075   0.06132   0.06480   0.06740
 Alpha virt. eigenvalues --    0.06815   0.07149   0.07434   0.08174   0.08536
 Alpha virt. eigenvalues --    0.08903   0.09179   0.09725   0.11035   0.11100
 Alpha virt. eigenvalues --    0.11201   0.12111   0.12250   0.12742   0.13227
 Alpha virt. eigenvalues --    0.13954   0.14459   0.14576   0.14924   0.15801
 Alpha virt. eigenvalues --    0.16211   0.17128   0.17455   0.17846   0.17991
 Alpha virt. eigenvalues --    0.18177   0.18602   0.19120   0.19731   0.20138
 Alpha virt. eigenvalues --    0.20247   0.20605   0.20863   0.21325   0.21630
 Alpha virt. eigenvalues --    0.22434   0.22843   0.23316   0.23478   0.23606
 Alpha virt. eigenvalues --    0.24057   0.24426   0.25037   0.25158   0.25625
 Alpha virt. eigenvalues --    0.26037   0.26107   0.26847   0.26971   0.27301
 Alpha virt. eigenvalues --    0.27654   0.27702   0.28125   0.28564   0.28830
 Alpha virt. eigenvalues --    0.29413   0.29710   0.30091   0.30449   0.31091
 Alpha virt. eigenvalues --    0.31569   0.31887   0.32152   0.32232   0.33198
 Alpha virt. eigenvalues --    0.33638   0.34005   0.35281   0.35334   0.35946
 Alpha virt. eigenvalues --    0.36626   0.37248   0.37591   0.37856   0.38322
 Alpha virt. eigenvalues --    0.38607   0.39243   0.39266   0.39957   0.40187
 Alpha virt. eigenvalues --    0.41000   0.41562   0.42483   0.42829   0.43269
 Alpha virt. eigenvalues --    0.43382   0.44083   0.44634   0.45056   0.45280
 Alpha virt. eigenvalues --    0.45959   0.46725   0.48179   0.48389   0.48629
 Alpha virt. eigenvalues --    0.49227   0.50095   0.50352   0.52016   0.52808
 Alpha virt. eigenvalues --    0.53015   0.54319   0.55093   0.55507   0.55672
 Alpha virt. eigenvalues --    0.56444   0.57281   0.58700   0.59253   0.59731
 Alpha virt. eigenvalues --    0.60858   0.61700   0.62238   0.63171   0.63901
 Alpha virt. eigenvalues --    0.64323   0.66008   0.66544   0.67563   0.67781
 Alpha virt. eigenvalues --    0.68066   0.69693   0.70074   0.70862   0.71300
 Alpha virt. eigenvalues --    0.72462   0.72707   0.73080   0.73367   0.73719
 Alpha virt. eigenvalues --    0.74418   0.76466   0.76623   0.77031   0.77474
 Alpha virt. eigenvalues --    0.78053   0.78774   0.79880   0.80854   0.81600
 Alpha virt. eigenvalues --    0.82240   0.82339   0.84557   0.87018   0.88734
 Alpha virt. eigenvalues --    0.91218   0.91952   0.92798   0.94328   0.95087
 Alpha virt. eigenvalues --    0.96001   0.96661   0.99704   0.99773   1.03138
 Alpha virt. eigenvalues --    1.03314   1.04694   1.05028   1.06427   1.07811
 Alpha virt. eigenvalues --    1.09357   1.10331   1.11284   1.11962   1.13805
 Alpha virt. eigenvalues --    1.14722   1.15143   1.16463   1.18731   1.19244
 Alpha virt. eigenvalues --    1.21791   1.22499   1.23351   1.24887   1.25934
 Alpha virt. eigenvalues --    1.31088   1.31632   1.35856   1.37911   1.38373
 Alpha virt. eigenvalues --    1.39162   1.40435   1.41536   1.43044   1.43548
 Alpha virt. eigenvalues --    1.44447   1.46277   1.47947   1.48446   1.49122
 Alpha virt. eigenvalues --    1.49370   1.49568   1.49804   1.50400   1.52038
 Alpha virt. eigenvalues --    1.52842   1.54071   1.54823   1.55079   1.56490
 Alpha virt. eigenvalues --    1.57505   1.57747   1.58332   1.58870   1.59208
 Alpha virt. eigenvalues --    1.59523   1.60451   1.60956   1.61657   1.61887
 Alpha virt. eigenvalues --    1.62603   1.62978   1.64126   1.66126   1.67763
 Alpha virt. eigenvalues --    1.71155   1.73278   1.76287   1.76758   1.77861
 Alpha virt. eigenvalues --    1.78425   1.78964   1.79849   1.81863   1.83639
 Alpha virt. eigenvalues --    1.84125   1.84346   1.85378   1.87483   1.87764
 Alpha virt. eigenvalues --    1.88565   1.89646   1.92418   1.93770   1.96368
 Alpha virt. eigenvalues --    1.98708   1.99257   2.01085   2.02681   2.04138
 Alpha virt. eigenvalues --    2.04644   2.08762   2.10177   2.11211   2.12004
 Alpha virt. eigenvalues --    2.14546   2.16563   2.17526   2.18625   2.22612
 Alpha virt. eigenvalues --    2.23159   2.24980   2.34147   2.36384   2.38940
 Alpha virt. eigenvalues --    2.40663   2.42065   2.43266   2.43670   2.50374
 Alpha virt. eigenvalues --    2.51926   2.54718   2.56091   2.57280   2.59818
 Alpha virt. eigenvalues --    2.60717   2.61689   2.65000   2.68844   2.71062
 Alpha virt. eigenvalues --    2.73174   2.74001   2.79807   2.81542   2.84729
 Alpha virt. eigenvalues --    2.86450   2.91910   2.92670   2.93165   2.97012
 Alpha virt. eigenvalues --    2.99229   2.99377   3.00918   3.01784   3.03975
 Alpha virt. eigenvalues --    3.05269   3.06087   3.06645   3.09767   3.11848
 Alpha virt. eigenvalues --    3.12578   3.14169   3.18027   3.18785   3.21131
 Alpha virt. eigenvalues --    3.24592   3.28618   3.29440   3.29757   3.33716
 Alpha virt. eigenvalues --    3.37218   3.38392   3.41101   3.43914   3.44257
 Alpha virt. eigenvalues --    3.50250   3.54610   3.55919   3.70124   3.70951
 Alpha virt. eigenvalues --    3.73825   3.79172   3.80209   3.80751   3.82462
 Alpha virt. eigenvalues --    3.83882   3.84328   3.85160   3.85585   3.85936
 Alpha virt. eigenvalues --    3.86581   3.87302   3.88476   3.88902   3.90515
 Alpha virt. eigenvalues --    3.90806   3.94142   3.97178   3.98305   4.00803
 Alpha virt. eigenvalues --    4.01158   4.01594   4.02235   4.05709   4.10304
 Alpha virt. eigenvalues --    4.11764   4.12874   4.18481   4.21590   4.23190
 Alpha virt. eigenvalues --    4.27709   4.28496   4.31145   4.32613   4.55735
 Alpha virt. eigenvalues --    4.72454   4.79666   4.81263   4.99292   4.99617
 Alpha virt. eigenvalues --    5.02047   5.03124   5.08865   5.09863   5.15914
 Alpha virt. eigenvalues --    5.36535   5.50010   5.80379   5.95740   6.46187
 Alpha virt. eigenvalues --    6.48018   6.49782   6.50415   6.51250   6.53317
 Alpha virt. eigenvalues --    6.53614   6.54943   6.55326   6.55939   6.58613
 Alpha virt. eigenvalues --    6.62338   6.63349   6.63727   6.88376   6.89591
 Alpha virt. eigenvalues --    6.89994   6.91479  23.45836  23.57075  23.64453
 Alpha virt. eigenvalues --   23.65301  23.71973  23.81533  23.92407  23.93043
 Alpha virt. eigenvalues --   23.96921  24.08547  24.12477  24.19966  35.65562
 Alpha virt. eigenvalues --   50.01614  50.13432  66.89600  66.89933  66.90557
 Alpha virt. eigenvalues --   66.91198  66.96062  66.98337
          Condensed to atoms (all electrons):
               1          2          3          4          5          6
     1  C   30.789480  -0.516175  -1.563458  -0.290933  -0.367833  -0.877378
     2  N   -0.516175   7.644335   0.225413  -0.008316  -0.221770  -0.285930
     3  C   -1.563458   0.225413   8.876466   0.493939   0.302888  -0.584333
     4  O   -0.290933  -0.008316   0.493939   8.072078  -0.195767  -0.191930
     5  O   -0.367833  -0.221770   0.302888  -0.195767   8.331203   0.381252
     6  C   -0.877378  -0.285930  -0.584333  -0.191930   0.381252   8.272675
     7  C   -0.033636   0.033229   0.120396   0.031523  -0.158695  -0.927009
     8  C   -0.017516  -0.005518  -0.257175   0.000391   0.032286   0.323753
     9  C    0.892000   0.043360   0.306548  -0.119483  -0.019284   0.136886
    10  C   -6.441037   0.205598  -1.647903  -0.058549  -0.009480  -0.114935
    11  C   -5.282186   0.131587  -0.119517   0.040624   0.024021  -0.021348
    12  C   -3.470518   0.101204  -0.052691   0.166621   0.005990  -0.079984
    13  C   -2.359757  -0.117808  -0.117900   0.365814   0.012834  -0.263991
    14  H   -0.091541   0.267650  -0.002088  -0.000006   0.023083  -0.002202
    15  H    0.005355   0.004498   0.037822  -0.001748  -0.043404   0.357905
    16  H    0.015996   0.004847   0.043032  -0.002125  -0.043662   0.349687
    17  H   -0.000939  -0.000901   0.005936  -0.000293   0.001055  -0.065531
    18  H    0.000977  -0.000773   0.006590  -0.000305   0.000786  -0.061204
    19  H   -0.000035  -0.000048  -0.001118  -0.000080  -0.000434  -0.047818
    20  H    0.000135   0.000035   0.008649   0.000031  -0.000669   0.090994
    21  H   -0.000268  -0.000028  -0.002067  -0.000058  -0.000346  -0.048149
    22  H    0.139230  -0.019706  -0.015409   0.000107  -0.000955  -0.001360
    23  H   -0.000719  -0.023504   0.096114   0.003002   0.002046   0.012148
    24  C    0.651331   0.035798  -0.003822   0.001506   0.002931  -0.000203
    25  C   -4.681007  -0.002880  -0.159586  -0.004594  -0.002375  -0.004566
    26  H    0.007583  -0.001657   0.003022   0.000157   0.000010   0.000052
    27  F   -0.031334   0.000033  -0.001420   0.000002   0.000000  -0.000011
    28  F   -0.007332  -0.000082  -0.000433  -0.000001   0.000000  -0.000002
    29  F   -0.001857   0.000096  -0.000126  -0.000002   0.000001   0.000003
    30  F    0.187370   0.000829  -0.001462  -0.000000   0.000007  -0.000009
    31  F    0.039661   0.000729  -0.001289   0.000002   0.000001  -0.000016
    32  F   -0.027927   0.000983  -0.000664  -0.000002  -0.000000   0.000005
               7          8          9         10         11         12
     1  C   -0.033636  -0.017516   0.892000  -6.441037  -5.282186  -3.470518
     2  N    0.033229  -0.005518   0.043360   0.205598   0.131587   0.101204
     3  C    0.120396  -0.257175   0.306548  -1.647903  -0.119517  -0.052691
     4  O    0.031523   0.000391  -0.119483  -0.058549   0.040624   0.166621
     5  O   -0.158695   0.032286  -0.019284  -0.009480   0.024021   0.005990
     6  C   -0.927009   0.323753   0.136886  -0.114935  -0.021348  -0.079984
     7  C    6.503674  -0.143351   0.005832  -0.003847  -0.003546  -0.003782
     8  C   -0.143351   6.098220   0.004314  -0.000439  -0.000430  -0.002922
     9  C    0.005832   0.004314  15.365431   1.497085  -5.857566  -4.119917
    10  C   -0.003847  -0.000439   1.497085  52.332508 -21.023806  -5.051611
    11  C   -0.003546  -0.000430  -5.857566 -21.023806  51.590564   2.460890
    12  C   -0.003782  -0.002922  -4.119917  -5.051611   2.460890  21.918372
    13  C   -0.006489  -0.014959  -0.996398  -7.237531  -8.538961  -4.992056
    14  H   -0.002116  -0.000483  -0.006649   0.002964   0.003312   0.019276
    15  H   -0.021470  -0.015285   0.000886   0.000146  -0.000122  -0.000114
    16  H   -0.027416  -0.012738   0.001940   0.000802  -0.000373  -0.001479
    17  H    0.448534  -0.047524   0.000214   0.000002   0.000002   0.000036
    18  H    0.437158  -0.042611   0.000091   0.000068  -0.000003   0.000009
    19  H    0.010681   0.382880   0.000015   0.000001  -0.000001  -0.000003
    20  H   -0.134894   0.387223  -0.000029  -0.000001   0.000000   0.000003
    21  H    0.016284   0.378528   0.000001  -0.000002  -0.000000   0.000006
    22  H    0.000002  -0.000003   0.344433  -0.079304  -0.064002  -0.003098
    23  H   -0.000422   0.000061  -0.025976  -0.027341   0.049949   0.001778
    24  C   -0.000496  -0.000004  -1.990866  -0.561478  -2.426005  -1.066468
    25  C   -0.000176  -0.000010   0.765260  -4.790776  -3.904493  -0.315310
    26  H    0.000003   0.000000   0.002622  -0.023330  -0.136745   0.302820
    27  F   -0.000000  -0.000000   0.028779  -0.352773   0.080037   0.143813
    28  F   -0.000000   0.000000   0.001475  -0.072449   0.247482  -0.092449
    29  F   -0.000000   0.000000  -0.007647  -0.065596  -0.220241   0.123936
    30  F    0.000001  -0.000000   0.199221  -0.304427  -0.093974  -0.003158
    31  F    0.000000  -0.000000   0.080410   0.089704  -0.281358   0.018445
    32  F    0.000000   0.000000  -0.093337   0.390412  -0.096799  -0.011993
              13         14         15         16         17         18
     1  C   -2.359757  -0.091541   0.005355   0.015996  -0.000939   0.000977
     2  N   -0.117808   0.267650   0.004498   0.004847  -0.000901  -0.000773
     3  C   -0.117900  -0.002088   0.037822   0.043032   0.005936   0.006590
     4  O    0.365814  -0.000006  -0.001748  -0.002125  -0.000293  -0.000305
     5  O    0.012834   0.023083  -0.043404  -0.043662   0.001055   0.000786
     6  C   -0.263991  -0.002202   0.357905   0.349687  -0.065531  -0.061204
     7  C   -0.006489  -0.002116  -0.021470  -0.027416   0.448534   0.437158
     8  C   -0.014959  -0.000483  -0.015285  -0.012738  -0.047524  -0.042611
     9  C   -0.996398  -0.006649   0.000886   0.001940   0.000214   0.000091
    10  C   -7.237531   0.002964   0.000146   0.000802   0.000002   0.000068
    11  C   -8.538961   0.003312  -0.000122  -0.000373   0.000002  -0.000003
    12  C   -4.992056   0.019276  -0.000114  -0.001479   0.000036   0.000009
    13  C   29.879434   0.051745  -0.002405  -0.006009   0.000100   0.000032
    14  H    0.051745   0.293780   0.000017  -0.000043   0.000005   0.000005
    15  H   -0.002405   0.000017   0.441135  -0.039495   0.005254  -0.007762
    16  H   -0.006009  -0.000043  -0.039495   0.441409  -0.007609   0.005238
    17  H    0.000100   0.000005   0.005254  -0.007609   0.439573  -0.036501
    18  H    0.000032   0.000005  -0.007762   0.005238  -0.036501   0.439647
    19  H   -0.000048  -0.000000  -0.000445   0.003510  -0.007902   0.005944
    20  H    0.000069   0.000000  -0.000186  -0.000183  -0.003164  -0.003173
    21  H    0.000052   0.000000   0.003505  -0.000507   0.005979  -0.007931
    22  H   -0.014326   0.005505  -0.000000  -0.000000  -0.000000  -0.000000
    23  H    0.231114  -0.000057  -0.000026  -0.000031  -0.000000  -0.000000
    24  C   -2.712320   0.002097  -0.000005  -0.000012   0.000000   0.000000
    25  C    2.341454   0.004935   0.000004   0.000026  -0.000001   0.000003
    26  H    0.168489  -0.000006  -0.000000   0.000000  -0.000000   0.000000
    27  F    0.089748   0.000000  -0.000000   0.000000  -0.000000   0.000000
    28  F   -0.029077   0.000000   0.000000  -0.000000   0.000000  -0.000000
    29  F    0.257570   0.000001   0.000000  -0.000000  -0.000000  -0.000000
    30  F   -0.017673   0.000059   0.000000  -0.000000   0.000000  -0.000000
    31  F   -0.000736  -0.000006  -0.000000   0.000000  -0.000000   0.000000
    32  F   -0.014298  -0.000018  -0.000000   0.000000   0.000000  -0.000000
              19         20         21         22         23         24
     1  C   -0.000035   0.000135  -0.000268   0.139230  -0.000719   0.651331
     2  N   -0.000048   0.000035  -0.000028  -0.019706  -0.023504   0.035798
     3  C   -0.001118   0.008649  -0.002067  -0.015409   0.096114  -0.003822
     4  O   -0.000080   0.000031  -0.000058   0.000107   0.003002   0.001506
     5  O   -0.000434  -0.000669  -0.000346  -0.000955   0.002046   0.002931
     6  C   -0.047818   0.090994  -0.048149  -0.001360   0.012148  -0.000203
     7  C    0.010681  -0.134894   0.016284   0.000002  -0.000422  -0.000496
     8  C    0.382880   0.387223   0.378528  -0.000003   0.000061  -0.000004
     9  C    0.000015  -0.000029   0.000001   0.344433  -0.025976  -1.990866
    10  C    0.000001  -0.000001  -0.000002  -0.079304  -0.027341  -0.561478
    11  C   -0.000001   0.000000  -0.000000  -0.064002   0.049949  -2.426005
    12  C   -0.000003   0.000003   0.000006  -0.003098   0.001778  -1.066468
    13  C   -0.000048   0.000069   0.000052  -0.014326   0.231114  -2.712320
    14  H   -0.000000   0.000000   0.000000   0.005505  -0.000057   0.002097
    15  H   -0.000445  -0.000186   0.003505  -0.000000  -0.000026  -0.000005
    16  H    0.003510  -0.000183  -0.000507  -0.000000  -0.000031  -0.000012
    17  H   -0.007902  -0.003164   0.005979  -0.000000  -0.000000   0.000000
    18  H    0.005944  -0.003173  -0.007931  -0.000000  -0.000000   0.000000
    19  H    0.451593  -0.024462  -0.037255  -0.000000  -0.000000  -0.000000
    20  H   -0.024462   0.425011  -0.024629   0.000000   0.000000   0.000000
    21  H   -0.037255  -0.024629   0.452305  -0.000000  -0.000000  -0.000000
    22  H   -0.000000   0.000000  -0.000000   0.379761  -0.000056   0.012563
    23  H   -0.000000   0.000000  -0.000000  -0.000056   0.360999   0.013134
    24  C   -0.000000   0.000000  -0.000000   0.012563   0.013134  19.986416
    25  C    0.000000  -0.000000  -0.000000   0.018407  -0.003273  -7.049923
    26  H    0.000000  -0.000000  -0.000000   0.000031  -0.002795  -0.020575
    27  F   -0.000000   0.000000  -0.000000   0.000027   0.000007  -0.094781
    28  F   -0.000000   0.000000   0.000000   0.000016   0.000037   0.138846
    29  F   -0.000000  -0.000000  -0.000000   0.000010  -0.000011   0.021838
    30  F    0.000000  -0.000000   0.000000   0.010670  -0.000003   0.027628
    31  F   -0.000000  -0.000000  -0.000000   0.000750  -0.000005   0.253140
    32  F   -0.000000  -0.000000   0.000000  -0.001123  -0.000002  -0.003655
              25         26         27         28         29         30
     1  C   -4.681007   0.007583  -0.031334  -0.007332  -0.001857   0.187370
     2  N   -0.002880  -0.001657   0.000033  -0.000082   0.000096   0.000829
     3  C   -0.159586   0.003022  -0.001420  -0.000433  -0.000126  -0.001462
     4  O   -0.004594   0.000157   0.000002  -0.000001  -0.000002  -0.000000
     5  O   -0.002375   0.000010   0.000000   0.000000   0.000001   0.000007
     6  C   -0.004566   0.000052  -0.000011  -0.000002   0.000003  -0.000009
     7  C   -0.000176   0.000003  -0.000000  -0.000000  -0.000000   0.000001
     8  C   -0.000010   0.000000  -0.000000   0.000000   0.000000  -0.000000
     9  C    0.765260   0.002622   0.028779   0.001475  -0.007647   0.199221
    10  C   -4.790776  -0.023330  -0.352773  -0.072449  -0.065596  -0.304427
    11  C   -3.904493  -0.136745   0.080037   0.247482  -0.220241  -0.093974
    12  C   -0.315310   0.302820   0.143813  -0.092449   0.123936  -0.003158
    13  C    2.341454   0.168489   0.089748  -0.029077   0.257570  -0.017673
    14  H    0.004935  -0.000006   0.000000   0.000000   0.000001   0.000059
    15  H    0.000004  -0.000000  -0.000000   0.000000   0.000000   0.000000
    16  H    0.000026   0.000000   0.000000  -0.000000  -0.000000  -0.000000
    17  H   -0.000001  -0.000000  -0.000000   0.000000  -0.000000   0.000000
    18  H    0.000003   0.000000   0.000000  -0.000000  -0.000000  -0.000000
    19  H    0.000000   0.000000  -0.000000  -0.000000  -0.000000   0.000000
    20  H   -0.000000  -0.000000   0.000000   0.000000  -0.000000  -0.000000
    21  H   -0.000000  -0.000000  -0.000000   0.000000  -0.000000   0.000000
    22  H    0.018407   0.000031   0.000027   0.000016   0.000010   0.010670
    23  H   -0.003273  -0.002795   0.000007   0.000037  -0.000011  -0.000003
    24  C   -7.049923  -0.020575  -0.094781   0.138846   0.021838   0.027628
    25  C   22.245690   0.015380   0.291606  -0.020359   0.032381   0.143563
    26  H    0.015380   0.373738   0.000862  -0.000674   0.010214   0.000011
    27  F    0.291606   0.000862   8.982058  -0.039437  -0.024514   0.001742
    28  F   -0.020359  -0.000674  -0.039437   8.957001  -0.042051   0.000079
    29  F    0.032381   0.010214  -0.024514  -0.042051   9.032990   0.000066
    30  F    0.143563   0.000011   0.001742   0.000079   0.000066   9.036699
    31  F   -0.045621   0.000048  -0.004962   0.002283   0.001673  -0.026644
    32  F    0.037340   0.000005   0.003570  -0.000989   0.000058  -0.043067
              31         32
     1  C    0.039661  -0.027927
     2  N    0.000729   0.000983
     3  C   -0.001289  -0.000664
     4  O    0.000002  -0.000002
     5  O    0.000001  -0.000000
     6  C   -0.000016   0.000005
     7  C    0.000000   0.000000
     8  C   -0.000000   0.000000
     9  C    0.080410  -0.093337
    10  C    0.089704   0.390412
    11  C   -0.281358  -0.096799
    12  C    0.018445  -0.011993
    13  C   -0.000736  -0.014298
    14  H   -0.000006  -0.000018
    15  H   -0.000000  -0.000000
    16  H    0.000000   0.000000
    17  H   -0.000000   0.000000
    18  H    0.000000  -0.000000
    19  H   -0.000000  -0.000000
    20  H   -0.000000  -0.000000
    21  H   -0.000000   0.000000
    22  H    0.000750  -0.001123
    23  H   -0.000005  -0.000002
    24  C    0.253140  -0.003655
    25  C   -0.045621   0.037340
    26  H    0.000048   0.000005
    27  F   -0.004962   0.003570
    28  F    0.002283  -0.000989
    29  F    0.001673   0.000058
    30  F   -0.026644  -0.043067
    31  F    8.975178  -0.040757
    32  F   -0.040757   8.935877
 Mulliken charges:
               1
     1  C   -0.665733
     2  N   -0.495128
     3  C    0.005645
     4  O   -0.301606
     5  O   -0.055720
     6  C   -0.347452
     7  C   -0.139973
     8  C   -1.046686
     9  C   -0.439650
    10  C   -0.652676
    11  C   -0.556993
    12  C    0.004354
    13  C    0.044286
    14  H    0.430779
    15  H    0.275942
    16  H    0.275196
    17  H    0.263676
    18  H    0.263716
    19  H    0.265025
    20  H    0.279239
    21  H    0.264582
    22  H    0.287831
    23  H    0.313833
    24  C    0.783384
    25  C    1.088903
    26  H    0.300735
    27  F   -0.073054
    28  F   -0.041882
    29  F   -0.118793
    30  F   -0.117529
    31  F   -0.060630
    32  F   -0.033621
 Sum of Mulliken charges =  -0.00000
 Mulliken charges with hydrogens summed into heavy atoms:
               1
     1  C   -0.665733
     2  N   -0.064350
     3  C    0.005645
     4  O   -0.301606
     5  O   -0.055720
     6  C    0.203687
     7  C    0.387419
     8  C   -0.237840
     9  C   -0.151819
    10  C   -0.652676
    11  C   -0.556993
    12  C    0.305089
    13  C    0.358119
    24  C    0.783384
    25  C    1.088903
    27  F   -0.073054
    28  F   -0.041882
    29  F   -0.118793
    30  F   -0.117529
    31  F   -0.060630
    32  F   -0.033621
 Electronic spatial extent (au):  <R**2>=           9886.0052
 Charge=             -0.0000 electrons
 Dipole moment (field-independent basis, Debye):
    X=              7.1676    Y=              1.2364    Z=             -0.1971  Tot=              7.2762
 Quadrupole moment (field-independent basis, Debye-Ang):
   XX=           -117.4314   YY=           -121.1370   ZZ=           -122.0534
   XY=              7.9357   XZ=             -0.0159   YZ=              0.4143
 Traceless Quadrupole moment (field-independent basis, Debye-Ang):
   XX=              2.7759   YY=             -0.9298   ZZ=             -1.8461
   XY=              7.9357   XZ=             -0.0159   YZ=              0.4143
 Octapole moment (field-independent basis, Debye-Ang**2):
  XXX=            139.4738  YYY=             10.1901  ZZZ=              1.3175  XYY=            -27.7595
  XXY=             22.4740  XXZ=             -0.5060  XZZ=            -19.2306  YZZ=              3.8452
  YYZ=             -0.6714  XYZ=             -0.2908
 Hexadecapole moment (field-independent basis, Debye-Ang**3):
 XXXX=          -9658.1758 YYYY=          -1381.3744 ZZZZ=           -274.3775 XXXY=             28.2516
 XXXZ=              3.1258 YYYX=             31.5147 YYYZ=             -4.9213 ZZZX=             -0.4920
 ZZZY=              2.3607 XXYY=          -2053.0641 XXZZ=          -1789.4131 YYZZ=           -282.4736
 XXYZ=              9.3332 YYXZ=             -7.3740 ZZXY=            -11.5620
 N-N= 1.771815990349D+03 E-N=-6.531244588005D+03  KE= 1.264378029358D+03
 D1PCM: PCM CHGder 1st derivatives, ID1Alg=3 FixD1E=F DoIter=F DoCFld=F I1PDM=0.
 Calling FoFJK, ICntrl=      2127 FMM=F ISym2X=0 I1Cent= 0 IOpClX= 0 NMat=1 NMatS=1 NMatT=0.
 ***** Axes restored to original set *****
 -------------------------------------------------------------------
 Center     Atomic                   Forces (Hartrees/Bohr)
 Number     Number              X              Y              Z
 -------------------------------------------------------------------
      1        6          -0.000003174   -0.000000675   -0.000003723
      2        7          -0.000002942   -0.000008191    0.000000503
      3        6           0.000002720   -0.000000758    0.000001689
      4        8           0.000002756    0.000004457    0.000004356
      5        8           0.000001036    0.000001693    0.000005052
      6        6           0.000000013   -0.000000478    0.000004800
      7        6           0.000000990    0.000000087    0.000007605
      8        6           0.000000925    0.000001026    0.000010047
      9        6           0.000001965   -0.000000002   -0.000004888
     10        6          -0.000000452    0.000002568   -0.000004499
     11        6           0.000001041   -0.000004922   -0.000005680
     12        6          -0.000001476    0.000000111   -0.000004003
     13        6          -0.000000814    0.000002228    0.000002254
     14        1          -0.000000865    0.000002494    0.000000059
     15        1          -0.000002516   -0.000000251    0.000007314
     16        1           0.000001858    0.000000421    0.000007567
     17        1           0.000001985    0.000001476    0.000006873
     18        1          -0.000000713    0.000000405    0.000006417
     19        1           0.000002619    0.000001270    0.000011233
     20        1           0.000000553    0.000001278    0.000010737
     21        1          -0.000000965    0.000000136    0.000011058
     22        1           0.000000667   -0.000000501   -0.000003135
     23        1          -0.000001476   -0.000000824   -0.000000330
     24        6           0.000000248    0.000000004   -0.000006555
     25        6           0.000000347    0.000000015   -0.000010146
     26        1          -0.000000968    0.000000333   -0.000002349
     27        9          -0.000003157   -0.000000231   -0.000011191
     28        9          -0.000000027   -0.000002212   -0.000008476
     29        9          -0.000000289   -0.000000116   -0.000004957
     30        9           0.000001034   -0.000000443   -0.000009483
     31        9           0.000001593    0.000000518   -0.000010834
     32        9          -0.000002515   -0.000000917   -0.000007315
 -------------------------------------------------------------------
 Cartesian Forces:  Max     0.000011233 RMS     0.000004314

 GradGradGradGradGradGradGradGradGradGradGradGradGradGradGradGradGradGrad
 Berny optimization.
 FormGI is forming the generalized inverse of G from B-inverse, IUseBI=4.
 GSVD:  received Info=                   1 from GESDD.
 Internal  Forces:  Max     0.000005397 RMS     0.000001233
 Search for a local minimum.
 Step number   1 out of a maximum of  164
 All quantities printed in internal units (Hartrees-Bohrs-Radians)
 Mixed Optimization -- En-DIIS/RFO-DIIS
 Second derivative matrix not updated -- first step.
 ITU=  0
     Eigenvalues ---    0.00431   0.00598   0.00603   0.00670   0.01171
     Eigenvalues ---    0.01522   0.01565   0.01773   0.01905   0.02022
     Eigenvalues ---    0.02034   0.02113   0.02160   0.02189   0.02197
     Eigenvalues ---    0.02209   0.02238   0.02240   0.02508   0.03840
     Eigenvalues ---    0.04985   0.05402   0.05503   0.05553   0.05728
     Eigenvalues ---    0.08096   0.10508   0.10534   0.10802   0.10811
     Eigenvalues ---    0.11276   0.12000   0.13608   0.15994   0.15999
     Eigenvalues ---    0.15999   0.16000   0.16000   0.16000   0.16000
     Eigenvalues ---    0.21885   0.21954   0.22002   0.22373   0.23481
     Eigenvalues ---    0.24595   0.24984   0.24991   0.25000   0.25000
     Eigenvalues ---    0.25000   0.25000   0.25000   0.25000   0.25000
     Eigenvalues ---    0.25000   0.25000   0.25000   0.29858   0.31081
     Eigenvalues ---    0.31121   0.31628   0.34412   0.34416   0.34464
     Eigenvalues ---    0.34467   0.34509   0.34511   0.34682   0.35553
     Eigenvalues ---    0.35690   0.36123   0.39667   0.42169   0.42682
     Eigenvalues ---    0.45791   0.45839   0.46340   0.46648   0.47330
     Eigenvalues ---    0.48163   0.50194   0.56685   0.56739   0.56875
     Eigenvalues ---    0.57165   0.57349   0.57594   0.57991   1.02507
 RFO step:  Lambda= 0.00000000D+00 EMin= 4.30793860D-03
 Linear search not attempted -- first point.
 Iteration  1 RMS(Cart)=  0.00003597 RMS(Int)=  0.00000000
 Iteration  2 RMS(Cart)=  0.00000000 RMS(Int)=  0.00000000
 Variable       Old X    -DE/DX   Delta X   Delta X   Delta X     New X
                                 (Linear)    (Quad)   (Total)
    R1        2.63407   0.00000   0.00000   0.00000   0.00000   2.63407
    R2        2.64707  -0.00000   0.00000  -0.00001  -0.00001   2.64706
    R3        2.63512   0.00000   0.00000   0.00001   0.00001   2.63512
    R4        2.59670   0.00001   0.00000   0.00001   0.00001   2.59671
    R5        1.91013  -0.00000   0.00000  -0.00001  -0.00001   1.91013
    R6        2.27651   0.00000   0.00000   0.00000   0.00000   2.27652
    R7        2.52897  -0.00000   0.00000  -0.00000  -0.00000   2.52896
    R8        2.72008  -0.00000   0.00000  -0.00000  -0.00000   2.72007
    R9        2.85859  -0.00000   0.00000  -0.00000  -0.00000   2.85859
   R10        2.06480  -0.00000   0.00000  -0.00000  -0.00000   2.06479
   R11        2.06476  -0.00000   0.00000  -0.00000  -0.00000   2.06476
   R12        2.88247  -0.00000   0.00000  -0.00000  -0.00000   2.88247
   R13        2.06640  -0.00000   0.00000  -0.00000  -0.00000   2.06640
   R14        2.06634  -0.00000   0.00000  -0.00000  -0.00000   2.06633
   R15        2.06554  -0.00000   0.00000  -0.00000  -0.00000   2.06554
   R16        2.06194  -0.00000   0.00000  -0.00000  -0.00000   2.06194
   R17        2.06550  -0.00000   0.00000  -0.00000  -0.00000   2.06550
   R18        2.61414  -0.00000   0.00000  -0.00000  -0.00000   2.61414
   R19        2.04787   0.00000   0.00000   0.00000   0.00000   2.04787
   R20        2.65147  -0.00000   0.00000  -0.00001  -0.00001   2.65146
   R21        2.85782  -0.00000   0.00000  -0.00001  -0.00001   2.85782
   R22        2.62483  -0.00000   0.00000  -0.00000  -0.00000   2.62483
   R23        2.84831   0.00000   0.00000   0.00000   0.00000   2.84831
   R24        2.62366   0.00000   0.00000   0.00000   0.00000   2.62366
   R25        2.04569   0.00000   0.00000   0.00000   0.00000   2.04570
   R26        2.03889  -0.00000   0.00000  -0.00000  -0.00000   2.03889
   R27        2.53102  -0.00000   0.00000  -0.00000  -0.00000   2.53102
   R28        2.53664   0.00000   0.00000   0.00000   0.00000   2.53664
   R29        2.53503   0.00000   0.00000   0.00000   0.00000   2.53503
   R30        2.53618   0.00000   0.00000   0.00000   0.00000   2.53618
   R31        2.52567   0.00000   0.00000   0.00000   0.00000   2.52567
   R32        2.53257   0.00000   0.00000   0.00000   0.00000   2.53258
    A1        2.04038  -0.00000   0.00000  -0.00002  -0.00002   2.04036
    A2        2.16529   0.00000   0.00000   0.00002   0.00002   2.16531
    A3        2.07751  -0.00000   0.00000   0.00000   0.00000   2.07751
    A4        2.22333   0.00000   0.00000   0.00001   0.00001   2.22334
    A5        2.04500  -0.00000   0.00000  -0.00001  -0.00001   2.04499
    A6        2.01414  -0.00000   0.00000   0.00000   0.00000   2.01414
    A7        2.20149   0.00000   0.00000   0.00001   0.00001   2.20150
    A8        1.90162  -0.00000   0.00000  -0.00001  -0.00001   1.90161
    A9        2.18007  -0.00000   0.00000  -0.00000  -0.00000   2.18007
   A10        2.02029  -0.00000   0.00000  -0.00000  -0.00000   2.02029
   A11        1.87961   0.00000   0.00000   0.00001   0.00001   1.87961
   A12        1.89797  -0.00000   0.00000  -0.00002  -0.00002   1.89795
   A13        1.89760  -0.00000   0.00000   0.00000   0.00000   1.89760
   A14        1.95023   0.00000   0.00000   0.00000   0.00000   1.95023
   A15        1.94933  -0.00000   0.00000   0.00000   0.00000   1.94933
   A16        1.88797   0.00000   0.00000   0.00000   0.00000   1.88797
   A17        1.93315  -0.00000   0.00000  -0.00000  -0.00000   1.93315
   A18        1.90330  -0.00000   0.00000  -0.00000  -0.00000   1.90330
   A19        1.90410   0.00000   0.00000   0.00000   0.00000   1.90410
   A20        1.92564   0.00000   0.00000   0.00000   0.00000   1.92564
   A21        1.92608  -0.00000   0.00000  -0.00000  -0.00000   1.92608
   A22        1.87028   0.00000   0.00000   0.00000   0.00000   1.87029
   A23        1.94298   0.00000   0.00000   0.00000   0.00000   1.94298
   A24        1.93655  -0.00000   0.00000  -0.00000  -0.00000   1.93655
   A25        1.94363  -0.00000   0.00000  -0.00000  -0.00000   1.94362
   A26        1.87852  -0.00000   0.00000  -0.00000  -0.00000   1.87852
   A27        1.88057  -0.00000   0.00000   0.00000   0.00000   1.88057
   A28        1.87868   0.00000   0.00000   0.00000   0.00000   1.87868
   A29        2.11584  -0.00000   0.00000  -0.00000  -0.00000   2.11583
   A30        2.08242  -0.00000   0.00000  -0.00000  -0.00000   2.08241
   A31        2.08488   0.00000   0.00000   0.00001   0.00001   2.08489
   A32        2.09260   0.00000   0.00000   0.00000   0.00000   2.09260
   A33        2.04366   0.00000   0.00000   0.00000   0.00000   2.04366
   A34        2.14649  -0.00000   0.00000  -0.00000  -0.00000   2.14649
   A35        2.06728   0.00000   0.00000   0.00000   0.00000   2.06728
   A36        2.15443   0.00000   0.00000   0.00000   0.00000   2.15443
   A37        2.06107  -0.00000   0.00000  -0.00000  -0.00000   2.06107
   A38        2.13035  -0.00000   0.00000  -0.00000  -0.00000   2.13035
   A39        2.08340   0.00000   0.00000   0.00000   0.00000   2.08340
   A40        2.06939   0.00000   0.00000   0.00000   0.00000   2.06940
   A41        2.08271  -0.00000   0.00000   0.00000   0.00000   2.08271
   A42        2.10475   0.00000   0.00000   0.00000   0.00000   2.10475
   A43        2.09573   0.00000   0.00000  -0.00000  -0.00000   2.09573
   A44        1.96495   0.00000   0.00000   0.00001   0.00001   1.96496
   A45        1.96113  -0.00000   0.00000  -0.00000  -0.00000   1.96113
   A46        1.94270  -0.00000   0.00000  -0.00000  -0.00000   1.94270
   A47        1.87033  -0.00000   0.00000  -0.00002  -0.00002   1.87031
   A48        1.86191  -0.00000   0.00000  -0.00000  -0.00000   1.86191
   A49        1.85617   0.00000   0.00000   0.00001   0.00001   1.85618
   A50        1.94485  -0.00000   0.00000  -0.00000  -0.00000   1.94485
   A51        1.96267  -0.00000   0.00000  -0.00001  -0.00001   1.96266
   A52        1.95345  -0.00000   0.00000  -0.00000  -0.00000   1.95344
   A53        1.86229   0.00000   0.00000   0.00000   0.00000   1.86230
   A54        1.85772   0.00000   0.00000   0.00001   0.00001   1.85773
   A55        1.87692   0.00000   0.00000   0.00001   0.00001   1.87692
    D1        3.04154   0.00000   0.00000   0.00002   0.00002   3.04156
    D2       -0.05713   0.00000   0.00000   0.00001   0.00001  -0.05713
    D3       -0.10363  -0.00000   0.00000   0.00000   0.00000  -0.10363
    D4        3.08088  -0.00000   0.00000  -0.00001  -0.00001   3.08087
    D5        3.13475   0.00000   0.00000  -0.00000  -0.00000   3.13475
    D6       -0.01764   0.00000   0.00000   0.00001   0.00001  -0.01763
    D7       -0.00345   0.00000   0.00000   0.00002   0.00002  -0.00343
    D8        3.12734   0.00000   0.00000   0.00003   0.00003   3.12737
    D9       -3.13356  -0.00000   0.00000  -0.00000  -0.00000  -3.13356
   D10        0.00744   0.00000   0.00000   0.00004   0.00004   0.00747
   D11        0.00438  -0.00000   0.00000  -0.00002  -0.00002   0.00436
   D12       -3.13781   0.00000   0.00000   0.00002   0.00002  -3.13779
   D13        0.02538   0.00000   0.00000   0.00001   0.00001   0.02540
   D14       -3.11506  -0.00000   0.00000  -0.00001  -0.00001  -3.11508
   D15        3.12470   0.00000   0.00000   0.00003   0.00003   3.12473
   D16       -0.01574   0.00000   0.00000   0.00000   0.00000  -0.01574
   D17        3.13430  -0.00000   0.00000  -0.00001  -0.00001   3.13429
   D18       -0.00616  -0.00000   0.00000  -0.00004  -0.00004  -0.00620
   D19       -3.13572  -0.00000   0.00000  -0.00003  -0.00003  -3.13575
   D20        1.03119  -0.00000   0.00000  -0.00003  -0.00003   1.03116
   D21       -1.02075   0.00000   0.00000  -0.00002  -0.00002  -1.02077
   D22        3.13439   0.00000   0.00000   0.00002   0.00002   3.13440
   D23        1.01204   0.00000   0.00000   0.00001   0.00001   1.01205
   D24       -1.02537   0.00000   0.00000   0.00001   0.00001  -1.02536
   D25       -1.06550  -0.00000   0.00000   0.00000   0.00000  -1.06550
   D26        3.09533  -0.00000   0.00000   0.00000   0.00000   3.09534
   D27        1.05793  -0.00000   0.00000   0.00000   0.00000   1.05793
   D28        1.05207   0.00000   0.00000   0.00001   0.00001   1.05208
   D29       -1.07028  -0.00000   0.00000   0.00001   0.00001  -1.07027
   D30       -3.10769  -0.00000   0.00000   0.00001   0.00001  -3.10768
   D31       -1.05182   0.00000   0.00000   0.00001   0.00001  -1.05181
   D32        3.13964   0.00000   0.00000   0.00001   0.00001   3.13965
   D33        1.04728   0.00000   0.00000   0.00001   0.00001   1.04729
   D34        1.05734  -0.00000   0.00000   0.00001   0.00001   1.05735
   D35       -1.03438  -0.00000   0.00000   0.00001   0.00001  -1.03437
   D36       -3.12674   0.00000   0.00000   0.00001   0.00001  -3.12673
   D37        3.12091   0.00000   0.00000   0.00001   0.00001   3.12092
   D38        1.02918   0.00000   0.00000   0.00001   0.00001   1.02919
   D39       -1.06318   0.00000   0.00000   0.00001   0.00001  -1.06316
   D40       -0.00582  -0.00000   0.00000  -0.00001  -0.00001  -0.00582
   D41       -3.11670  -0.00000   0.00000  -0.00004  -0.00004  -3.11674
   D42       -3.13659  -0.00000   0.00000  -0.00002  -0.00002  -3.13661
   D43        0.03570  -0.00000   0.00000  -0.00005  -0.00005   0.03566
   D44        0.01387   0.00000   0.00000  -0.00000  -0.00000   0.01387
   D45        3.12431  -0.00000   0.00000  -0.00001  -0.00001   3.12429
   D46        3.12287   0.00000   0.00000   0.00003   0.00003   3.12290
   D47       -0.04988   0.00000   0.00000   0.00002   0.00002  -0.04986
   D48       -0.32294  -0.00000   0.00000  -0.00001  -0.00001  -0.32295
   D49       -2.41303   0.00000   0.00000  -0.00001  -0.00001  -2.41304
   D50        1.75505   0.00000   0.00000  -0.00001  -0.00001   1.75504
   D51        2.85039  -0.00000   0.00000  -0.00004  -0.00004   2.85035
   D52        0.76030  -0.00000   0.00000  -0.00004  -0.00004   0.76026
   D53       -1.35481  -0.00000   0.00000  -0.00004  -0.00004  -1.35485
   D54       -0.01315  -0.00000   0.00000  -0.00000  -0.00000  -0.01316
   D55        3.13780  -0.00000   0.00000  -0.00000  -0.00000   3.13780
   D56       -3.12528   0.00000   0.00000   0.00001   0.00001  -3.12527
   D57        0.02568   0.00000   0.00000   0.00001   0.00001   0.02569
[...]
 00007133,-0.00000199,-0.00268850,-0.00004390,-0.00081155,0.00229859,-0
 .00315476,-0.00077469,-0.03407105,-0.02038521,0.03145639,-0.00212263,0
 .00677065,0.00229782,-0.00199008,-0.00013059,-0.00183771,-0.00009341,-
 0.00027013,0.00002735,-0.00007519,-0.00002299,0.00001445,-0.00006598,-
 0.00002514,0.00000314,0.00000768,0.00000582,0.00000079,0.00000647,0.00
 001044,-0.00000648,0.00000443,-0.00001217,0.00000170,-0.00004362,0.000
 01170,0.00000356,0.00000224,-0.00001412,-0.00000308,-0.00023347,0.0001
 1913,-0.00001704,-0.00043724,0.00040636,-0.00021730,-0.18147991,-0.045
 65669,0.08900678,-0.00742413,0.00056048,0.00251384,0.00064859,-0.00013
 520,0.00069382,0.20643869,0.00033925,0.00055141,-0.00008974,-0.0000633
 2,0.00013112,-0.00000358,-0.00003805,-0.00011247,0.00005625,0.00002876
 ,0.00007323,-0.00002438,0.00002121,0.00003414,-0.00000856,-0.00001897,
 -0.00001603,0.00000527,0.00000311,-0.00000205,0.00000157,-0.00000233,0
 .00000051,0.00000018,-0.00094282,0.00069213,-0.00035325,-0.00062638,-0
 .00041421,0.00031780,0.00435279,0.01122208,-0.00144453,0.00045007,-0.0
 0131537,-0.00048179,0.00072597,0.00049664,0.00011401,-0.00002851,-0.00
 002077,0.00000759,0.00000105,-0.00000020,0.00000314,0.00000190,0.00000
 108,-0.00000489,-0.00000080,0.00000048,0.00000347,-0.00000178,0.000001
 65,-0.00000464,0.00000164,0.00000038,-0.00000348,-0.00000078,0.0000010
 4,0.00000036,0.00000129,-0.00000029,0.00000235,-0.00013430,0.00001718,
 0.00002944,0.00008583,-0.00009170,0.00006821,-0.04885457,-0.09818354,0
 .04538507,-0.00552247,0.00260511,0.00262819,0.00059903,0.00027111,0.00
 000291,0.09506923,0.15569703,-0.00109852,-0.00001475,-0.00008035,0.001
 14101,-0.00026378,0.00000779,-0.00095509,-0.00010421,-0.00000244,0.000
 31059,0.00010241,0.00001547,0.00050976,-0.00023846,0.00000852,-0.00020
 137,-0.00003761,-0.00000086,0.00001307,0.00002796,-0.00001029,0.000001
 85,-0.00002308,-0.00000056,0.00106173,-0.00031781,0.00010854,-0.001234
 67,0.00148447,0.00085768,0.01320744,0.00960573,-0.00191187,0.00230115,
 -0.00307928,-0.00049311,0.00049579,0.00094960,0.00016319,0.00002839,0.
 00007666,-0.00006041,0.00002353,0.00001109,-0.00000270,0.00001750,0.00
 000539,0.00000463,-0.00000231,0.00000190,0.00000061,-0.00000050,-0.000
 00762,0.00000632,-0.00000368,0.00000199,0.00000279,0.00001415,-0.00000
 443,-0.00000244,0.00000060,0.00000702,0.00000148,0.00011827,-0.0000492
 6,-0.00007950,0.00020186,-0.00021201,0.00001268,0.09152112,0.04080106,
 -0.14484582,0.00202699,-0.00013768,-0.00583798,-0.00028192,-0.00005517
 ,-0.00013643,-0.13346618,-0.09266535,0.21755698,0.00395262,-0.00042913
 ,-0.00023902,-0.00503607,0.00079961,0.00003536,0.00374146,0.00132282,-
 0.00039946,-0.00088412,-0.00099209,0.00014423,-0.00173304,0.00065334,0
 .00012646,0.00067677,0.00014141,-0.00006747,-0.00005216,-0.00009211,0.
 00001007,-0.00000193,0.00007258,-0.00000551,-0.00385269,-0.00008150,0.
 00176333,0.00081229,-0.00368526,-0.00092588,-0.02212595,0.00659735,-0.
 03730599,0.00103664,0.00327040,-0.00105108,-0.00088812,0.00111283,0.00
 198768,-0.00007213,-0.00029289,-0.00003101,-0.00007597,-0.00002284,0.0
 0001258,-0.00007943,-0.00002491,0.00000765,0.00000830,0.00000968,0.000
 00054,0.00000883,0.00000592,-0.00000126,0.00000204,-0.00001464,0.00000
 598,-0.00004442,0.00001066,0.00000207,0.00000321,-0.00001187,-0.000003
 10,-0.00031691,0.00012460,0.00018738,-0.00019318,0.00014390,0.00006228
 ,-0.12816256,0.00846845,-0.08755640,-0.00581347,-0.00093693,-0.0025618
 4,0.00015244,-0.00019854,-0.00101804,0.01914118,-0.00356878,0.02151996
 ,0.13124846,-0.00093916,0.00097982,0.00008127,0.00167401,-0.00024705,-
 0.00000872,-0.00128745,-0.00053092,0.00010734,0.00031610,0.00038934,-0
 .00003900,0.00058870,-0.00019654,-0.00005137,-0.00023522,-0.00005800,0
 .00002524,0.00001892,0.00002894,-0.00000494,-0.00000083,-0.00002400,0.
 00000165,0.00045308,0.00067949,-0.00040650,-0.00134273,0.00031523,-0.0
 0084593,0.01190927,0.00990133,0.01382333,-0.00009155,-0.00253897,0.001
 17240,0.00123260,-0.00030951,-0.00077192,0.00001865,0.00008569,0.00000
 924,0.00002670,0.00000896,-0.00000083,0.00002762,0.00000714,-0.0000047
 5,-0.00000308,-0.00000154,0.00000291,-0.00000404,-0.00000198,-0.000001
 64,-0.00000005,0.00000409,-0.00000366,0.00001391,-0.00000258,-0.000001
 01,0.00000059,0.00000441,0.00000314,-0.00003892,-0.00003010,0.00004446
 ,0.00015022,-0.00014812,-0.00012808,0.00899662,-0.07252404,0.00765050,
 -0.00170527,0.00155197,-0.00135373,0.00039720,0.00014965,0.00032247,0.
 00049924,0.00476353,0.02885255,0.00567596,0.08501803,0.00206513,-0.000
 50330,-0.00022692,-0.00266190,0.00047253,0.00013817,0.00202157,0.00066
 859,-0.00025585,-0.00051327,-0.00049908,0.00015982,-0.00095285,0.00036
 455,0.00009736,0.00036513,0.00007947,-0.00008033,-0.00003041,-0.000051
 32,-0.00000315,-0.00000132,0.00004060,-0.00000401,-0.00192328,0.000295
 91,0.00077975,0.00011628,-0.00186205,0.00022405,-0.01616627,0.00157950
 ,-0.01213451,-0.00035829,0.00253903,-0.00041233,-0.00106646,0.00047146
 ,0.00089275,-0.00004491,-0.00015483,-0.00008632,-0.00003813,-0.0000089
 0,0.00001223,-0.00004686,-0.00001906,0.00000951,0.00000421,0.00001229,
 0.00000293,0.00000563,-0.00000211,0.00000428,-0.00000193,-0.00001118,0
 .00000683,-0.00002403,0.00000507,-0.00000057,0.00000429,-0.00000275,0.
 00000067,-0.00023636,0.00010455,-0.00001682,-0.00018266,0.00015919,0.0
 0001043,-0.08681139,0.00965507,-0.21156904,-0.00274991,-0.00091417,-0.
 00486915,0.00030397,0.00000783,-0.00081303,0.00522985,0.02328618,-0.07
 922075,0.12528334,0.00451852,0.34503506,0.00122809,0.00021920,0.000087
 71,-0.00173540,0.00033113,0.00007055,0.00156843,0.00036890,-0.00012123
 ,-0.00044262,-0.00031600,0.00006959,-0.00080794,0.00030995,0.00004173,
 0.00032519,0.00007226,-0.00003426,-0.00002420,-0.00004241,0.00000618,-
 0.00000066,0.00003443,-0.00000153,-0.00101133,0.00174797,-0.00038435,-
 0.00405699,-0.00094351,0.00110794,0.00286231,0.03301852,0.00723296,-0.
 00470802,0.00059668,0.00149406,0.00088016,0.00135039,-0.00018016,-0.00
 002509,-0.00011757,0.00000137,-0.00003452,-0.00001215,0.00000638,-0.00
 003279,-0.00001343,0.00000320,0.00000397,0.00000364,-0.00000033,0.0000
 0433,0.00000376,-0.00000107,0.00000148,-0.00000698,0.00000235,-0.00002
 165,0.00000592,0.00000134,0.00000130,-0.00000673,-0.00000190,-0.000490
 62,0.00013531,-0.00014954,0.00006837,-0.00003240,0.00003130,-0.0796068
 2,0.00531517,0.00168346,-0.00357633,-0.00052489,0.00044321,-0.00371637
 ,0.00380747,0.00060869,-0.00498978,-0.04836116,0.00450048,0.00314521,-
 0.02760748,-0.02407501,0.09219654,-0.00275709,0.00046974,-0.00016568,0
 .00345955,-0.00011976,-0.00019613,-0.00264895,-0.00132397,0.00017314,0
 .00061861,0.00095900,-0.00006977,0.00118924,-0.00031657,-0.00005338,-0
 .00047465,-0.00012731,0.00004603,0.00004149,0.00005591,-0.00001161,-0.
 00000345,-0.00004700,0.00000110,0.00118077,-0.00160368,0.00053226,0.00
 622234,0.00256868,-0.00180005,0.00269702,-0.04126184,-0.01178015,-0.00
 414082,-0.00324900,0.00058808,0.00092633,0.00037314,0.00055405,-0.0000
 7594,0.00017605,-0.00000451,0.00005917,0.00001700,0.00000241,0.0000527
 4,0.00001416,-0.00001190,-0.00000751,0.00000136,0.00000978,-0.00000856
 ,-0.00000525,-0.00000462,-0.00000004,0.00000650,-0.00000812,0.00002679
 ,-0.00000392,-0.00000266,0.00000387,0.00001004,0.00000937,0.00074084,-
 0.00021138,0.00025256,0.00017256,-0.00013907,-0.00007705,0.01406834,-0
 .25669739,-0.05050938,-0.00084577,0.00415932,-0.00023731,0.00200569,0.
 00105796,-0.00055046,-0.03584878,-0.06186204,0.01810772,-0.01823196,-0
 .01842124,-0.04166658,0.03091638,0.37906621,-0.00004691,0.00043121,-0.
 00004608,0.00033504,-0.00000752,0.00001002,-0.00031043,-0.00012719,0.0
 0001710,0.00009106,0.00009157,0.00001981,0.00015872,-0.00004502,0.0000
 0788,-0.00006605,-0.00001903,-0.00001589,0.00000582,0.00000667,-0.0000
 0609,-0.00000039,-0.00000655,-0.00000054,-0.00055715,-0.00052602,-0.00
 032560,0.00187786,-0.00006407,0.00146498,-0.00053657,-0.00793746,0.006
 21833,-0.00059005,-0.00061230,0.00044979,0.00032857,-0.00026600,0.0002
 4309,-0.00001138,0.00001061,-0.00005454,0.00000940,0.00000519,0.000003
 46,0.00000546,-0.00000048,0.00000112,-0.00000101,0.00000376,0.00000294
 ,-0.00000022,-0.00000365,0.00000165,-0.00000140,-0.00000064,0.00000074
 ,0.00000353,-0.00000077,-0.00000124,0.00000215,0.00000329,0.00000250,0
 .00015204,-0.00004061,-0.00022552,0.00003221,-0.00003764,-0.00000962,0
 .00444294,-0.05010249,-0.08465418,-0.00015979,0.00063977,-0.00141536,0
 .00062381,-0.00030311,-0.00038596,0.00755107,0.02889439,0.01181585,-0.
 02146060,-0.05607085,-0.04188229,0.00789206,0.08677746,0.10727942,0.00
 222418,-0.00122519,-0.00009471,-0.00096164,-0.00004196,0.00003053,0.00
 119494,0.00037235,-0.00009656,-0.00034765,-0.00032384,0.00004830,-0.00
 061716,0.00017735,0.00002775,0.00026820,0.00006280,-0.00002777,-0.0000
 2014,-0.00002820,0.00000686,0.00000157,0.00002515,-0.00000110,-0.00600
 028,-0.00161002,-0.00125830,0.00798552,-0.02133876,-0.00428721,-0.0029
 1032,-0.00056811,-0.00033661,0.00006016,-0.00144336,0.00025290,-0.0002
 8693,-0.00058092,-0.00003570,0.00020500,-0.00002684,0.00004828,-0.0000
 2848,-0.00001186,0.00000173,-0.00002634,-0.00001039,0.00000402,0.00000
 568,0.00000041,-0.00000539,0.00000546,0.00000337,0.00000205,0.00000063
 ,-0.00000576,0.00000320,-0.00001689,0.00000540,0.00000133,-0.00000108,
 -0.00000685,-0.00000326,-0.00300720,-0.00475595,-0.00058329,0.00008623
 ,-0.00015632,0.00000073,-0.00359084,-0.00122348,-0.00025513,-0.0830961
 2,0.03052115,0.00911401,-0.00027202,-0.00014700,0.00006418,0.00119651,
 0.00103278,-0.00032580,0.00098376,0.00047019,0.00050194,0.00062206,0.0
 0017453,0.00005273,0.11750277,0.00192142,-0.00013484,0.00050609,-0.002
 28383,0.00032808,0.00015427,0.00177626,-0.00009998,-0.00019401,-0.0005
 5326,0.00002412,0.00006639,-0.00104475,0.00059149,0.00007074,0.0003449
 8,0.00005688,-0.00004474,-0.00002802,-0.00007512,-0.00000288,-0.000011
 50,0.00005104,-0.00000051,0.00152212,-0.00305413,0.00003837,0.00972328
 ,-0.04619546,-0.01357566,-0.00842899,0.00083854,-0.00108201,0.00063948
 ,-0.00247360,0.00063970,-0.00018693,-0.00021847,-0.00021339,-0.0001620
 1,-0.00034206,-0.00005211,-0.00003347,-0.00000722,0.00002028,-0.000038
 17,-0.00001710,-0.00000663,-0.00000212,0.00001291,0.00002448,-0.000004
 17,0.00000338,-0.00001846,0.00000585,-0.00000779,-0.00000634,-0.000030
 83,0.00000545,0.00000060,0.00001102,-0.00000147,0.00000819,-0.00270898
 ,-0.00031227,-0.00054496,0.00005173,0.00014342,-0.00007765,-0.00084375
 ,0.00406202,-0.00030261,0.02119275,-0.25179865,-0.04967120,-0.00073297
 ,-0.00038524,0.00025261,0.00010786,-0.00096503,-0.00008591,0.00034241,
 -0.00087777,0.00051139,0.00029033,-0.00151090,-0.00029194,-0.08472632,
 0.35098389,-0.00001463,-0.00034882,0.00004172,-0.00024842,0.00006810,0
 .00015593,0.00017076,-0.00003002,-0.00005238,-0.00004786,0.00001712,0.
 00003509,-0.00010434,0.00007506,0.00004086,0.00002323,0.00000202,-0.00
 002628,-0.00000373,-0.00000970,-0.00001288,-0.00000167,0.00000549,0.00
 000135,0.00106349,-0.00026572,0.00074430,0.00219553,-0.00617706,0.0061
 1200,-0.00154627,-0.00027801,0.00143978,0.00073972,-0.00033368,-0.0003
 8324,-0.00030326,0.00033438,0.00007945,-0.00002875,-0.00005326,-0.0001
 4282,-0.00000060,0.00000430,0.00000596,-0.00000551,-0.00000638,0.00000
 241,-0.00000177,0.00000698,0.00000731,0.00000069,-0.00000373,0.0000015
 2,-0.00000151,-0.00000328,0.00000106,-0.00000301,-0.00000012,-0.000001
 99,0.00000408,0.00000355,0.00000307,-0.00075724,-0.00018370,-0.0005473
 5,-0.00000917,0.00002600,-0.00003349,0.00014865,0.00068742,-0.00141849
 ,0.00679754,-0.05066945,-0.08523095,-0.00012459,-0.00005959,-0.0001938
 9,-0.00035880,-0.00053277,0.00073590,0.00024941,0.00001106,0.00062569,
 -0.00001797,-0.00028432,0.00011806,-0.02634764,0.08699958,0.11040884,0
 .00012205,0.00024358,0.00173481,-0.00217008,-0.00070354,0.00036539,0.0
 0210912,0.00055293,-0.00023184,-0.00069337,-0.00041523,0.00012194,-0.0
 0130147,0.00039537,0.00008456,0.00052292,0.00014066,-0.00008076,-0.000
 04640,-0.00006527,0.00000583,0.00000013,0.00005616,-0.00000202,-0.0017
 9912,-0.00714218,-0.00134780,-0.03711421,0.01166310,-0.02858988,0.0007
 0165,0.00176767,0.00098504,-0.00082645,-0.00049210,0.00096332,-0.00045
 630,-0.00052685,-0.00015947,0.00018172,-0.00012146,-0.00002179,-0.0000
 5111,-0.00001990,0.00000898,-0.00005110,-0.00002568,0.00000926,0.00000
 815,0.00000739,-0.00000324,0.00000978,0.00000339,0.00000402,0.00000025
 ,-0.00001352,0.00000700,-0.00003516,0.00000989,0.00000103,0.00000160,-
 0.00000990,-0.00000356,0.00063098,0.00028322,-0.00087324,0.00018753,-0
 .00006089,-0.00017472,-0.00845139,-0.00297980,-0.00303477,-0.21540687,
 0.02391030,-0.09556888,-0.00020417,-0.00017521,-0.00004061,0.00333286,
 0.00221299,0.00063729,0.00293669,0.00091929,0.00190152,0.00137828,0.00
 038553,0.00044795,-0.02776878,0.04528350,-0.01181298,0.26892362,-0.000
 26698,-0.00000393,0.00049437,-0.00099007,-0.00003002,0.00012281,0.0006
 4096,0.00006959,0.00000104,-0.00017882,-0.00002835,0.00000608,-0.00040
 374,0.00019765,0.00001294,0.00012576,0.00002439,-0.00002004,-0.0000119
 5,-0.00002847,0.00000215,-0.00000433,0.00001958,0.00000022,-0.00092857
 ,-0.00288303,-0.00071301,-0.01530136,0.01188677,-0.00742607,0.00082367
 ,0.00051519,0.00031079,0.00056831,0.00078418,-0.00026011,-0.00054582,0
 .00048285,-0.00007225,-0.00005096,-0.00012339,-0.00000133,-0.00001424,
 -0.00000448,0.00000609,-0.00001331,-0.00000538,-0.00000317,-0.00000038
 ,0.00000311,0.00000751,-0.00000161,0.00000258,-0.00000763,0.00000270,-
 0.00000207,-0.00000297,-0.00001133,0.00000203,0.00000088,0.00000305,-0
 .00000158,0.00000246,-0.00051229,0.00019749,-0.00016406,0.00000616,0.0
 0005036,0.00002656,0.00295887,0.00278125,0.00156749,0.02845884,-0.0820
 3376,0.02308995,0.00008837,0.00001717,0.00002575,-0.00018665,-0.006246
 06,-0.00462653,-0.00079083,-0.00761953,0.00015877,-0.00050406,-0.00105
 316,-0.00036880,0.05851957,-0.04075747,0.02327828,-0.07908330,0.117266
 94,0.00003401,0.00088895,-0.00003435,-0.00086027,-0.00035985,0.0001838
 7,0.00072372,0.00032586,-0.00016619,-0.00022125,-0.00021640,0.00008267
 ,-0.00043190,0.00009755,0.00005913,0.00017236,0.00005177,-0.00003955,-
 0.00001761,-0.00002178,-0.00000653,0.00000071,0.00001812,-0.00000103,-
 0.00168960,-0.00313412,-0.00011924,-0.01268740,0.00611695,0.00055380,0
 .00068135,0.00106879,0.00082447,-0.00041959,-0.00042844,0.00006783,0.0
 0013940,-0.00035747,0.00000362,0.00008336,-0.00003567,-0.00007949,-0.0
 0001538,-0.00000340,0.00000478,-0.00001975,-0.00001256,0.00000797,0.00
 000263,0.00000681,-0.00000028,0.00000534,-0.00000286,0.00000689,-0.000
 00253,-0.00000716,0.00000561,-0.00001114,0.00000286,-0.00000150,0.0000
 0200,-0.00000075,-0.00000054,0.00022524,-0.00000895,-0.00013087,0.0000
 4717,-0.00004363,-0.00003466,-0.00183439,-0.00050859,-0.00559715,-0.09
 717372,0.01843990,-0.13491526,-0.00008020,-0.00006191,-0.00007566,0.00
 023503,-0.00469240,-0.00123085,0.00150199,0.00233707,0.00236618,0.0002
 9609,-0.00003511,0.00068914,-0.00640144,0.01410166,0.01281996,0.151530
 23,-0.05562842,0.20112688,0.00114754,-0.00025346,-0.00206537,-0.001466
 59,-0.00021834,0.00006292,0.00165297,0.00017038,-0.00002354,-0.0005760
 6,-0.00019884,0.00002493,-0.00098994,0.00037083,0.00003899,0.00040830,
 0.00009332,-0.00004693,-0.00003106,-0.00005268,0.00001276,0.00000003,0
 .00004312,-0.00000083,0.00047299,-0.00252183,0.00041594,-0.01232713,-0
 .01019504,0.03399746,-0.00104496,0.00174153,0.00062442,-0.00171442,-0.
 00069810,-0.00147877,-0.00004531,-0.00110953,0.00033762,0.00009860,-0.
 00010939,0.00005463,-0.00004082,-0.00001816,0.00000686,-0.00003681,-0.
 00001605,0.00000071,0.00000592,0.00000193,-0.00000215,0.00000445,0.000
 00704,-0.00000363,0.00000349,-0.00000783,0.00000136,-0.00002813,0.0000
 0818,0.00000268,0.00000063,-0.00001034,-0.00000291,0.00017161,0.000225
 43,0.00095717,0.00017724,0.00000421,0.00020610,-0.00571082,-0.00078831
 ,0.00284893,-0.11279199,-0.01808480,0.07900770,-0.00024975,-0.00018030
 ,-0.00011908,0.00225534,0.00323813,-0.00208247,0.00148224,-0.00013310,
 0.00008238,0.00099542,0.00010172,-0.00027049,-0.00339079,0.01860706,0.
 03034662,0.01532867,0.00760434,-0.03381446,0.11623916,-0.00005758,-0.0
 0064245,-0.00120724,-0.00121442,-0.00007609,-0.00003940,0.00109197,0.0
 0002876,-0.00006865,-0.00035857,-0.00004549,0.00001401,-0.00068969,0.0
 0031522,0.00003664,0.00025212,0.00005626,-0.00002337,-0.00002133,-0.00
 004281,0.00000801,-0.00000411,0.00003151,-0.00000106,0.00009807,-0.003
 13669,0.00083117,-0.01552685,0.00492855,0.02329476,0.00057375,0.000578
 05,-0.00070699,-0.00022153,0.00049733,-0.00074124,-0.00065670,0.000113
 41,0.00014532,-0.00000707,-0.00013846,0.00005060,-0.00002472,-0.000010
 25,0.00000802,-0.00002535,-0.00000982,-0.00000276,0.00000156,0.0000039
 1,0.00000632,-0.00000008,0.00000427,-0.00000860,0.00000356,-0.00000438
 ,-0.00000240,-0.00001973,0.00000454,0.00000161,0.00000331,-0.00000480,
 0.00000152,-0.00041556,0.00011731,0.00065936,0.00009451,0.00004656,0.0
 0011195,-0.00006743,0.00179823,-0.00084374,-0.01824557,-0.07936903,0.0
 2804355,0.00000198,-0.00005750,0.00002253,0.00160693,-0.00733008,0.001
 88739,0.00062235,-0.00035573,0.00076484,-0.00003863,-0.00098159,-0.000
 03180,0.02686606,-0.00786665,-0.05227971,0.00399986,0.00651957,0.02210
 316,0.00237889,0.08502835,-0.00025556,0.00034106,0.00094593,0.00136460
 ,0.00027051,0.00017202,-0.00129582,-0.00025168,0.00001702,0.00043341,0
 .00020121,0.00003515,0.00079424,-0.00028043,0.00000932,-0.00030841,-0.
 00007935,-0.00001644,0.00002418,0.00004136,-0.00002772,0.00000166,-0.0
 0003501,0.00000321,0.00048633,0.00298122,-0.00002961,0.01474424,0.0045
 1638,-0.01683549,0.00088864,-0.00095706,0.00053686,0.00081271,0.000702
 86,0.00080569,0.00018790,0.00040550,-0.00013994,-0.00009947,0.00007178
 ,-0.00022260,0.00003543,0.00002258,-0.00000039,0.00002579,0.00000628,0
 .00000588,-0.00000522,0.00000594,0.00000685,-0.00000046,-0.00001311,0.
 00000976,-0.00000572,0.00000092,0.00000360,0.00002093,-0.00000580,-0.0
 0000529,0.00000372,0.00001270,0.00000411,-0.00032512,-0.00009573,-0.00
 095815,-0.00010678,0.00001750,-0.00016992,0.00297231,-0.00028001,-0.00
 525457,0.07824981,0.03066113,-0.22763221,0.00020365,0.00016859,-0.0000
 4130,-0.00187726,-0.00049704,0.00261793,-0.00027365,0.00072980,0.00120
 938,-0.00061331,0.00041481,0.00067704,0.02989938,-0.03722335,-0.045336
 54,-0.01686263,0.02018026,-0.07636962,-0.10911953,-0.02203381,0.365980
 04\\0.00000318,0.00000068,0.00000372,0.00000295,0.00000819,-0.00000050
 ,-0.00000272,0.00000075,-0.00000169,-0.00000276,-0.00000445,-0.0000043
 6,-0.00000104,-0.00000169,-0.00000505,-0.00000001,0.00000048,-0.000004
 80,-0.00000099,-0.00000009,-0.00000760,-0.00000093,-0.00000102,-0.0000
 1005,-0.00000197,0.,0.00000489,0.00000046,-0.00000257,0.00000450,-0.00
 000104,0.00000493,0.00000568,0.00000147,-0.00000011,0.00000400,0.00000
 082,-0.00000224,-0.00000225,0.00000087,-0.00000249,-0.00000006,0.00000
 252,0.00000025,-0.00000731,-0.00000186,-0.00000042,-0.00000757,-0.0000
 0198,-0.00000148,-0.00000687,0.00000071,-0.00000041,-0.00000642,-0.000
 00262,-0.00000127,-0.00001123,-0.00000055,-0.00000128,-0.00001074,0.00
 000097,-0.00000014,-0.00001106,-0.00000067,0.00000050,0.00000313,0.000
 00148,0.00000082,0.00000033,-0.00000025,0.,0.00000656,-0.00000035,-0.0
 0000002,0.00001015,0.00000097,-0.00000033,0.00000235,0.00000316,0.0000
 0023,0.00001119,0.00000003,0.00000221,0.00000848,0.00000029,0.00000012
 ,0.00000496,-0.00000103,0.00000044,0.00000948,-0.00000159,-0.00000052,
 0.00001083,0.00000252,0.00000092,0.00000731\\\@


 HEAVEN'S NET CASTS WIDE.
 THOUGH ITS MESHES ARE COARSE, NOTHING SLIPS THROUGH.

                                          -- LAO-TSU
 Job cpu time:       0 days  6 hours 24 minutes  6.5 seconds.
 File lengths (MBytes):  RWF=    911 Int=      0 D2E=      0 Chk=     26 Scr=      1
 Normal termination of Gaussian 09 at Thu Nov 14 16:46:42 2019.
pbs_rusage has been removed.
Please contact help@nci.org.au if you require this functionality.
