 Entering Gaussian System, Link 0=/apps/gaussian/g09e01/g09/g09
 Initial command:
 /apps/gaussian/g09e01/g09/l1.exe "/jobfs/local/3588773.r-man2/Gau-20579.inp" -scrdir="/jobfs/local/3588773.r-man2/"
 Entering Link 1 = /apps/gaussian/g09e01/g09/l1.exe PID=     20580.
  
 Copyright (c) 1988,1990,1992,1993,1995,1998,2003,2009,2015,
            Gaussian, Inc.  All Rights Reserved.
  
 This is part of the Gaussian(R) 09 program.  It is based on
 the Gaussian(R) 03 system (copyright 2003, Gaussian, Inc.),
 the Gaussian(R) 98 system (copyright 1998, Gaussian, Inc.),
 the Gaussian(R) 94 system (copyright 1995, Gaussian, Inc.),
 the Gaussian 92(TM) system (copyright 1992, Gaussian, Inc.),
 the Gaussian 90(TM) system (copyright 1990, Gaussian, Inc.),
 the Gaussian 88(TM) system (copyright 1988, Gaussian, Inc.),
 the Gaussian 86(TM) system (copyright 1986, Carnegie Mellon
 University), and the Gaussian 82(TM) system (copyright 1983,
 Carnegie Mellon University). Gaussian is a federally registered
 trademark of Gaussian, Inc.
  
 This software contains proprietary and confidential information,
 including trade secrets, belonging to Gaussian, Inc.
  
 This software is provided under written license and may be
 used, copied, transmitted, or stored only in accord with that
 written license.
  
 The following legend is applicable only to US Government
 contracts under FAR:
  
                    RESTRICTED RIGHTS LEGEND
  
 Use, reproduction and disclosure by the US Government is
 subject to restrictions as set forth in subparagraphs (a)
 and (c) of the Commercial Computer Software - Restricted
 Rights clause in FAR 52.227-19.
  
 Gaussian, Inc.
 340 Quinnipiac St., Bldg. 40, Wallingford CT 06492
  
  
 ---------------------------------------------------------------
 Warning -- This program may not be used in any manner that
 competes with the business of Gaussian, Inc. or will provide
 assistance to any competitor of Gaussian, Inc.  The licensee
 of this program is prohibited from giving any competitor of
 Gaussian, Inc. access to this program.  By using this program,
 the user acknowledges that Gaussian, Inc. is engaged in the
 business of creating and licensing software in the field of
 computational chemistry and represents and warrants to the
 licensee that it is not a competitor of Gaussian, Inc. and that
 it will not use this program in any manner prohibited above.
 ---------------------------------------------------------------
  

 Cite this work as:
 Gaussian 09, Revision E.01,
 M. J. Frisch, G. W. Trucks, H. B. Schlegel, G. E. Scuseria, 
 M. A. Robb, J. R. Cheeseman, G. Scalmani, V. Barone, B. Mennucci, 
 G. A. Petersson, H. Nakatsuji, M. Caricato, X. Li, H. P. Hratchian, 
 A. F. Izmaylov, J. Bloino, G. Zheng, J. L. Sonnenberg, M. Hada, 
 M. Ehara, K. Toyota, R. Fukuda, J. Hasegawa, M. Ishida, T. Nakajima, 
 Y. Honda, O. Kitao, H. Nakai, T. Vreven, J. A. Montgomery, Jr., 
 J. E. Peralta, F. Ogliaro, M. Bearpark, J. J. Heyd, E. Brothers, 
 K. N. Kudin, V. N. Staroverov, T. Keith, R. Kobayashi, J. Normand, 
 K. Raghavachari, A. Rendell, J. C. Burant, S. S. Iyengar, J. Tomasi, 
 M. Cossi, N. Rega, J. M. Millam, M. Klene, J. E. Knox, J. B. Cross, 
 V. Bakken, C. Adamo, J. Jaramillo, R. Gomperts, R. E. Stratmann, 
 O. Yazyev, A. J. Austin, R. Cammi, C. Pomelli, J. W. Ochterski, 
 R. L. Martin, K. Morokuma, V. G. Zakrzewski, G. A. Voth, 
 P. Salvador, J. J. Dannenberg, S. Dapprich, A. D. Daniels, 
 O. Farkas, J. B. Foresman, J. V. Ortiz, J. Cioslowski, 
 and D. J. Fox, Gaussian, Inc., Wallingford CT, 2013.
 
 ******************************************
 Gaussian 09:  ES64L-G09RevE.01 30-Nov-2015
                14-Nov-2019 
 ******************************************
 %chk=NM2CA_c2.M062X_6-311pGd_opt_water_GD3.chk
 %mem=196608000
 %nproc=8
 Will use up to    8 processors via shared memory.
 ----------------------------------------------------------------------
 # M062X/6-311+G* SCF=Tight INT(grid=ultrafine) OPT IOP(2/17=4) Empiric
 alDispersion=GD3 SCRF=(SMD,Solvent=h2o) maxdisk=2684354560
 ----------------------------------------------------------------------
 1/14=-1,18=20,19=15,26=4,38=1/1,3;
 2/9=110,12=2,17=4,18=5,40=1/2;
 3/5=4,6=6,7=11,11=2,16=1,25=1,30=1,70=32201,71=1,72=1,74=-55,75=-5,124=31/1,2,3;
 4//1;
 5/5=2,32=2,38=5,53=1/2;
 6/7=2,8=2,9=2,10=2,28=1/1;
 7//1,2,3,16;
 1/14=-1,18=20,19=15,26=4/3(2);
 2/9=110,17=4/2;
 99//99;
 2/9=110,17=4/2;
 3/5=4,6=6,7=11,11=2,16=1,25=1,30=1,70=32205,71=1,72=1,74=-55,75=-5,124=31/1,2,3;
 4/5=5,16=3,69=1/1;
 5/5=2,32=2,38=5,53=1/2;
 7//1,2,3,16;
 1/14=-1,18=20,19=15,26=4/3(-5);
 2/9=110,17=4/2;
 6/7=2,8=2,9=2,10=2,19=2,28=1/1;
 99/9=1/99;
 -------------------------------------
 NM2CA_c2.M062X_6-311pGd_opt_water_GD3
 -------------------------------------
 Symbolic Z-matrix:
 Charge =  0 Multiplicity = 1
 C                    -5.82208   1.50496   0.10042 
 N                    -4.5909    0.85643   0.00094 
 C                    -3.3514    1.43008  -0.00559 
 O                    -3.11637   2.62032   0.03719 
 O                    -2.41411   0.47881  -0.06399 
 C                    -1.04422   0.9362   -0.06505 
 C                    -0.15492  -0.2847   -0.12448 
 C                     1.31349   0.12627  -0.13326 
 C                    -6.93964   0.69406   0.33924 
 C                    -8.20506   1.23985   0.44787 
 C                    -8.38674   2.62558   0.30858 
 C                    -7.27302   3.41988   0.07166 
 C                    -5.9979    2.88003  -0.03757 
 H                    -4.60582  -0.15646   0.02153 
 H                    -0.87054   1.51516   0.84425 
 H                    -0.89517   1.58412  -0.93127 
 H                    -0.39374  -0.85864  -1.02395 
 H                    -0.36492  -0.92353   0.73768 
 H                     1.54157   0.75366  -0.99858 
 H                     1.96226  -0.75006  -0.1754 
 H                     1.57036   0.69001   0.76711 
 H                    -6.79761  -0.37498   0.44466 
 H                    -5.1614    3.53184  -0.23412 
 C                    -9.72293   3.30407   0.43786 
 C                    -9.3482    0.28164   0.67954 
 H                    -7.39131   4.49003  -0.03958 
 F                    -10.70479   2.644    -0.19813 
 F                    -9.7031    4.5421   -0.075 
 F                    -10.11344   3.43565   1.71916 
 F                    -8.92243  -0.90342   1.13504 
 F                    -10.03388   0.03042  -0.4483 
 F                    -10.22938   0.7421    1.57963 
 

 GradGradGradGradGradGradGradGradGradGradGradGradGradGradGradGradGradGrad
 Berny optimization.
 Initialization pass.
                           ----------------------------
                           !    Initial Parameters    !
                           ! (Angstroms and Degrees)  !
 --------------------------                            --------------------------
 ! Name  Definition              Value          Derivative Info.                !
 --------------------------------------------------------------------------------
 ! R1    R(1,2)                  1.3951         estimate D2E/DX2                !
 ! R2    R(1,9)                  1.4013         estimate D2E/DX2                !
 ! R3    R(1,13)                 1.3931         estimate D2E/DX2                !
 ! R4    R(2,3)                  1.3658         estimate D2E/DX2                !
 ! R5    R(2,14)                 1.0132         estimate D2E/DX2                !
 ! R6    R(3,4)                  1.214          estimate D2E/DX2                !
 ! R7    R(3,5)                  1.3367         estimate D2E/DX2                !
 ! R8    R(5,6)                  1.4442         estimate D2E/DX2                !
 ! R9    R(6,7)                  1.5116         estimate D2E/DX2                !
 ! R10   R(6,15)                 1.0919         estimate D2E/DX2                !
 ! R11   R(6,16)                 1.0919         estimate D2E/DX2                !
 ! R12   R(7,8)                  1.5249         estimate D2E/DX2                !
 ! R13   R(7,17)                 1.0934         estimate D2E/DX2                !
 ! R14   R(7,18)                 1.0934         estimate D2E/DX2                !
 ! R15   R(8,19)                 1.0929         estimate D2E/DX2                !
 ! R16   R(8,20)                 1.0912         estimate D2E/DX2                !
 ! R17   R(8,21)                 1.0929         estimate D2E/DX2                !
 ! R18   R(9,10)                 1.3824         estimate D2E/DX2                !
 ! R19   R(9,22)                 1.0836         estimate D2E/DX2                !
 ! R20   R(10,11)                1.4045         estimate D2E/DX2                !
 ! R21   R(10,25)                1.5095         estimate D2E/DX2                !
 ! R22   R(11,12)                1.3883         estimate D2E/DX2                !
 ! R23   R(11,24)                1.5041         estimate D2E/DX2                !
 ! R24   R(12,13)                1.389          estimate D2E/DX2                !
 ! R25   R(12,26)                1.0824         estimate D2E/DX2                !
 ! R26   R(13,23)                1.0785         estimate D2E/DX2                !
 ! R27   R(24,27)                1.3432         estimate D2E/DX2                !
 ! R28   R(24,28)                1.3402         estimate D2E/DX2                !
 ! R29   R(24,29)                1.3459         estimate D2E/DX2                !
 ! R30   R(25,30)                1.3391         estimate D2E/DX2                !
 ! R31   R(25,31)                1.3436         estimate D2E/DX2                !
 ! R32   R(25,32)                1.3411         estimate D2E/DX2                !
 ! A1    A(2,1,9)              116.549          estimate D2E/DX2                !
 ! A2    A(2,1,13)             124.2747         estimate D2E/DX2                !
 ! A3    A(9,1,13)             119.1717         estimate D2E/DX2                !
 ! A4    A(1,2,3)              127.2989         estimate D2E/DX2                !
 ! A5    A(1,2,14)             116.7616         estimate D2E/DX2                !
 ! A6    A(3,2,14)             115.6792         estimate D2E/DX2                !
 ! A7    A(2,3,4)              125.9674         estimate D2E/DX2                !
 ! A8    A(2,3,5)              109.7338         estimate D2E/DX2                !
 ! A9    A(4,3,5)              124.2987         estimate D2E/DX2                !
 ! A10   A(3,5,6)              116.0879         estimate D2E/DX2                !
 ! A11   A(5,6,7)              107.5937         estimate D2E/DX2                !
 ! A12   A(5,6,15)             108.5536         estimate D2E/DX2                !
 ! A13   A(5,6,16)             108.5403         estimate D2E/DX2                !
 ! A14   A(7,6,15)             111.5569         estimate D2E/DX2                !
 ! A15   A(7,6,16)             111.5771         estimate D2E/DX2                !
 ! A16   A(15,6,16)            108.9234         estimate D2E/DX2                !
 ! A17   A(6,7,8)              110.4307         estimate D2E/DX2                !
 ! A18   A(6,7,17)             109.1354         estimate D2E/DX2                !
 ! A19   A(6,7,18)             109.1415         estimate D2E/DX2                !
 ! A20   A(8,7,17)             110.3082         estimate D2E/DX2                !
 ! A21   A(8,7,18)             110.3018         estimate D2E/DX2                !
 ! A22   A(17,7,18)            107.4596         estimate D2E/DX2                !
 ! A23   A(7,8,19)             111.1156         estimate D2E/DX2                !
 ! A24   A(7,8,20)             110.8744         estimate D2E/DX2                !
 ! A25   A(7,8,21)             111.1368         estimate D2E/DX2                !
 ! A26   A(19,8,20)            107.8417         estimate D2E/DX2                !
 ! A27   A(19,8,21)            107.8862         estimate D2E/DX2                !
 ! A28   A(20,8,21)            107.8384         estimate D2E/DX2                !
 ! A29   A(1,9,10)             120.9953         estimate D2E/DX2                !
 ! A30   A(1,9,22)             118.88           estimate D2E/DX2                !
 ! A31   A(10,9,22)            120.1236         estimate D2E/DX2                !
 ! A32   A(9,10,11)            120.0109         estimate D2E/DX2                !
 ! A33   A(9,10,25)            117.0429         estimate D2E/DX2                !
 ! A34   A(11,10,25)           122.9254         estimate D2E/DX2                !
 ! A35   A(10,11,12)           118.5306         estimate D2E/DX2                !
 ! A36   A(10,11,24)           123.4658         estimate D2E/DX2                !
 ! A37   A(12,11,24)           117.984          estimate D2E/DX2                !
 ! A38   A(11,12,13)           121.837          estimate D2E/DX2                !
 ! A39   A(11,12,26)           119.7044         estimate D2E/DX2                !
 ! A40   A(13,12,26)           118.4571         estimate D2E/DX2                !
 ! A41   A(1,13,12)            119.4519         estimate D2E/DX2                !
 ! A42   A(1,13,23)            121.1105         estimate D2E/DX2                !
 ! A43   A(12,13,23)           119.4365         estimate D2E/DX2                !
 ! A44   A(11,24,27)           112.7673         estimate D2E/DX2                !
 ! A45   A(11,24,28)           111.7561         estimate D2E/DX2                !
 ! A46   A(11,24,29)           112.5609         estimate D2E/DX2                !
 ! A47   A(27,24,28)           106.4734         estimate D2E/DX2                !
 ! A48   A(27,24,29)           106.6606         estimate D2E/DX2                !
 ! A49   A(28,24,29)           106.1579         estimate D2E/DX2                !
 ! A50   A(10,25,30)           111.9124         estimate D2E/DX2                !
 ! A51   A(10,25,31)           112.1068         estimate D2E/DX2                !
 ! A52   A(10,25,32)           112.4969         estimate D2E/DX2                !
 ! A53   A(30,25,31)           106.3987         estimate D2E/DX2                !
 ! A54   A(30,25,32)           106.5262         estimate D2E/DX2                !
 ! A55   A(31,25,32)           106.9929         estimate D2E/DX2                !
 ! D1    D(9,1,2,3)           -168.29           estimate D2E/DX2                !
 ! D2    D(9,1,2,14)             5.5582         estimate D2E/DX2                !
 ! D3    D(13,1,2,3)            12.5003         estimate D2E/DX2                !
 ! D4    D(13,1,2,14)         -173.6515         estimate D2E/DX2                !
 ! D5    D(2,1,9,10)          -179.6936         estimate D2E/DX2                !
 ! D6    D(2,1,9,22)             0.6782         estimate D2E/DX2                !
 ! D7    D(13,1,9,10)           -0.4415         estimate D2E/DX2                !
 ! D8    D(13,1,9,22)          179.9303         estimate D2E/DX2                !
 ! D9    D(2,1,13,12)          179.5597         estimate D2E/DX2                !
 ! D10   D(2,1,13,23)           -0.0421         estimate D2E/DX2                !
 ! D11   D(9,1,13,12)            0.3694         estimate D2E/DX2                !
 ! D12   D(9,1,13,23)         -179.2324         estimate D2E/DX2                !
 ! D13   D(1,2,3,4)             -2.2402         estimate D2E/DX2                !
 ! D14   D(1,2,3,5)            177.6285         estimate D2E/DX2                !
 ! D15   D(14,2,3,4)          -176.1456         estimate D2E/DX2                !
 ! D16   D(14,2,3,5)             3.7231         estimate D2E/DX2                !
 ! D17   D(2,3,5,6)           -179.4277         estimate D2E/DX2                !
 ! D18   D(4,3,5,6)              0.4437         estimate D2E/DX2                !
 ! D19   D(3,5,6,7)            179.5823         estimate D2E/DX2                !
 ! D20   D(3,5,6,15)            58.7173         estimate D2E/DX2                !
 ! D21   D(3,5,6,16)           -59.5362         estimate D2E/DX2                !
 ! D22   D(5,6,7,8)            179.8162         estimate D2E/DX2                !
 ! D23   D(5,6,7,17)            58.3982         estimate D2E/DX2                !
 ! D24   D(5,6,7,18)           -58.7697         estimate D2E/DX2                !
 ! D25   D(15,6,7,8)           -61.2249         estimate D2E/DX2                !
 ! D26   D(15,6,7,17)          177.3571         estimate D2E/DX2                !
 ! D27   D(15,6,7,18)           60.1892         estimate D2E/DX2                !
 ! D28   D(16,6,7,8)            60.8618         estimate D2E/DX2                !
 ! D29   D(16,6,7,17)          -60.5563         estimate D2E/DX2                !
 ! D30   D(16,6,7,18)         -177.7241         estimate D2E/DX2                !
 ! D31   D(6,7,8,19)           -60.1192         estimate D2E/DX2                !
 ! D32   D(6,7,8,20)           179.9613         estimate D2E/DX2                !
 ! D33   D(6,7,8,21)            60.0319         estimate D2E/DX2                !
 ! D34   D(17,7,8,19)           60.601          estimate D2E/DX2                !
 ! D35   D(17,7,8,20)          -59.3185         estimate D2E/DX2                !
 ! D36   D(17,7,8,21)         -179.2479         estimate D2E/DX2                !
 ! D37   D(18,7,8,19)          179.1571         estimate D2E/DX2                !
 ! D38   D(18,7,8,20)           59.2376         estimate D2E/DX2                !
 ! D39   D(18,7,8,21)          -60.6918         estimate D2E/DX2                !
 ! D40   D(1,9,10,11)            0.4837         estimate D2E/DX2                !
 ! D41   D(1,9,10,25)          178.8726         estimate D2E/DX2                !
 ! D42   D(22,9,10,11)        -179.8927         estimate D2E/DX2                !
 ! D43   D(22,9,10,25)          -1.5038         estimate D2E/DX2                !
 ! D44   D(9,10,11,12)          -0.4487         estimate D2E/DX2                !
 ! D45   D(9,10,11,24)        -178.8013         estimate D2E/DX2                !
 ! D46   D(25,10,11,12)       -178.7391         estimate D2E/DX2                !
 ! D47   D(25,10,11,24)          2.9083         estimate D2E/DX2                !
 ! D48   D(9,10,25,30)          18.5467         estimate D2E/DX2                !
 ! D49   D(9,10,25,31)        -100.9151         estimate D2E/DX2                !
 ! D50   D(9,10,25,32)         138.4442         estimate D2E/DX2                !
 ! D51   D(11,10,25,30)       -163.1154         estimate D2E/DX2                !
 ! D52   D(11,10,25,31)         77.4228         estimate D2E/DX2                !
 ! D53   D(11,10,25,32)        -43.2179         estimate D2E/DX2                !
 ! D54   D(10,11,12,13)          0.3902         estimate D2E/DX2                !
 ! D55   D(10,11,12,26)        179.9504         estimate D2E/DX2                !
 ! D56   D(24,11,12,13)        178.834          estimate D2E/DX2                !
 ! D57   D(24,11,12,26)         -1.6058         estimate D2E/DX2                !
 ! D58   D(10,11,24,27)        -43.635          estimate D2E/DX2                !
 ! D59   D(10,11,24,28)       -163.5431         estimate D2E/DX2                !
 ! D60   D(10,11,24,29)         77.0993         estimate D2E/DX2                !
 ! D61   D(12,11,24,27)        138.0039         estimate D2E/DX2                !
 ! D62   D(12,11,24,28)         18.0959         estimate D2E/DX2                !
 ! D63   D(12,11,24,29)       -101.2618         estimate D2E/DX2                !
 ! D64   D(11,12,13,1)          -0.3555         estimate D2E/DX2                !
 ! D65   D(11,12,13,23)        179.2531         estimate D2E/DX2                !
 ! D66   D(26,12,13,1)        -179.921          estimate D2E/DX2                !
 ! D67   D(26,12,13,23)         -0.3124         estimate D2E/DX2                !
 --------------------------------------------------------------------------------
 Trust Radius=3.00D-01 FncErr=1.00D-07 GrdErr=1.00D-06
 Number of steps in this run=    164 maximum allowed number of steps=    192.
 GradGradGradGradGradGradGradGradGradGradGradGradGradGradGradGradGradGrad

                          Input orientation:                          
 ---------------------------------------------------------------------
 Center     Atomic      Atomic             Coordinates (Angstroms)
 Number     Number       Type             X           Y           Z
 ---------------------------------------------------------------------
      1          6           0       -5.822081    1.504963    0.100420
      2          7           0       -4.590904    0.856426    0.000936
      3          6           0       -3.351402    1.430081   -0.005586
      4          8           0       -3.116367    2.620320    0.037185
      5          8           0       -2.414107    0.478815   -0.063993
      6          6           0       -1.044219    0.936201   -0.065050
      7          6           0       -0.154916   -0.284704   -0.124475
      8          6           0        1.313495    0.126272   -0.133264
      9          6           0       -6.939641    0.694056    0.339238
     10          6           0       -8.205055    1.239851    0.447873
     11          6           0       -8.386745    2.625582    0.308580
     12          6           0       -7.273025    3.419877    0.071658
     13          6           0       -5.997899    2.880034   -0.037572
     14          1           0       -4.605824   -0.156460    0.021528
     15          1           0       -0.870544    1.515155    0.844254
     16          1           0       -0.895166    1.584116   -0.931268
     17          1           0       -0.393737   -0.858637   -1.023947
     18          1           0       -0.364917   -0.923529    0.737681
     19          1           0        1.541574    0.753663   -0.998584
     20          1           0        1.962256   -0.750060   -0.175398
     21          1           0        1.570356    0.690005    0.767107
     22          1           0       -6.797611   -0.374976    0.444657
     23          1           0       -5.161397    3.531844   -0.234124
     24          6           0       -9.722929    3.304071    0.437863
     25          6           0       -9.348201    0.281644    0.679537
     26          1           0       -7.391313    4.490035   -0.039581
     27          9           0      -10.704788    2.644002   -0.198133
     28          9           0       -9.703099    4.542099   -0.074998
     29          9           0      -10.113443    3.435648    1.719163
     30          9           0       -8.922433   -0.903424    1.135040
     31          9           0      -10.033879    0.030416   -0.448303
     32          9           0      -10.229382    0.742096    1.579630
 ---------------------------------------------------------------------
                    Distance matrix (angstroms):
                    1          2          3          4          5
     1  C    0.000000
     2  N    1.395096   0.000000
     3  C    2.474086   1.365829   0.000000
     4  O    2.927270   2.299325   1.213977   0.000000
     5  O    3.562906   2.210260   1.336727   2.255981   0.000000
     6  C    4.814440   3.548196   2.360200   2.672172   1.444229
     7  C    5.947289   4.582128   3.629345   4.151564   2.385491
     8  C    7.271302   5.950888   4.845356   5.086551   3.744877
     9  C    1.401265   2.378524   3.679143   4.291754   4.548558
    10  C    2.422721   3.661810   4.878500   5.288583   5.863127
    11  C    2.806531   4.199162   5.184844   5.277364   6.357658
    12  C    2.402698   3.710802   4.398225   4.233000   5.681314
    13  C    1.393116   2.464976   3.017836   2.894178   4.313944
    14  H    2.060542   1.013205   2.022726   3.151069   2.283530
    15  H    5.007106   3.871200   2.623761   2.629918   2.069179
    16  H    5.034395   3.880337   2.629393   2.635403   2.069067
    17  H    6.026419   4.648445   3.875960   4.543331   2.606182
    18  H    6.007022   4.644351   3.874405   4.540928   2.609297
    19  H    7.483026   6.214249   5.038333   5.123830   4.073870
    20  H    8.109076   6.749504   5.746026   6.098939   4.546988
    21  H    7.467045   6.210946   5.036712   5.120964   4.075694
    22  H    2.145771   2.565696   3.916287   4.763338   4.494751
    23  H    2.157932   2.745647   2.783114   2.255357   4.110661
    24  C    4.308976   5.702591   6.656189   6.653926   7.851930
    25  C    3.776958   4.839706   6.144096   6.687136   6.976631
    26  H    3.375314   4.587706   5.068072   4.666572   6.392422
    27  F    5.022685   6.372961   7.455398   7.592106   8.569796
    28  F    4.931254   6.302737   7.073439   6.862279   8.345047
    29  F    4.976310   6.332703   7.261010   7.242437   8.438144
    30  F    4.059920   4.810967   6.146760   6.879859   6.760663
    31  F    4.496068   5.523593   6.841825   7.402383   7.642622
    32  F    4.711086   5.856430   7.091745   7.516771   7.990577
                    6          7          8          9         10
     6  C    0.000000
     7  C    1.511622   0.000000
     8  C    2.493883   1.524863   0.000000
     9  C    5.914227   6.870625   8.286126   0.000000
    10  C    7.185602   8.213196   9.601071   1.382377   0.000000
    11  C    7.543626   8.741871  10.026786   2.413678   1.404516
    12  C    6.707112   8.026821   9.198812   2.759137   2.400569
    13  C    5.321484   6.645568   7.813376   2.409847   2.792382
    14  H    3.726450   4.455148   5.928088   2.504200   3.884060
    15  H    1.091872   2.165653   2.766688   6.145175   7.350372
    16  H    1.091945   2.165958   2.764110   6.240357   7.446813
    17  H    2.136364   1.093382   2.162869   6.864254   8.221107
    18  H    2.136451   1.093394   2.162798   6.782501   8.138302
    19  H    2.755201   2.172636   1.092894   8.586287   9.865363
    20  H    3.448847   2.168310   1.091157   9.032945  10.378942
    21  H    2.754833   2.172911   1.092906   8.520747   9.796066
    22  H    5.922880   6.667642   8.147102   1.083567   2.142097
    23  H    4.870021   6.296262   7.316578   3.397637   3.870686
    24  C    9.009980  10.234374  11.499011   3.816883   2.562234
    25  C    8.362953   9.245739  10.693762   2.467195   1.509507
    26  H    7.274338   8.670108   9.737807   3.841479   3.385777
    27  F    9.811263  10.949089  12.279344   4.274036   2.938984
    28  F    9.379702  10.698985  11.868794   4.755600   3.663656
    29  F    9.575045  10.789452  12.039866   4.415149   3.174846
    30  F    8.178673   8.879107  10.365476   2.667716   2.362299
    31  F    9.043302   9.889291  11.352151   3.261127   2.368641
    32  F    9.333267  10.269039  11.685514   3.516145   2.372031
                   11         12         13         14         15
    11  C    0.000000
    12  C    1.388311   0.000000
    13  C    2.427169   1.388995   0.000000
    14  H    4.702927   4.461688   3.340907   0.000000
    15  H    7.616644   6.724331   5.378688   4.174146   0.000000
    16  H    7.664570   6.712150   5.340035   4.207898   1.777031
    17  H    8.820634   8.175000   6.808614   4.396333   3.058171
    18  H    8.782370   8.187228   6.840949   4.368816   2.492829
    19  H   10.187457   9.270990   7.892316   6.297575   3.129574
    20  H   10.896376  10.136065   8.749894   6.597789   3.767711
    21  H   10.153845   9.281230   7.919736   6.278343   2.577754
    22  H    3.398119   3.842663   3.386322   2.242926   6.233971
    23  H    3.393922   2.136589   1.078529   3.738664   4.862237
    24  C    1.504144   2.479828   3.779113   6.191395   9.040470
    25  C    2.560480   3.811087   4.300047   4.807812   8.568510
    26  H    2.142028   1.082407   2.129251   5.417804   7.221600
    27  F    2.372851   3.528706   4.715537   6.714775   9.953553
    28  F    2.356472   2.680700   4.061080   6.933109   9.381975
    29  F    2.372222   3.283672   4.509160   6.791103   9.480767
    30  F    3.663862   4.747869   4.923664   4.520064   8.412312
    31  F    3.165566   4.402399   4.957636   5.451555   9.372399
    32  F    2.925474   4.264333   5.009148   5.904193   9.419461
                   16         17         18         19         20
    16  H    0.000000
    17  H    2.495408   0.000000
    18  H    3.058567   1.763058   0.000000
    19  H    2.575245   2.519044   3.076084   0.000000
    20  H    3.766242   2.506497   2.505902   1.765160   0.000000
    21  H    3.124534   3.076334   2.519850   1.767073   1.765132
    22  H    6.369463   6.587892   6.462686   8.538078   8.789791
    23  H    4.741348   6.529221   6.618230   7.296061   8.311714
    24  C    9.097371  10.319828  10.273017  11.638599  12.383684
    25  C    8.703156   9.186105   9.063951  11.028422  11.389547
    26  H    7.172126   8.862468   8.903990   9.730192  10.722234
    27  F    9.893913  10.920999  10.977975  12.417225  13.113893
    28  F    9.330731  10.804290  10.850584  11.901594  12.810057
    29  F    9.768807  10.974435  10.723781  12.264527  12.920218
    30  F    8.654160   8.797834   8.566760  10.807115  10.964362
    31  F    9.282419   9.698150   9.788023  11.611073  12.024595
    32  F    9.702638  10.299556  10.039464  12.050009  12.407365
                   21         22         23         24         25
    21  H    0.000000
    22  H    8.441625   0.000000
    23  H    7.375297   4.289661   0.000000
    24  C   11.596553   4.700311   4.616386   0.000000
    25  C   10.926543   2.644207   5.378468   3.055142   0.000000
    26  H    9.767420   4.924967   2.434852   2.659116   4.696499
    27  F   12.467115   4.979301   5.614156   1.343216   2.862056
    28  F   11.943139   5.734940   4.655427   1.340199   4.341285
    29  F   12.039773   5.209603   5.324223   1.345936   3.407956
    30  F   10.619464   2.295812   5.974246   4.339340   1.339085
    31  F   11.686341   3.381591   6.003912   3.405701   1.343612
    32  F   11.827795   3.783261   6.062744   2.850235   1.341143
                   26         27         28         29         30
    26  H    0.000000
    27  F    3.796326   0.000000
    28  F    2.312644   2.149725   0.000000
    29  F    3.408065   2.156946   2.147471   0.000000
    30  F    5.728304   4.187884   5.632704   4.537318   0.000000
    31  F    5.199847   2.709895   4.539169   4.037307   2.148103
    32  F    4.972275   2.646450   4.177893   2.699654   2.147909
                   31         32
    31  F    0.000000
    32  F    2.158060   0.000000
 Stoichiometry    C12H11F6NO2
 Framework group  C1[X(C12H11F6NO2)]
 Deg. of freedom    90
 Full point group                 C1      NOp   1
 Largest Abelian subgroup         C1      NOp   1
 Largest concise Abelian subgroup C1      NOp   1
                         Standard orientation:                         
 ---------------------------------------------------------------------
 Center     Atomic      Atomic             Coordinates (Angstroms)
 Number     Number       Type             X           Y           Z
 ---------------------------------------------------------------------
      1          6           0       -0.588951   -0.091258   -0.128921
      2          7           0       -1.913122    0.344906   -0.180147
      3          6           0       -3.040127   -0.411332   -0.027006
      4          8           0       -3.074830   -1.612663    0.144282
      5          8           0       -4.121398    0.372031   -0.090523
      6          6           0       -5.395241   -0.289604    0.068728
      7          6           0       -6.473206    0.765998   -0.024535
      8          6           0       -7.852104    0.133899    0.131343
      9          6           0        0.395941    0.903299   -0.062680
     10          6           0        1.737748    0.574328   -0.014706
     11          6           0        2.132035   -0.773426   -0.042294
     12          6           0        1.148355   -1.750870   -0.108502
     13          6           0       -0.202083   -1.429313   -0.155681
     14          1           0       -2.061704    1.344481   -0.253349
     15          1           0       -5.407498   -0.790920    1.038633
     16          1           0       -5.498008   -1.039154   -0.718645
     17          1           0       -6.395322    1.273491   -0.989869
     18          1           0       -6.309267    1.515635    0.754360
     19          1           0       -8.035918   -0.607634   -0.650168
     20          1           0       -8.636080    0.890016    0.065821
     21          1           0       -7.949337   -0.366274    1.098202
     22          1           0        0.089786    1.942534   -0.043258
     23          1           0       -0.933252   -2.219648   -0.218829
     24          6           0        3.566533   -1.219661    0.032133
     25          6           0        2.723357    1.716823    0.028794
     26          1           0        1.430915   -2.795492   -0.131538
     27          9           0        4.380348   -0.485117   -0.743998
     28          9           0        3.711976   -2.492287   -0.362077
     29          9           0        4.063146   -1.155454    1.281452
     30          9           0        2.143930    2.862453    0.409508
     31          9           0        3.277288    1.952771   -1.172365
     32          9           0        3.729293    1.494343    0.887431
 ---------------------------------------------------------------------
 Rotational constants (GHZ):      0.6919262      0.1133288      0.1010932
 Standard basis: 6-311+G(d) (5D, 7F)
 There are   516 symmetry adapted cartesian basis functions of A   symmetry.
 There are   495 symmetry adapted basis functions of A   symmetry.
   495 basis functions,   811 primitive gaussians,   516 cartesian basis functions
    80 alpha electrons       80 beta electrons
       nuclear repulsion energy      1771.8655810228 Hartrees.
 NAtoms=   32 NActive=   32 NUniq=   32 SFac= 1.00D+00 NAtFMM=   60 NAOKFM=F Big=F
 Integral buffers will be    131072 words long.
 Raffenetti 2 integral format.
 Two-electron integral symmetry is turned on.
 Nuclear repulsion after empirical dispersion term =     1771.8640851857 Hartrees.
 ------------------------------------------------------------------------------
 Polarizable Continuum Model (PCM)
 =================================
 Model                : PCM (using non-symmetric T matrix).
 Atomic radii         : SMD-Coulomb.
 Polarization charges : Total charges.
 Charge compensation  : None.
 Solution method      : On-the-fly selection.
 Cavity type          : VdW (van der Waals Surface) (Alpha=1.000).
 Cavity algorithm     : GePol (No added spheres)
                        Default sphere list used, NSphG=   32.
                        Lebedev-Laikov grids with approx.  5.0 points / Ang**2.
                        Smoothing algorithm: York/Karplus (Gamma=1.0000).
                        Polarization charges: spherical gaussians, with
                                              point-specific exponents (IZeta= 3).
                        Self-potential: point-specific (ISelfS= 7).
                        Self-field    : sphere-specific E.n sum rule (ISelfD= 2).
 1st derivatives      : Analytical E(r).r(x)/FMM algorithm (CHGder, D1EAlg=3).
                        Cavity 1st derivative terms included.
 Solvent              : Water, Eps=  78.355300 Eps(inf)=   1.777849
 ------------------------------------------------------------------------------
 ------------------------------------------------------------------------------
 Atomic radii for non-electrostatic terms: SMD-CDS.
 ------------------------------------------------------------------------------
 Nuclear repulsion after PCM non-electrostatic terms =     1771.8792470176 Hartrees.
 One-electron integrals computed using PRISM.
 NBasis=   495 RedAO= T EigKep=  1.40D-06  NBF=   495
 NBsUse=   493 1.00D-06 EigRej=  6.82D-07 NBFU=   493
 ExpMin= 4.38D-02 ExpMax= 1.14D+04 ExpMxC= 1.72D+03 IAcc=3 IRadAn=         5 AccDes= 0.00D+00
 Harris functional with IExCor= 1009 and IRadAn=       5 diagonalized for initial guess.
 HarFok:  IExCor= 1009 AccDes= 0.00D+00 IRadAn=         5 IDoV= 1 UseB2=F ITyADJ=14
 ICtDFT=  3500011 ScaDFX=  1.000000  1.000000  1.000000  1.000000
 FoFCou: FMM=F IPFlag=           0 FMFlag=      100000 FMFlg1=           0
         NFxFlg=           0 DoJE=T BraDBF=F KetDBF=T FulRan=T
         wScrn=  0.000000 ICntrl=     500 IOpCl=  0 I1Cent=   200000004 NGrid=           0
         NMat0=    1 NMatS0=      1 NMatT0=    0 NMatD0=    1 NMtDS0=    0 NMtDT0=    0
 Petite list used in FoFCou.
 Requested convergence on RMS density matrix=1.00D-08 within 128 cycles.
 Requested convergence on MAX density matrix=1.00D-06.
 Requested convergence on             energy=1.00D-06.
 No special actions if energy rises.
 Inv3:  Mode=1 IEnd=    17164992.
 Iteration    1 A*A^-1 deviation from unit magnitude is 6.22D-15 for   2392.
 Iteration    1 A*A^-1 deviation from orthogonality  is 3.56D-15 for   1712    457.
 Iteration    1 A^-1*A deviation from unit magnitude is 6.22D-15 for   2392.
 Iteration    1 A^-1*A deviation from orthogonality  is 6.55D-12 for   1277   1265.
 Error on total polarization charges =  0.04478
 SCF Done:  E(RM062X) =  -1268.13016163     A.U. after   15 cycles
            NFock= 15  Conv=0.35D-08     -V/T= 2.0030
 SMD-CDS (non-electrostatic) energy       (kcal/mol) =       9.51
 (included in total energy above)

 **********************************************************************

            Population analysis using the SCF density.

 **********************************************************************

 Orbital symmetries:
       Occupied  (A) (A) (A) (A) (A) (A) (A) (A) (A) (A) (A) (A)
                 (A) (A) (A) (A) (A) (A) (A) (A) (A) (A) (A) (A)
                 (A) (A) (A) (A) (A) (A) (A) (A) (A) (A) (A) (A)
                 (A) (A) (A) (A) (A) (A) (A) (A) (A) (A) (A) (A)
                 (A) (A) (A) (A) (A) (A) (A) (A) (A) (A) (A) (A)
                 (A) (A) (A) (A) (A) (A) (A) (A) (A) (A) (A) (A)
                 (A) (A) (A) (A) (A) (A) (A) (A)
       Virtual   (A) (A) (A) (A) (A) (A) (A) (A) (A) (A) (A) (A)
                 (A) (A) (A) (A) (A) (A) (A) (A) (A) (A) (A) (A)
                 (A) (A) (A) (A) (A) (A) (A) (A) (A) (A) (A) (A)
                 (A) (A) (A) (A) (A) (A) (A) (A) (A) (A) (A) (A)
                 (A) (A) (A) (A) (A) (A) (A) (A) (A) (A) (A) (A)
                 (A) (A) (A) (A) (A) (A) (A) (A) (A) (A) (A) (A)
                 (A) (A) (A) (A) (A) (A) (A) (A) (A) (A) (A) (A)
                 (A) (A) (A) (A) (A) (A) (A) (A) (A) (A) (A) (A)
                 (A) (A) (A) (A) (A) (A) (A) (A) (A) (A) (A) (A)
                 (A) (A) (A) (A) (A) (A) (A) (A) (A) (A) (A) (A)
                 (A) (A) (A) (A) (A) (A) (A) (A) (A) (A) (A) (A)
                 (A) (A) (A) (A) (A) (A) (A) (A) (A) (A) (A) (A)
                 (A) (A) (A) (A) (A) (A) (A) (A) (A) (A) (A) (A)
                 (A) (A) (A) (A) (A) (A) (A) (A) (A) (A) (A) (A)
                 (A) (A) (A) (A) (A) (A) (A) (A) (A) (A) (A) (A)
                 (A) (A) (A) (A) (A) (A) (A) (A) (A) (A) (A) (A)
                 (A) (A) (A) (A) (A) (A) (A) (A) (A) (A) (A) (A)
                 (A) (A) (A) (A) (A) (A) (A) (A) (A) (A) (A) (A)
                 (A) (A) (A) (A) (A) (A) (A) (A) (A) (A) (A) (A)
                 (A) (A) (A) (A) (A) (A) (A) (A) (A) (A) (A) (A)
                 (A) (A) (A) (A) (A) (A) (A) (A) (A) (A) (A) (A)
                 (A) (A) (A) (A) (A) (A) (A) (A) (A) (A) (A) (A)
                 (A) (A) (A) (A) (A) (A) (A) (A) (A) (A) (A) (A)
                 (A) (A) (A) (A) (A) (A) (A) (A) (A) (A) (A) (A)
                 (A) (A) (A) (A) (A) (A) (A) (A) (A) (A) (A) (A)
                 (A) (A) (A) (A) (A) (A) (A) (A) (A) (A) (A) (A)
                 (A) (A) (A) (A) (A) (A) (A) (A) (A) (A) (A) (A)
                 (A) (A) (A) (A) (A) (A) (A) (A) (A) (A) (A) (A)
                 (A) (A) (A) (A) (A) (A) (A) (A) (A) (A) (A) (A)
                 (A) (A) (A) (A) (A) (A) (A) (A) (A) (A) (A) (A)
                 (A) (A) (A) (A) (A) (A) (A) (A) (A) (A) (A) (A)
                 (A) (A) (A) (A) (A) (A) (A) (A) (A) (A) (A) (A)
                 (A) (A) (A) (A) (A) (A) (A) (A) (A) (A) (A) (A)
                 (A) (A) (A) (A) (A) (A) (A) (A) (A) (A) (A) (A)
                 (A) (A) (A) (A) (A)
 The electronic state is 1-A.
 Alpha  occ. eigenvalues --  -25.28989 -25.28921 -25.28773 -25.28690 -25.28636
 Alpha  occ. eigenvalues --  -25.28348 -19.67738 -19.62245 -14.80245 -10.81802
 Alpha  occ. eigenvalues --  -10.81540 -10.71828 -10.62199 -10.59981 -10.59080
 Alpha  occ. eigenvalues --  -10.59065 -10.57392 -10.57271 -10.56294 -10.53097
 Alpha  occ. eigenvalues --  -10.51919  -1.48535  -1.47989  -1.39089  -1.38722
 Alpha  occ. eigenvalues --   -1.38580  -1.38297  -1.25836  -1.15924  -1.08054
 Alpha  occ. eigenvalues --   -1.00311  -0.91392  -0.90509  -0.88826  -0.83846
 Alpha  occ. eigenvalues --   -0.81875  -0.79360  -0.75523  -0.74495  -0.71206
 Alpha  occ. eigenvalues --   -0.70882  -0.70731  -0.70305  -0.70096  -0.68748
 Alpha  occ. eigenvalues --   -0.67342  -0.64776  -0.64513  -0.60100  -0.59394
 Alpha  occ. eigenvalues --   -0.59276  -0.59204  -0.58448  -0.58318  -0.57316
 Alpha  occ. eigenvalues --   -0.55846  -0.55135  -0.54911  -0.53896  -0.53700
 Alpha  occ. eigenvalues --   -0.53426  -0.52790  -0.52462  -0.52218  -0.51099
 Alpha  occ. eigenvalues --   -0.50617  -0.49646  -0.48881  -0.46314  -0.45935
 Alpha  occ. eigenvalues --   -0.45193  -0.43996  -0.42727  -0.40888  -0.40160
 Alpha  occ. eigenvalues --   -0.40021  -0.38221  -0.38102  -0.34168  -0.30105
 Alpha virt. eigenvalues --   -0.02243  -0.00743   0.01240   0.02367   0.02691
 Alpha virt. eigenvalues --    0.03226   0.03728   0.03905   0.04552   0.04734
 Alpha virt. eigenvalues --    0.05279   0.05483   0.06412   0.06678   0.06890
 Alpha virt. eigenvalues --    0.07228   0.07494   0.07629   0.08836   0.08995
 Alpha virt. eigenvalues --    0.09329   0.09618   0.10040   0.11152   0.11334
 Alpha virt. eigenvalues --    0.11600   0.12219   0.12555   0.13109   0.13737
 Alpha virt. eigenvalues --    0.14191   0.14811   0.15050   0.15505   0.16076
 Alpha virt. eigenvalues --    0.16570   0.17133   0.17808   0.17993   0.18574
 Alpha virt. eigenvalues --    0.18748   0.18984   0.19618   0.19984   0.20921
 Alpha virt. eigenvalues --    0.21100   0.21209   0.21449   0.21887   0.22027
 Alpha virt. eigenvalues --    0.23106   0.23527   0.23656   0.23774   0.24215
 Alpha virt. eigenvalues --    0.24470   0.25146   0.25427   0.25845   0.26151
 Alpha virt. eigenvalues --    0.26388   0.26736   0.26919   0.27190   0.27654
 Alpha virt. eigenvalues --    0.28053   0.28132   0.28507   0.28763   0.29322
 Alpha virt. eigenvalues --    0.29715   0.29856   0.30129   0.30968   0.31265
 Alpha virt. eigenvalues --    0.31641   0.31743   0.32615   0.32814   0.33265
 Alpha virt. eigenvalues --    0.34077   0.34500   0.34684   0.35213   0.35898
 Alpha virt. eigenvalues --    0.36635   0.36804   0.37251   0.37955   0.38064
 Alpha virt. eigenvalues --    0.38577   0.38746   0.39031   0.39886   0.40207
 Alpha virt. eigenvalues --    0.40973   0.41759   0.42071   0.42681   0.42874
 Alpha virt. eigenvalues --    0.43809   0.44364   0.44490   0.44658   0.45032
 Alpha virt. eigenvalues --    0.45976   0.46537   0.47656   0.48312   0.48836
 Alpha virt. eigenvalues --    0.49506   0.49943   0.50158   0.51301   0.52441
 Alpha virt. eigenvalues --    0.52983   0.54324   0.55178   0.55852   0.55950
 Alpha virt. eigenvalues --    0.57181   0.57328   0.59155   0.59253   0.60251
 Alpha virt. eigenvalues --    0.61557   0.62367   0.62764   0.63956   0.64355
 Alpha virt. eigenvalues --    0.65212   0.66506   0.67429   0.68538   0.68641
 Alpha virt. eigenvalues --    0.69088   0.70051   0.70470   0.71162   0.72030
 Alpha virt. eigenvalues --    0.72863   0.73320   0.73522   0.73980   0.74470
 Alpha virt. eigenvalues --    0.75499   0.76514   0.76959   0.77678   0.78387
 Alpha virt. eigenvalues --    0.78580   0.79367   0.80176   0.81367   0.82012
 Alpha virt. eigenvalues --    0.82226   0.82872   0.85149   0.87016   0.88744
 Alpha virt. eigenvalues --    0.90732   0.93050   0.93148   0.94733   0.95440
 Alpha virt. eigenvalues --    0.96055   0.97019   0.99839   0.99881   1.03397
 Alpha virt. eigenvalues --    1.03870   1.04964   1.05620   1.06661   1.07815
 Alpha virt. eigenvalues --    1.09314   1.10753   1.11856   1.12869   1.13697
 Alpha virt. eigenvalues --    1.14713   1.15389   1.16814   1.19125   1.19744
 Alpha virt. eigenvalues --    1.21977   1.22567   1.22868   1.24940   1.27898
 Alpha virt. eigenvalues --    1.31517   1.32556   1.36156   1.37364   1.38571
 Alpha virt. eigenvalues --    1.38992   1.40562   1.41685   1.43280   1.43464
 Alpha virt. eigenvalues --    1.44529   1.46054   1.47913   1.47944   1.49005
 Alpha virt. eigenvalues --    1.49065   1.49602   1.50429   1.50917   1.51899
 Alpha virt. eigenvalues --    1.52561   1.53794   1.54636   1.54961   1.56358
 Alpha virt. eigenvalues --    1.57342   1.57443   1.58637   1.58825   1.59281
 Alpha virt. eigenvalues --    1.59713   1.60432   1.61468   1.61946   1.62304
 Alpha virt. eigenvalues --    1.63039   1.63963   1.64387   1.66415   1.68404
 Alpha virt. eigenvalues --    1.71139   1.74017   1.76530   1.76769   1.78130
 Alpha virt. eigenvalues --    1.79317   1.79782   1.80198   1.81894   1.84017
 Alpha virt. eigenvalues --    1.84482   1.85189   1.85790   1.87599   1.87724
 Alpha virt. eigenvalues --    1.88845   1.89889   1.92715   1.94192   1.96732
 Alpha virt. eigenvalues --    1.98956   1.99839   2.01213   2.02547   2.03826
 Alpha virt. eigenvalues --    2.04524   2.09637   2.10346   2.11321   2.12060
 Alpha virt. eigenvalues --    2.14721   2.16668   2.18386   2.19760   2.22892
 Alpha virt. eigenvalues --    2.23218   2.25503   2.34405   2.37119   2.39259
 Alpha virt. eigenvalues --    2.40612   2.42224   2.43395   2.45686   2.51521
 Alpha virt. eigenvalues --    2.53219   2.56121   2.57177   2.58150   2.60938
 Alpha virt. eigenvalues --    2.61549   2.62902   2.65921   2.69433   2.71823
 Alpha virt. eigenvalues --    2.74074   2.75744   2.80548   2.82116   2.85356
 Alpha virt. eigenvalues --    2.86948   2.91816   2.93101   2.93423   2.97798
 Alpha virt. eigenvalues --    2.98630   2.98963   3.00808   3.02228   3.04143
 Alpha virt. eigenvalues --    3.04973   3.06540   3.07486   3.09634   3.12415
 Alpha virt. eigenvalues --    3.13187   3.14550   3.19161   3.19286   3.22121
 Alpha virt. eigenvalues --    3.24943   3.29855   3.30332   3.31020   3.34192
 Alpha virt. eigenvalues --    3.37390   3.38950   3.41444   3.43094   3.44337
 Alpha virt. eigenvalues --    3.50285   3.54123   3.55676   3.69774   3.70854
 Alpha virt. eigenvalues --    3.74508   3.79518   3.79916   3.80300   3.82536
 Alpha virt. eigenvalues --    3.83584   3.83839   3.84798   3.85283   3.85579
 Alpha virt. eigenvalues --    3.86402   3.86868   3.88120   3.88584   3.90151
 Alpha virt. eigenvalues --    3.90542   3.93965   3.97905   3.98917   4.00397
 Alpha virt. eigenvalues --    4.00571   4.00788   4.02621   4.05553   4.10907
 Alpha virt. eigenvalues --    4.12016   4.12912   4.18612   4.21174   4.22650
 Alpha virt. eigenvalues --    4.26981   4.27829   4.30195   4.31787   4.56470
 Alpha virt. eigenvalues --    4.72361   4.79513   4.81587   4.98652   4.98720
 Alpha virt. eigenvalues --    5.01596   5.02490   5.09299   5.10541   5.16294
 Alpha virt. eigenvalues --    5.35512   5.49474   5.79954   5.95277   6.45892
 Alpha virt. eigenvalues --    6.47629   6.49616   6.49953   6.50711   6.52982
 Alpha virt. eigenvalues --    6.53309   6.54546   6.54997   6.55374   6.58047
 Alpha virt. eigenvalues --    6.62041   6.63038   6.63523   6.87403   6.88559
 Alpha virt. eigenvalues --    6.89294   6.90944  23.45856  23.58046  23.64451
 Alpha virt. eigenvalues --   23.65279  23.73034  23.82863  23.91700  23.93602
 Alpha virt. eigenvalues --   23.97299  24.09103  24.13093  24.20521  35.66537
 Alpha virt. eigenvalues --   50.01746  50.12673  66.89245  66.89414  66.90327
 Alpha virt. eigenvalues --   66.90879  66.95686  66.98003
          Condensed to atoms (all electrons):
               1          2          3          4          5          6
     1  C   27.130025  -0.489571  -1.394080  -0.118419  -0.285893  -0.807261
     2  N   -0.489571   7.495461   0.335280  -0.055117  -0.150221  -0.248056
     3  C   -1.394080   0.335280   8.541685   0.533532   0.314805  -0.540960
     4  O   -0.118419  -0.055117   0.533532   8.203339  -0.182398  -0.184087
     5  O   -0.285893  -0.150221   0.314805  -0.182398   8.277077   0.312715
     6  C   -0.807261  -0.248056  -0.540960  -0.184087   0.312715   8.155229
     7  C   -0.045181   0.024165   0.110362   0.031955  -0.143469  -0.894944
     8  C   -0.020009  -0.007405  -0.259595  -0.000787   0.031347   0.329483
     9  C    0.035191   0.000510   0.529571  -0.068889   0.007585   0.180578
    10  C   -6.033689   0.148467  -1.476779  -0.047541   0.000220  -0.085978
    11  C   -2.486341   0.104714  -0.076188   0.030560   0.018001  -0.025859
    12  C   -2.567658   0.096076  -0.566656   0.078664  -0.016601  -0.130676
    13  C   -2.453015  -0.038698  -0.014920   0.203962  -0.034260  -0.288236
    14  H   -0.075636   0.273465  -0.020673  -0.000571   0.014337  -0.002147
    15  H    0.010216   0.004610   0.043209  -0.000402  -0.041293   0.346226
    16  H    0.002617   0.003199   0.016837  -0.000781  -0.042054   0.379368
    17  H    0.001261  -0.000826   0.009141  -0.000275   0.001420  -0.064549
    18  H   -0.001449  -0.000820  -0.000127  -0.000281   0.001473  -0.063427
    19  H   -0.000304  -0.000013  -0.003156  -0.000047  -0.000302  -0.049375
    20  H    0.000150   0.000033   0.008993   0.000026  -0.000659   0.090285
    21  H   -0.000012  -0.000054  -0.001306  -0.000073  -0.000322  -0.047780
    22  H    0.102379  -0.017754  -0.013367   0.000010  -0.000764  -0.001051
    23  H   -0.016460  -0.017744   0.068354  -0.001718   0.000919   0.009065
    24  C    0.452833   0.025706  -0.107232   0.001943   0.002422  -0.003994
    25  C   -4.441120  -0.002611  -0.103025  -0.004969  -0.001755  -0.000880
    26  H    0.003080  -0.001329   0.004280   0.000133   0.000010   0.000078
    27  F   -0.031604   0.000008  -0.001560   0.000002   0.000000  -0.000011
    28  F   -0.004513   0.000079  -0.000147  -0.000004   0.000000   0.000002
    29  F    0.000315  -0.000087  -0.000094  -0.000000   0.000000  -0.000002
    30  F    0.166250   0.001291   0.000361   0.000000   0.000007   0.000019
    31  F   -0.014978   0.000988  -0.000358  -0.000003  -0.000000   0.000011
    32  F    0.041196   0.000637  -0.000924   0.000002   0.000001  -0.000011
               7          8          9         10         11         12
     1  C   -0.045181  -0.020009   0.035191  -6.033689  -2.486341  -2.567658
     2  N    0.024165  -0.007405   0.000510   0.148467   0.104714   0.096076
     3  C    0.110362  -0.259595   0.529571  -1.476779  -0.076188  -0.566656
     4  O    0.031955  -0.000787  -0.068889  -0.047541   0.030560   0.078664
     5  O   -0.143469   0.031347   0.007585   0.000220   0.018001  -0.016601
     6  C   -0.894944   0.329483   0.180578  -0.085978  -0.025859  -0.130676
     7  C    6.506348  -0.164305   0.000960  -0.004717  -0.003105  -0.000389
     8  C   -0.164305   6.146220   0.004530  -0.000319  -0.000364  -0.003093
     9  C    0.000960   0.004530  13.985449   0.920606  -5.977560  -2.936560
    10  C   -0.004717  -0.000319   0.920606  47.785215 -19.617655  -2.247969
    11  C   -0.003105  -0.000364  -5.977560 -19.617655  48.163141   0.085512
    12  C   -0.000389  -0.003093  -2.936560  -2.247969   0.085512  20.205226
    13  C   -0.000626  -0.013998  -0.542231  -7.061426  -5.901492  -5.177618
    14  H   -0.002054  -0.000361   0.008704   0.006736   0.003354   0.014582
    15  H   -0.022618  -0.017501   0.000119   0.000468  -0.000131  -0.000221
    16  H   -0.021928  -0.012449   0.001526   0.000090  -0.000125  -0.000383
    17  H    0.440910  -0.045831  -0.000113   0.000043   0.000005   0.000031
    18  H    0.451059  -0.045276   0.000452   0.000019  -0.000001   0.000005
    19  H    0.016202   0.380348  -0.000001  -0.000002  -0.000000   0.000006
    20  H   -0.130951   0.381899  -0.000023  -0.000001   0.000000   0.000003
    21  H    0.009046   0.384074   0.000014   0.000001  -0.000001  -0.000004
    22  H   -0.000021  -0.000002   0.349868  -0.061033  -0.044787  -0.003249
    23  H   -0.000301   0.000045  -0.027637  -0.008911   0.037523   0.009186
    24  C   -0.000504  -0.000012  -2.326489   0.052674  -2.544991  -1.211549
    25  C   -0.000215   0.000000   2.012308  -5.316317  -4.737486   0.090137
    26  H    0.000002   0.000000   0.002426  -0.027911  -0.116372   0.305573
    27  F   -0.000000  -0.000000   0.034958  -0.337794   0.065968   0.123238
    28  F   -0.000000   0.000000  -0.004323  -0.038717  -0.167749   0.088517
    29  F   -0.000000  -0.000000   0.002212  -0.066486   0.200545  -0.081617
    30  F    0.000001   0.000000   0.156604  -0.256736  -0.060841  -0.001389
    31  F    0.000000   0.000000  -0.083447   0.337327  -0.091579  -0.010074
    32  F    0.000000   0.000000   0.063617   0.092721  -0.275328   0.014348
              13         14         15         16         17         18
     1  C   -2.453015  -0.075636   0.010216   0.002617   0.001261  -0.001449
     2  N   -0.038698   0.273465   0.004610   0.003199  -0.000826  -0.000820
     3  C   -0.014920  -0.020673   0.043209   0.016837   0.009141  -0.000127
     4  O    0.203962  -0.000571  -0.000402  -0.000781  -0.000275  -0.000281
     5  O   -0.034260   0.014337  -0.041293  -0.042054   0.001420   0.001473
     6  C   -0.288236  -0.002147   0.346226   0.379368  -0.064549  -0.063427
     7  C   -0.000626  -0.002054  -0.022618  -0.021928   0.440910   0.451059
     8  C   -0.013998  -0.000361  -0.017501  -0.012449  -0.045831  -0.045276
     9  C   -0.542231   0.008704   0.000119   0.001526  -0.000113   0.000452
    10  C   -7.061426   0.006736   0.000468   0.000090   0.000043   0.000019
    11  C   -5.901492   0.003354  -0.000131  -0.000125   0.000005  -0.000001
    12  C   -5.177618   0.014582  -0.000221  -0.000383   0.000031   0.000005
    13  C   26.789130   0.042260   0.000044  -0.004442   0.000281  -0.000186
    14  H    0.042260   0.246417  -0.000014  -0.000024   0.000018  -0.000013
    15  H    0.000044  -0.000014   0.425722  -0.038421   0.004933  -0.007530
    16  H   -0.004442  -0.000024  -0.038421   0.425994  -0.007421   0.004969
    17  H    0.000281   0.000018   0.004933  -0.007421   0.431164  -0.036254
    18  H   -0.000186  -0.000013  -0.007530   0.004969  -0.036254   0.431153
    19  H    0.000065   0.000000  -0.000357   0.003166  -0.007643   0.005724
    20  H    0.000053  -0.000000  -0.000155  -0.000133  -0.003135  -0.003074
    21  H   -0.000056  -0.000000   0.003154  -0.000363   0.005675  -0.007543
    22  H   -0.016385   0.003588  -0.000000  -0.000000  -0.000000  -0.000000
    23  H    0.265278  -0.000034  -0.000002  -0.000023   0.000000  -0.000000
    24  C   -2.131927   0.001909  -0.000005  -0.000005   0.000000  -0.000000
    25  C    1.857812   0.004776   0.000017   0.000001   0.000002  -0.000001
    26  H    0.151031  -0.000008   0.000000  -0.000000   0.000000  -0.000000
    27  F    0.080050  -0.000000   0.000000  -0.000000   0.000000  -0.000000
    28  F    0.209966   0.000001  -0.000000   0.000000   0.000000  -0.000000
    29  F   -0.023065   0.000000  -0.000000   0.000000  -0.000000   0.000000
    30  F   -0.019520   0.000026  -0.000000   0.000000  -0.000000   0.000000
    31  F   -0.016496  -0.000011   0.000000  -0.000000  -0.000000   0.000000
    32  F    0.000335  -0.000005   0.000000  -0.000000   0.000000  -0.000000
              19         20         21         22         23         24
     1  C   -0.000304   0.000150  -0.000012   0.102379  -0.016460   0.452833
     2  N   -0.000013   0.000033  -0.000054  -0.017754  -0.017744   0.025706
     3  C   -0.003156   0.008993  -0.001306  -0.013367   0.068354  -0.107232
     4  O   -0.000047   0.000026  -0.000073   0.000010  -0.001718   0.001943
     5  O   -0.000302  -0.000659  -0.000322  -0.000764   0.000919   0.002422
     6  C   -0.049375   0.090285  -0.047780  -0.001051   0.009065  -0.003994
     7  C    0.016202  -0.130951   0.009046  -0.000021  -0.000301  -0.000504
     8  C    0.380348   0.381899   0.384074  -0.000002   0.000045  -0.000012
     9  C   -0.000001  -0.000023   0.000014   0.349868  -0.027637  -2.326489
    10  C   -0.000002  -0.000001   0.000001  -0.061033  -0.008911   0.052674
    11  C   -0.000000   0.000000  -0.000001  -0.044787   0.037523  -2.544991
    12  C    0.000006   0.000003  -0.000004  -0.003249   0.009186  -1.211549
    13  C    0.000065   0.000053  -0.000056  -0.016385   0.265278  -2.131927
    14  H    0.000000  -0.000000  -0.000000   0.003588  -0.000034   0.001909
    15  H   -0.000357  -0.000155   0.003154  -0.000000  -0.000002  -0.000005
    16  H    0.003166  -0.000133  -0.000363  -0.000000  -0.000023  -0.000005
    17  H   -0.007643  -0.003135   0.005675  -0.000000   0.000000   0.000000
    18  H    0.005724  -0.003074  -0.007543  -0.000000  -0.000000  -0.000000
    19  H    0.443762  -0.024058  -0.036250   0.000000  -0.000000  -0.000000
    20  H   -0.024058   0.420735  -0.024047   0.000000   0.000000   0.000000
    21  H   -0.036250  -0.024047   0.443205  -0.000000  -0.000000  -0.000000
    22  H    0.000000   0.000000  -0.000000   0.343034  -0.000016   0.010110
    23  H   -0.000000   0.000000  -0.000000  -0.000016   0.356443   0.010141
    24  C   -0.000000   0.000000  -0.000000   0.010110   0.010141  19.076727
    25  C   -0.000000  -0.000000   0.000000   0.015781  -0.001193  -6.462294
    26  H   -0.000000  -0.000000   0.000000   0.000022  -0.002811  -0.016138
    27  F   -0.000000   0.000000  -0.000000   0.000007   0.000011  -0.053225
    28  F   -0.000000  -0.000000  -0.000000   0.000008   0.000011   0.030239
    29  F    0.000000   0.000000  -0.000000   0.000011   0.000035   0.154091
    30  F    0.000000  -0.000000   0.000000   0.009053  -0.000004   0.028996
    31  F    0.000000  -0.000000  -0.000000  -0.000925  -0.000001  -0.005904
    32  F   -0.000000  -0.000000  -0.000000   0.000603  -0.000004   0.240969
              25         26         27         28         29         30
     1  C   -4.441120   0.003080  -0.031604  -0.004513   0.000315   0.166250
     2  N   -0.002611  -0.001329   0.000008   0.000079  -0.000087   0.001291
     3  C   -0.103025   0.004280  -0.001560  -0.000147  -0.000094   0.000361
     4  O   -0.004969   0.000133   0.000002  -0.000004  -0.000000   0.000000
     5  O   -0.001755   0.000010   0.000000   0.000000   0.000000   0.000007
     6  C   -0.000880   0.000078  -0.000011   0.000002  -0.000002   0.000019
     7  C   -0.000215   0.000002  -0.000000  -0.000000  -0.000000   0.000001
     8  C    0.000000   0.000000  -0.000000   0.000000  -0.000000   0.000000
     9  C    2.012308   0.002426   0.034958  -0.004323   0.002212   0.156604
    10  C   -5.316317  -0.027911  -0.337794  -0.038717  -0.066486  -0.256736
    11  C   -4.737486  -0.116372   0.065968  -0.167749   0.200545  -0.060841
    12  C    0.090137   0.305573   0.123238   0.088517  -0.081617  -0.001389
    13  C    1.857812   0.151031   0.080050   0.209966  -0.023065  -0.019520
    14  H    0.004776  -0.000008  -0.000000   0.000001   0.000000   0.000026
    15  H    0.000017   0.000000   0.000000  -0.000000  -0.000000  -0.000000
    16  H    0.000001  -0.000000  -0.000000   0.000000   0.000000   0.000000
    17  H    0.000002   0.000000   0.000000   0.000000  -0.000000  -0.000000
    18  H   -0.000001  -0.000000  -0.000000  -0.000000   0.000000   0.000000
    19  H   -0.000000  -0.000000  -0.000000  -0.000000   0.000000   0.000000
    20  H   -0.000000  -0.000000   0.000000  -0.000000   0.000000  -0.000000
    21  H    0.000000   0.000000  -0.000000  -0.000000  -0.000000   0.000000
    22  H    0.015781   0.000022   0.000007   0.000008   0.000011   0.009053
    23  H   -0.001193  -0.002811   0.000011   0.000011   0.000035  -0.000004
    24  C   -6.462294  -0.016138  -0.053225   0.030239   0.154091   0.028996
    25  C   21.532195   0.012253   0.271808   0.033761  -0.024859   0.132370
    26  H    0.012253   0.353348   0.000736   0.009508  -0.000648   0.000009
    27  F    0.271808   0.000736   8.998724  -0.022805  -0.037664   0.001715
    28  F    0.033761   0.009508  -0.022805   9.031726  -0.041757   0.000078
    29  F   -0.024859  -0.000648  -0.037664  -0.041757   8.977324   0.000068
    30  F    0.132370   0.000009   0.001715   0.000078   0.000068   9.028629
    31  F    0.060798   0.000002   0.003309   0.000056  -0.000990  -0.043073
    32  F   -0.025850   0.000036  -0.003684   0.001661   0.001599  -0.025142
              31         32
     1  C   -0.014978   0.041196
     2  N    0.000988   0.000637
     3  C   -0.000358  -0.000924
     4  O   -0.000003   0.000002
     5  O   -0.000000   0.000001
     6  C    0.000011  -0.000011
     7  C    0.000000   0.000000
     8  C    0.000000   0.000000
     9  C   -0.083447   0.063617
    10  C    0.337327   0.092721
    11  C   -0.091579  -0.275328
    12  C   -0.010074   0.014348
    13  C   -0.016496   0.000335
    14  H   -0.000011  -0.000005
    15  H    0.000000   0.000000
    16  H   -0.000000  -0.000000
    17  H   -0.000000   0.000000
    18  H    0.000000  -0.000000
    19  H    0.000000  -0.000000
    20  H   -0.000000  -0.000000
    21  H   -0.000000  -0.000000
    22  H   -0.000925   0.000603
    23  H   -0.000001  -0.000004
    24  C   -0.005904   0.240969
    25  C    0.060798  -0.025850
    26  H    0.000002   0.000036
    27  F    0.003309  -0.003684
    28  F    0.000056   0.001661
    29  F   -0.000990   0.001599
    30  F   -0.043073  -0.025142
    31  F    8.953075  -0.038594
    32  F   -0.038594   8.994257
 Mulliken charges:
               1
     1  C   -0.658322
     2  N   -0.484381
     3  C    0.064736
     4  O   -0.417766
     5  O   -0.082350
     6  C   -0.363775
     7  C   -0.155681
     8  C   -1.066639
     9  C   -0.330518
    10  C   -0.654608
    11  C   -0.581373
    12  C   -0.155396
    13  C    0.138331
    14  H    0.481377
    15  H    0.289934
    16  H    0.290783
    17  H    0.271163
    18  H    0.271127
    19  H    0.272234
    20  H    0.284059
    21  H    0.272643
    22  H    0.324883
    23  H    0.319846
    24  C    0.775513
    25  C    1.098555
    26  H    0.322689
    27  F   -0.092187
    28  F   -0.125600
    29  F   -0.058931
    30  F   -0.118774
    31  F   -0.049135
    32  F   -0.082438
 Sum of Mulliken charges =  -0.00000
 Mulliken charges with hydrogens summed into heavy atoms:
               1
     1  C   -0.658322
     2  N   -0.003005
     3  C    0.064736
     4  O   -0.417766
     5  O   -0.082350
     6  C    0.216943
     7  C    0.386609
     8  C   -0.237703
     9  C   -0.005635
    10  C   -0.654608
    11  C   -0.581373
    12  C    0.167293
    13  C    0.458178
    24  C    0.775513
    25  C    1.098555
    27  F   -0.092187
    28  F   -0.125600
    29  F   -0.058931
    30  F   -0.118774
    31  F   -0.049135
    32  F   -0.082438
 Electronic spatial extent (au):  <R**2>=           9880.4999
 Charge=             -0.0000 electrons
 Dipole moment (field-independent basis, Debye):
    X=             -7.8502    Y=              1.9549    Z=             -0.6208  Tot=              8.1137
 Quadrupole moment (field-independent basis, Debye-Ang):
   XX=           -120.6207   YY=           -121.0919   ZZ=           -122.1949
   XY=            -10.2927   XZ=              0.2436   YZ=              1.0989
 Traceless Quadrupole moment (field-independent basis, Debye-Ang):
   XX=              0.6818   YY=              0.2106   ZZ=             -0.8924
   XY=            -10.2927   XZ=              0.2436   YZ=              1.0989
 Octapole moment (field-independent basis, Debye-Ang**2):
  XXX=           -162.1593  YYY=             12.1522  ZZZ=              2.7501  XYY=             28.9987
  XXY=             26.1101  XXZ=             -1.3715  XZZ=             17.1474  YZZ=              4.4119
  YYZ=             -2.7127  XYZ=             -1.2078
 Hexadecapole moment (field-independent basis, Debye-Ang**3):
 XXXX=          -9682.8630 YYYY=          -1374.7586 ZZZZ=           -279.5365 XXXY=            -45.2896
 XXXZ=             -1.8995 YYYX=            -43.9132 YYYZ=             -1.4953 ZZZX=              1.0268
 ZZZY=              1.9499 XXYY=          -2065.8109 XXZZ=          -1789.8720 YYZZ=           -283.3084
 XXYZ=             18.0324 YYXZ=             13.0293 ZZXY=              9.5443
 N-N= 1.771879247018D+03 E-N=-6.531345929940D+03  KE= 1.264344408007D+03
 D1PCM: PCM CHGder 1st derivatives, ID1Alg=3 FixD1E=F DoIter=F DoCFld=F I1PDM=0.
 Calling FoFJK, ICntrl=      2127 FMM=F ISym2X=0 I1Cent= 0 IOpClX= 0 NMat=1 NMatS=1 NMatT=0.
 ***** Axes restored to original set *****
 -------------------------------------------------------------------
 Center     Atomic                   Forces (Hartrees/Bohr)
 Number     Number              X              Y              Z
 -------------------------------------------------------------------
      1        6           0.000002710   -0.000001712    0.000000561
      2        7          -0.000003392   -0.000003622   -0.000000734
      3        6          -0.000003350    0.000005193   -0.000001477
      4        8          -0.000003057    0.000000182   -0.000002562
      5        8           0.000002737   -0.000003792    0.000002222
      6        6           0.000004935    0.000001791   -0.000008513
      7        6          -0.000003621    0.000003435   -0.000004585
      8        6           0.000001452    0.000003203   -0.000003429
      9        6           0.000000397    0.000000565    0.000004522
     10        6           0.000001914   -0.000000185    0.000001702
     11        6          -0.000002458   -0.000002726    0.000001222
     12        6          -0.000002679   -0.000000569    0.000001742
     13        6           0.000000247    0.000001017   -0.000002040
     14        1          -0.000000249    0.000001811   -0.000000028
     15        1          -0.000000917    0.000000643   -0.000004157
     16        1          -0.000001575    0.000002412   -0.000004549
     17        1          -0.000000082   -0.000000182   -0.000001145
     18        1           0.000003289    0.000002780   -0.000004180
     19        1          -0.000001621    0.000001913   -0.000006228
     20        1           0.000000011    0.000003521   -0.000006421
     21        1           0.000001555    0.000003272   -0.000008734
     22        1           0.000001687   -0.000000902    0.000003033
     23        1          -0.000000818   -0.000001034   -0.000000081
     24        6          -0.000000248   -0.000004621    0.000005670
     25        6          -0.000000118    0.000001390    0.000010174
     26        1          -0.000001269   -0.000001262    0.000000895
     27        9          -0.000000958   -0.000001940    0.000004737
     28        9          -0.000002127   -0.000002949    0.000004957
     29        9           0.000001572    0.000002534    0.000001549
     30        9           0.000002454   -0.000002356    0.000006095
     31        9          -0.000000858   -0.000004482    0.000005681
     32        9           0.000004437   -0.000003332    0.000004103
 -------------------------------------------------------------------
 Cartesian Forces:  Max     0.000010174 RMS     0.000003271

 GradGradGradGradGradGradGradGradGradGradGradGradGradGradGradGradGradGrad
 Berny optimization.
 FormGI is forming the generalized inverse of G from B-inverse, IUseBI=4.
 GSVD:  received Info=                   1 from GESDD.
 Internal  Forces:  Max     0.000008748 RMS     0.000001860
 Search for a local minimum.
 Step number   1 out of a maximum of  164
 All quantities printed in internal units (Hartrees-Bohrs-Radians)
 Mixed Optimization -- En-DIIS/RFO-DIIS
 Second derivative matrix not updated -- first step.
 ITU=  0
     Eigenvalues ---    0.00437   0.00612   0.00640   0.00711   0.01107
     Eigenvalues ---    0.01536   0.01578   0.01757   0.01968   0.02021
     Eigenvalues ---    0.02108   0.02144   0.02162   0.02203   0.02212
     Eigenvalues ---    0.02239   0.02245   0.02269   0.02529   0.03890
     Eigenvalues ---    0.05009   0.05447   0.05548   0.05579   0.05742
     Eigenvalues ---    0.08038   0.10485   0.10541   0.10692   0.10711
     Eigenvalues ---    0.11242   0.11954   0.13580   0.15961   0.15999
     Eigenvalues ---    0.16000   0.16000   0.16000   0.16000   0.16000
     Eigenvalues ---    0.21889   0.21984   0.22015   0.22374   0.23482
     Eigenvalues ---    0.24596   0.24986   0.24992   0.24998   0.25000
     Eigenvalues ---    0.25000   0.25000   0.25000   0.25000   0.25000
     Eigenvalues ---    0.25000   0.25000   0.25000   0.29903   0.31188
     Eigenvalues ---    0.31400   0.31946   0.34423   0.34425   0.34479
     Eigenvalues ---    0.34480   0.34589   0.34597   0.34679   0.35567
     Eigenvalues ---    0.35705   0.36173   0.39011   0.42100   0.42665
     Eigenvalues ---    0.45440   0.45752   0.46394   0.46443   0.47388
     Eigenvalues ---    0.48272   0.51787   0.55895   0.56403   0.56490
     Eigenvalues ---    0.56950   0.57160   0.57411   0.57945   0.98102
 RFO step:  Lambda= 0.00000000D+00 EMin= 4.37054556D-03
 Linear search not attempted -- first point.
 Iteration  1 RMS(Cart)=  0.00019208 RMS(Int)=  0.00000001
 Iteration  2 RMS(Cart)=  0.00000002 RMS(Int)=  0.00000000
 Variable       Old X    -DE/DX   Delta X   Delta X   Delta X     New X
                                 (Linear)    (Quad)   (Total)
    R1        2.63635  -0.00000   0.00000  -0.00001  -0.00001   2.63634
    R2        2.64801  -0.00000   0.00000  -0.00001  -0.00001   2.64800
    R3        2.63261   0.00000   0.00000   0.00000   0.00000   2.63261
    R4        2.58104  -0.00000   0.00000  -0.00000  -0.00000   2.58104
    R5        1.91468  -0.00000   0.00000  -0.00000  -0.00000   1.91468
    R6        2.29408  -0.00000   0.00000  -0.00000  -0.00000   2.29408
    R7        2.52605   0.00001   0.00000   0.00001   0.00001   2.52606
    R8        2.72920   0.00000   0.00000   0.00000   0.00000   2.72920
    R9        2.85655  -0.00000   0.00000  -0.00001  -0.00001   2.85654
   R10        2.06334  -0.00000   0.00000  -0.00000  -0.00000   2.06334
   R11        2.06348   0.00000   0.00000   0.00000   0.00000   2.06348
   R12        2.88157   0.00000   0.00000   0.00000   0.00000   2.88158
   R13        2.06619  -0.00000   0.00000  -0.00000  -0.00000   2.06619
   R14        2.06622  -0.00000   0.00000  -0.00000  -0.00000   2.06621
   R15        2.06527  -0.00000   0.00000  -0.00000  -0.00000   2.06527
   R16        2.06199  -0.00000   0.00000  -0.00000  -0.00000   2.06199
   R17        2.06529  -0.00000   0.00000  -0.00000  -0.00000   2.06529
   R18        2.61231  -0.00000   0.00000  -0.00000  -0.00000   2.61231
   R19        2.04764   0.00000   0.00000   0.00000   0.00000   2.04765
   R20        2.65415   0.00000   0.00000   0.00000   0.00000   2.65415
   R21        2.85256   0.00000   0.00000   0.00000   0.00000   2.85256
   R22        2.62353   0.00000   0.00000   0.00000   0.00000   2.62353
   R23        2.84242   0.00000   0.00000   0.00000   0.00000   2.84242
   R24        2.62482   0.00000   0.00000   0.00000   0.00000   2.62482
   R25        2.04545  -0.00000   0.00000  -0.00000  -0.00000   2.04545
   R26        2.03813  -0.00000   0.00000  -0.00000  -0.00000   2.03813
   R27        2.53831  -0.00000   0.00000  -0.00000  -0.00000   2.53831
   R28        2.53261  -0.00000   0.00000  -0.00000  -0.00000   2.53261
   R29        2.54345  -0.00000   0.00000  -0.00000  -0.00000   2.54345
   R30        2.53050   0.00000   0.00000   0.00000   0.00000   2.53051
   R31        2.53906   0.00000   0.00000   0.00000   0.00000   2.53906
   R32        2.53439  -0.00000   0.00000  -0.00001  -0.00001   2.53439
    A1        2.03416   0.00000   0.00000   0.00000   0.00000   2.03417
    A2        2.16900  -0.00000   0.00000  -0.00001  -0.00001   2.16900
    A3        2.07994   0.00000   0.00000   0.00000   0.00000   2.07994
    A4        2.22178  -0.00001   0.00000  -0.00004  -0.00004   2.22175
    A5        2.03787   0.00000   0.00000   0.00002   0.00002   2.03789
    A6        2.01898   0.00001   0.00000   0.00003   0.00003   2.01901
    A7        2.19855  -0.00001   0.00000  -0.00002  -0.00002   2.19852
    A8        1.91522   0.00001   0.00000   0.00002   0.00002   1.91524
    A9        2.16942  -0.00000   0.00000  -0.00000  -0.00000   2.16942
   A10        2.02612  -0.00001   0.00000  -0.00002  -0.00002   2.02610
   A11        1.87786   0.00000   0.00000   0.00001   0.00001   1.87788
   A12        1.89462  -0.00000   0.00000  -0.00001  -0.00001   1.89460
   A13        1.89439  -0.00000   0.00000  -0.00001  -0.00001   1.89438
   A14        1.94703  -0.00000   0.00000  -0.00001  -0.00001   1.94703
   A15        1.94739   0.00000   0.00000   0.00001   0.00001   1.94740
   A16        1.90107   0.00000   0.00000   0.00000   0.00000   1.90107
   A17        1.92738  -0.00000   0.00000  -0.00001  -0.00001   1.92737
   A18        1.90477   0.00000   0.00000   0.00001   0.00001   1.90479
   A19        1.90488   0.00000   0.00000   0.00001   0.00001   1.90489
   A20        1.92524   0.00000   0.00000  -0.00000  -0.00000   1.92524
   A21        1.92513   0.00000   0.00000  -0.00000  -0.00000   1.92513
   A22        1.87552  -0.00000   0.00000  -0.00001  -0.00001   1.87551
   A23        1.93933  -0.00000   0.00000  -0.00001  -0.00001   1.93932
   A24        1.93512  -0.00000   0.00000  -0.00000  -0.00000   1.93512
   A25        1.93970   0.00000   0.00000   0.00001   0.00001   1.93972
   A26        1.88219   0.00000   0.00000  -0.00000  -0.00000   1.88219
   A27        1.88297  -0.00000   0.00000  -0.00001  -0.00001   1.88296
   A28        1.88213  -0.00000   0.00000   0.00000   0.00000   1.88214
   A29        2.11177   0.00000   0.00000   0.00000   0.00000   2.11177
   A30        2.07485  -0.00000   0.00000  -0.00000  -0.00000   2.07484
   A31        2.09655   0.00000   0.00000   0.00000   0.00000   2.09656
   A32        2.09459   0.00000   0.00000   0.00000   0.00000   2.09459
   A33        2.04278  -0.00000   0.00000  -0.00002  -0.00002   2.04277
   A34        2.14545   0.00000   0.00000   0.00002   0.00002   2.14547
   A35        2.06875  -0.00000   0.00000  -0.00000  -0.00000   2.06874
   A36        2.15488   0.00001   0.00000   0.00002   0.00002   2.15490
   A37        2.05921  -0.00000   0.00000  -0.00002  -0.00002   2.05919
   A38        2.12646   0.00000   0.00000   0.00000   0.00000   2.12646
   A39        2.08924   0.00000   0.00000   0.00000   0.00000   2.08924
   A40        2.06747  -0.00000   0.00000  -0.00000  -0.00000   2.06746
   A41        2.08483  -0.00000   0.00000  -0.00000  -0.00000   2.08483
   A42        2.11378  -0.00000   0.00000  -0.00000  -0.00000   2.11377
   A43        2.08456   0.00000   0.00000   0.00001   0.00001   2.08457
   A44        1.96816   0.00000   0.00000   0.00001   0.00001   1.96817
   A45        1.95051  -0.00000   0.00000  -0.00001  -0.00001   1.95050
   A46        1.96456   0.00000   0.00000   0.00001   0.00001   1.96457
   A47        1.85831  -0.00000   0.00000  -0.00000  -0.00000   1.85831
   A48        1.86158   0.00000   0.00000   0.00001   0.00001   1.86159
   A49        1.85280  -0.00000   0.00000  -0.00003  -0.00003   1.85278
   A50        1.95324  -0.00000   0.00000  -0.00000  -0.00000   1.95324
   A51        1.95663   0.00000   0.00000   0.00001   0.00001   1.95664
   A52        1.96344   0.00000   0.00000   0.00001   0.00001   1.96345
   A53        1.85701  -0.00000   0.00000  -0.00001  -0.00001   1.85700
   A54        1.85923  -0.00000   0.00000  -0.00000  -0.00000   1.85923
   A55        1.86738  -0.00000   0.00000   0.00000   0.00000   1.86738
    D1       -2.93721  -0.00000   0.00000  -0.00002  -0.00002  -2.93724
    D2        0.09701   0.00000   0.00000   0.00000   0.00000   0.09701
    D3        0.21817  -0.00000   0.00000  -0.00004  -0.00004   0.21813
    D4       -3.03079  -0.00000   0.00000  -0.00002  -0.00002  -3.03081
    D5       -3.13624  -0.00000   0.00000  -0.00000  -0.00000  -3.13625
    D6        0.01184  -0.00000   0.00000  -0.00001  -0.00001   0.01182
    D7       -0.00771   0.00000   0.00000   0.00002   0.00002  -0.00769
    D8        3.14038   0.00000   0.00000   0.00001   0.00001   3.14038
    D9        3.13391   0.00000   0.00000   0.00002   0.00002   3.13393
   D10       -0.00073  -0.00000   0.00000  -0.00002  -0.00002  -0.00076
   D11        0.00645  -0.00000   0.00000  -0.00000  -0.00000   0.00644
   D12       -3.12820  -0.00000   0.00000  -0.00005  -0.00005  -3.12824
   D13       -0.03910  -0.00000   0.00000  -0.00004  -0.00004  -0.03914
   D14        3.10020   0.00000   0.00000   0.00002   0.00002   3.10022
   D15       -3.07432  -0.00000   0.00000  -0.00007  -0.00007  -3.07439
   D16        0.06498   0.00000   0.00000  -0.00000  -0.00000   0.06498
   D17       -3.13160  -0.00000   0.00000  -0.00019  -0.00019  -3.13180
   D18        0.00774  -0.00000   0.00000  -0.00013  -0.00013   0.00762
   D19        3.13430  -0.00000   0.00000  -0.00001  -0.00001   3.13429
   D20        1.02481  -0.00000   0.00000   0.00000   0.00000   1.02481
   D21       -1.03910   0.00000   0.00000   0.00001   0.00001  -1.03909
   D22        3.13838  -0.00000   0.00000  -0.00011  -0.00011   3.13828
   D23        1.01924  -0.00000   0.00000  -0.00011  -0.00011   1.01913
   D24       -1.02572  -0.00000   0.00000  -0.00011  -0.00011  -1.02584
   D25       -1.06858  -0.00000   0.00000  -0.00012  -0.00012  -1.06870
   D26        3.09546  -0.00000   0.00000  -0.00012  -0.00012   3.09534
   D27        1.05050  -0.00000   0.00000  -0.00013  -0.00013   1.05037
   D28        1.06224  -0.00000   0.00000  -0.00012  -0.00012   1.06212
   D29       -1.05691  -0.00000   0.00000  -0.00012  -0.00012  -1.05702
   D30       -3.10187  -0.00000   0.00000  -0.00012  -0.00012  -3.10199
   D31       -1.04928  -0.00000   0.00000   0.00000   0.00000  -1.04928
   D32        3.14092   0.00000   0.00000   0.00001   0.00001   3.14093
   D33        1.04775  -0.00000   0.00000  -0.00000  -0.00000   1.04775
   D34        1.05769   0.00000   0.00000   0.00001   0.00001   1.05770
   D35       -1.03530   0.00000   0.00000   0.00002   0.00002  -1.03528
   D36       -3.12847   0.00000   0.00000   0.00001   0.00001  -3.12846
   D37        3.12688  -0.00000   0.00000  -0.00000  -0.00000   3.12688
   D38        1.03389   0.00000   0.00000   0.00001   0.00001   1.03390
   D39       -1.05927  -0.00000   0.00000  -0.00001  -0.00001  -1.05928
   D40        0.00844  -0.00000   0.00000  -0.00001  -0.00001   0.00843
   D41        3.12192   0.00000   0.00000   0.00002   0.00002   3.12194
   D42       -3.13972  -0.00000   0.00000  -0.00000  -0.00000  -3.13972
   D43       -0.02625   0.00000   0.00000   0.00003   0.00003  -0.02621
   D44       -0.00783  -0.00000   0.00000  -0.00000  -0.00000  -0.00783
   D45       -3.12067   0.00000   0.00000   0.00003   0.00003  -3.12064
   D46       -3.11959  -0.00000   0.00000  -0.00004  -0.00004  -3.11963
   D47        0.05076   0.00000   0.00000  -0.00000  -0.00000   0.05076
   D48        0.32370  -0.00000   0.00000  -0.00003  -0.00003   0.32367
   D49       -1.76130   0.00000   0.00000  -0.00002  -0.00002  -1.76132
   D50        2.41631  -0.00000   0.00000  -0.00003  -0.00003   2.41627
   D51       -2.84690  -0.00000   0.00000   0.00001   0.00001  -2.84690
   D52        1.35128   0.00000   0.00000   0.00002   0.00002   1.35130
   D53       -0.75429  -0.00000   0.00000   0.00000   0.00000  -0.75429
   D54        0.00681   0.00000   0.00000   0.00002   0.00002   0.00683
   D55        3.14073   0.00000   0.00000   0.00004   0.00004   3.14076
   D56        3.12124  -0.00000   0.00000  -0.00002  -0.00002   3.12122
   D57       -0.02803   0.00000   0.00000  -0.00000  -0.00000  -0.02803
[...]
 003311,-0.00052386,0.00046121,0.00028160,-0.19689100,-0.05449465,-0.06
 550654,-0.00468137,0.00013664,-0.00117893,0.00054087,-0.00022063,-0.00
 072861,0.23865971,0.00047686,0.00048983,-0.00004704,-0.00026010,0.0000
 7399,0.00000269,0.00014074,0.00007462,-0.00003543,-0.00001731,-0.00005
 774,0.00000703,-0.00003879,0.00001612,0.00000269,0.00000761,-0.0000004
 3,0.00000032,-0.00000076,-0.00000217,-0.00000049,-0.00000055,0.0000017
 0,0.00000027,-0.00088501,0.00053616,0.00039656,-0.00053555,-0.00058067
 ,-0.00009392,0.00283700,0.01001035,-0.00035764,0.00050616,-0.00071224,
 0.00033616,0.00048598,0.00028878,-0.00021819,-0.00000559,-0.00001471,0
 .00001261,-0.00000194,0.00000006,0.00000052,-0.00000295,-0.00000007,-0
 .00000032,-0.00000002,0.00000042,0.00000056,-0.00000003,0.00000029,-0.
 00000032,-0.00000002,-0.00000016,-0.00000010,-0.00000064,0.00000008,-0
 .00000003,0.00000016,-0.00000003,0.00000021,-0.00008145,0.00001357,0.0
 0000640,0.00003751,-0.00005891,-0.00005361,-0.06108109,-0.10001471,-0.
 03495578,-0.00462768,0.00262297,-0.00144038,0.00037177,0.00023495,-0.0
 0009775,0.11833302,0.17089875,0.00055120,0.00012032,-0.00012572,-0.000
 51418,0.00010190,0.00006074,0.00040319,0.00016272,-0.00002176,-0.00014
 986,-0.00010480,-0.00000379,-0.00017223,0.00007019,0.00001301,0.000044
 84,0.00001521,-0.00000222,-0.00000615,-0.00000869,-0.00000107,-0.00000
 085,0.00000555,0.00000032,-0.00054430,0.00016974,-0.00006005,0.0010256
 9,-0.00094339,0.00066221,-0.00710722,-0.00712366,0.00454733,-0.0018171
 0,0.00216235,-0.00029440,-0.00033430,-0.00098791,0.00002577,-0.0000173
 1,-0.00003071,0.00000087,-0.00000786,-0.00000124,0.00000026,-0.0000087
 0,-0.00000189,0.00000045,-0.00000014,0.00000142,0.00000086,0.00000033,
 0.00000044,-0.00000022,-0.00000029,-0.00000052,0.00000024,-0.00000252,
 -0.00000026,-0.00000007,0.00000018,-0.00000012,0.00000008,-0.00005935,
 0.00001847,-0.00003147,-0.00016450,0.00016554,0.00003110,-0.06932374,-
 0.03038090,-0.10044413,-0.00017273,-0.00060754,-0.00282079,0.00007929,
 0.00004050,0.00008816,0.10990945,0.07422378,0.15342648,0.00126277,0.00
 019400,-0.00030528,-0.00178442,0.00035325,0.00013885,0.00134131,0.0006
 8305,-0.00006595,-0.00034516,-0.00046490,-0.00001455,-0.00054709,0.000
 18963,0.00002552,0.00014051,0.00004942,-0.00000227,-0.00001951,-0.0000
 2797,-0.00000026,-0.00000203,0.00001667,0.00000084,-0.00100870,0.00186
 821,0.00026003,-0.00453188,-0.00125647,0.00001172,0.00143398,0.0335917
 7,-0.01027645,-0.00423256,0.00109017,-0.00030854,0.00066986,0.00120393
 ,-0.00005023,-0.00005002,-0.00011568,0.00002580,-0.00002628,-0.0000050
 5,-0.00000124,-0.00002776,-0.00000469,0.00000090,0.00000061,0.00000275
 ,0.00000134,0.00000058,0.00000283,-0.00000116,-0.00000036,-0.00000101,
 0.00000060,-0.00000779,-0.00000082,0.00000006,-0.00000044,-0.00000090,
 -0.00000064,-0.00047815,0.00012029,0.00016701,-0.00000431,-0.00002437,
 -0.00002389,-0.07832066,0.01470486,-0.00415103,-0.00222186,-0.00094404
 ,0.00001296,-0.00393704,0.00346767,-0.00043691,-0.00662751,-0.05132479
 ,0.00383808,0.08878364,-0.00288921,0.00039518,0.00057701,0.00347240,-0
 .00037916,-0.00024710,-0.00235522,-0.00131765,0.00016873,0.00052529,0.
 00088068,-0.00000261,0.00092748,-0.00031957,-0.00004921,-0.00023757,-0
 .00007904,-0.00000380,0.00003343,0.00004642,0.00000008,0.00000306,-0.0
 0002748,-0.00000067,0.00165190,-0.00202749,-0.00058036,0.00590874,0.00
 320869,0.00074894,0.00511643,-0.03938077,0.01609548,-0.00396539,-0.002
 30617,0.00045781,0.00063635,-0.00000560,-0.00062506,0.00001238,0.00020
 544,-0.00005813,0.00004588,0.00000781,0.00000214,0.00004804,0.00000706
 ,-0.00000233,-0.00000102,-0.00000467,-0.00000176,-0.00000148,-0.000004
 38,0.00000129,0.00000091,0.00000161,-0.00000138,0.00001279,0.00000178,
 -0.00000004,0.00000089,0.00000127,0.00000126,0.00070002,-0.00019253,-0
 .00035253,0.00013302,-0.00005237,0.00003888,0.02590748,-0.23841497,0.0
 6291190,0.00027209,0.00425982,-0.00038869,0.00138353,0.00099837,-0.000
 02966,-0.03937302,-0.06763515,-0.00406728,0.01213406,0.35546608,0.0002
 2734,-0.00045661,0.00005185,-0.00045132,0.00002276,0.00001344,0.000314
 96,0.00017675,-0.00000245,-0.00007755,-0.00010856,-0.00000393,-0.00013
 307,0.00004697,0.00000705,0.00003275,0.00001107,-0.00000305,-0.0000054
 4,-0.00000640,-0.00000073,-0.00000058,0.00000433,0.00000052,0.00035063
 ,0.00050100,-0.00044542,-0.00142392,-0.00005837,0.00166428,0.00072737,
 0.00744670,0.00475403,0.00195665,0.00072927,0.00023058,-0.00043299,0.0
 0006692,0.00025148,0.00000138,-0.00002302,-0.00001484,-0.00000681,-0.0
 0000046,0.00000007,-0.00000644,-0.00000187,0.00000102,-0.00000024,0.00
 000108,0.00000055,0.00000008,0.00000025,0.,-0.00000044,-0.00000037,0.0
 0000033,-0.00000181,-0.00000023,-0.00000009,0.00000004,-0.00000008,-0.
 00000003,-0.00019490,0.00000687,-0.00018419,-0.00004116,0.00004333,0.0
 0002600,-0.00887220,0.06484720,-0.09052537,0.00006734,-0.00097790,-0.0
 0033914,-0.00001955,-0.00045157,0.00005204,-0.00037717,-0.01200310,0.0
 1483914,-0.00563296,-0.11645924,0.13008073,0.00382947,-0.00032746,-0.0
 0039960,-0.00476877,0.00079192,0.00061983,0.00324141,0.00174379,-0.000
 17168,-0.00071338,-0.00117537,-0.00000685,-0.00122206,0.00044903,0.000
 03812,0.00031294,0.00009567,-0.00000254,-0.00004201,-0.00006225,-0.000
 00104,-0.00000436,0.00003735,0.00000189,-0.00410710,-0.00034909,-0.000
 98439,0.00107107,-0.00348791,0.00124957,-0.01408720,0.00994245,0.03675
 831,0.00137507,0.00311959,0.00050439,-0.00123406,0.00087751,-0.0017053
 0,-0.00009327,-0.00026241,0.00009000,-0.00006396,-0.00000820,-0.000000
 62,-0.00006226,-0.00001004,0.00000326,0.00000123,0.00000613,0.00000304
 ,0.00000129,0.00000687,-0.00000257,-0.00000094,-0.00000200,0.00000118,
 -0.00001724,-0.00000194,0.00000026,-0.00000101,-0.00000205,-0.00000141
 ,-0.00025994,0.00007785,-0.00018940,-0.00021150,0.00008537,-0.00003708
 ,-0.09658656,0.01332424,0.06371537,-0.00296652,-0.00094370,0.00179803,
 0.00029626,-0.00011269,0.00083123,0.01073887,-0.01090110,-0.03476525,0
 .00874630,-0.00988223,0.01408566,0.09378951,-0.00136587,0.00096502,0.0
 0001751,0.00210263,-0.00039469,-0.00024611,-0.00146074,-0.00076409,0.0
 0009331,0.00035220,0.00050846,-0.00000280,0.00056464,-0.00021149,-0.00
 000855,-0.00014607,-0.00004655,-0.00000067,0.00001949,0.00002834,0.000
 00033,0.00000187,-0.00001708,-0.00000086,0.00105507,0.00056105,0.00031
 394,-0.00123211,0.00079598,0.00094999,0.01084324,0.00774792,-0.0181046
 9,-0.00024738,-0.00284259,-0.00100215,0.00142626,-0.00035341,0.0006651
 2,0.00005010,0.00011592,-0.00004837,0.00002962,0.00000363,0.00000044,0
 .00002815,0.00000532,-0.00000186,-0.00000074,-0.00000276,-0.00000116,-
 0.00000063,-0.00000311,0.00000098,0.00000052,0.00000091,-0.00000064,0.
 00000788,0.00000101,-0.00000009,0.00000061,0.00000091,0.00000075,0.000
 00732,-0.00005009,-0.00002936,0.00019465,-0.00012373,0.00012146,0.0139
 0181,-0.07210671,-0.02239740,-0.00108572,0.00200102,0.00102248,0.00008
 642,0.00006169,-0.00036615,-0.00665467,-0.00250580,-0.03717296,-0.0156
 8265,-0.00965109,0.05550087,-0.00336199,0.08583266,-0.00300262,0.00046
 344,0.00031434,0.00368828,-0.00064665,-0.00042096,-0.00254496,-0.00132
 948,0.00013061,0.00060124,0.00089189,0.00001957,0.00097479,-0.00035762
 ,-0.00003232,-0.00024759,-0.00007908,-0.00000381,0.00003396,0.00004917
 ,-0.00000125,0.00000373,-0.00003021,-0.00000102,0.00300151,-0.00013199
 ,0.00052997,-0.00041151,0.00288274,-0.00045580,0.01560484,-0.00568094,
 -0.01942308,-0.00021059,-0.00313309,-0.00040682,0.00135345,-0.00052940
 ,0.00083300,0.00007564,0.00020638,-0.00007736,0.00005104,0.00000747,0.
 00000087,0.00004893,0.00000768,-0.00000170,-0.00000063,-0.00000431,-0.
 00000190,-0.00000080,-0.00000618,0.00000247,0.00000047,0.00000113,-0.0
 0000064,0.00001360,0.00000160,-0.00000030,0.00000129,0.00000190,0.0000
 0145,0.00026748,-0.00009030,0.00007389,0.00024619,-0.00014666,0.000051
 36,0.06513651,-0.02582437,-0.21521970,0.00182717,0.00124336,-0.0027289
 6,-0.00044798,-0.00010158,-0.00050328,-0.02053446,-0.03093749,-0.06872
 932,0.01673335,0.04139686,-0.06091793,-0.08057616,0.02279419,0.3646409
 6,0.00196446,-0.00096401,-0.00011114,-0.00076572,0.00006086,0.00007511
 ,0.00073484,0.00037589,-0.00002345,-0.00020315,-0.00025857,-0.00000937
 ,-0.00031460,0.00009484,0.00001689,0.00008183,0.00003074,-0.00000031,-
 0.00001178,-0.00001559,0.00000028,-0.00000109,0.00000921,0.00000008,-0
 .00500846,-0.00147078,0.00200301,0.00865033,-0.01929452,0.00596858,-0.
 00266677,-0.00028363,0.00101186,-0.00008914,-0.00130834,-0.00014772,-0
 .00019454,-0.00059427,0.00014900,0.00009150,-0.00005082,-0.00002783,-0
 .00001492,-0.00000296,-0.00000080,-0.00001534,-0.00000308,0.00000131,0
 .00000041,0.00000171,0.00000065,0.00000093,0.00000134,-0.00000030,-0.0
 0000042,-0.00000072,0.00000055,-0.00000462,-0.00000035,0.,-0.00000020,
 -0.00000060,-0.00000050,-0.00314603,-0.00424961,0.00159293,0.00005454,
 -0.00012633,0.00000740,-0.00188048,-0.00076705,0.00055884,-0.08267080,
 0.03926912,-0.01417977,-0.00023199,-0.00013835,-0.00004317,0.00058671,
 0.00082867,-0.00006359,0.00031677,0.00002791,-0.00005487,0.00043577,0.
 00040044,-0.00033584,0.12586520,0.00177056,0.00007050,-0.00082665,-0.0
 0204462,0.00010590,0.00019872,0.00152532,0.00070869,-0.00000398,-0.000
 47058,-0.00046138,-0.00001660,-0.00067993,0.00024001,0.00002187,0.0001
 6727,0.00006481,-0.00000178,-0.00002501,-0.00003602,0.00000035,-0.0000
 0334,0.00002197,0.00000077,0.00155264,-0.00242692,0.00001799,0.0118801
 6,-0.04324285,0.01736024,-0.00768595,0.00115476,0.00254623,0.00024915,
 -0.00286812,-0.00045050,-0.00011768,-0.00062621,0.00032074,-0.00003240
 ,-0.00015512,0.00000084,-0.00003184,-0.00000698,-0.00000015,-0.0000312
 5,-0.00000575,-0.00000017,-0.00000003,0.00000352,0.00000269,-0.0000001
 5,0.00000439,-0.00000294,0.00000009,-0.00000078,-0.00000011,-0.0000099
 7,-0.00000114,0.00000022,-0.00000020,-0.00000117,-0.00000018,-0.001679
 89,0.00011146,0.00054538,0.00001483,0.00008674,0.00006112,-0.00172320,
 0.00404066,-0.00005355,0.02699345,-0.23665351,0.06311232,-0.00076048,-
 0.00042039,-0.00010721,0.00050113,-0.00087703,0.00037550,0.00049805,-0
 .00148316,0.00040195,0.00044156,-0.00102378,-0.00057596,-0.09730621,0.
 33094765,-0.00044647,0.00040350,0.00008777,0.00054276,-0.00003123,-0.0
 0001612,-0.00042323,-0.00020737,0.00001477,0.00012571,0.00013706,0.000
 00573,0.00019360,-0.00006719,-0.00000311,-0.00004694,-0.00001813,-0.00
 000143,0.00000693,0.00000981,-0.00000108,0.00000078,-0.00000599,-0.000
 00014,-0.00067818,0.00084837,0.00045030,-0.00403115,0.01502462,0.00260
 674,0.00299613,0.00031602,0.00062563,-0.00077709,0.00090759,-0.0002189
 9,0.00033997,-0.00010335,0.00001520,-0.00001395,0.00004136,-0.00001606
 ,0.00000928,0.00000248,0.00000056,0.00000851,0.00000137,0.00000006,-0.
 00000017,-0.00000045,-0.00000024,0.00000018,-0.00000166,0.00000095,-0.
 00000027,-0.00000004,0.00000016,0.00000274,0.00000033,-0.00000022,0.00
 000042,0.00000049,0.00000029,0.00148913,0.00067950,-0.00045623,0.00000
 232,-0.00001110,-0.00001706,0.00063068,-0.00090605,-0.00050891,-0.0095
 8547,0.06285342,-0.09088817,0.00022640,0.00010931,-0.00018980,-0.00003
 090,0.00036186,0.00023972,-0.00015713,0.00043796,-0.00006776,-0.000261
 42,0.00008089,0.00041252,0.03570911,-0.09761790,0.11988894,0.00153102,
 0.00023897,0.00198693,-0.00155887,-0.00018344,0.00012444,0.00130744,0.
 00062121,-0.00009182,-0.00046270,-0.00038952,0.00001037,-0.00064823,0.
 00019346,0.00002634,0.00016439,0.00006804,0.00000986,-0.00002596,-0.00
 003408,-0.00000098,-0.00000185,0.00002020,-0.00000034,0.00013536,-0.00
 322516,-0.00016526,-0.01986939,-0.01475782,-0.03210716,-0.00138698,0.0
 0217749,-0.00080127,-0.00182555,-0.00069273,0.00190607,-0.00004047,-0.
 00148839,-0.00020195,0.00002980,-0.00011926,-0.00001081,-0.00002816,-0
 .00000729,-0.00000061,-0.00003003,-0.00000657,0.00000082,0.00000006,0.
 00000386,0.00000182,0.00000081,0.00000318,-0.00000095,-0.00000052,-0.0
 0000142,0.00000082,-0.00000975,-0.00000107,0.00000001,0.00000007,-0.00
 000109,-0.00000065,0.00003283,0.00008843,-0.00105768,0.00009686,-0.000
 03859,-0.00023558,-0.00431637,-0.00003554,-0.00150630,-0.13377003,-0.0
 3188996,-0.08292024,-0.00020749,-0.00019571,0.00022334,0.00165319,0.00
 307092,0.00106320,0.00072619,-0.00022473,0.00016589,0.00107411,-0.0003
 5101,-0.00036223,-0.01569619,0.02116771,-0.03923612,0.15340348,0.00021
 320,-0.00025767,0.00137911,-0.00119404,-0.00014899,0.00018116,0.000929
 94,0.00047323,-0.00001280,-0.00030738,-0.00028321,0.00000484,-0.000476
 06,0.00014255,0.00000784,0.00011703,0.00005248,-0.00000005,-0.00001987
 ,-0.00002506,-0.00000138,-0.00000207,0.00001520,0.00000022,-0.00024331
 ,-0.00351412,-0.00058573,-0.02055470,0.00197808,-0.02191112,0.00059088
 ,0.00092571,0.00052375,-0.00042332,0.00030708,0.00083305,-0.00062332,-
 0.00024432,-0.00004974,0.00001121,-0.00009232,-0.00002536,-0.00002158,
 -0.00000500,-0.00000025,-0.00002048,-0.00000503,0.00000063,0.00000030,
 0.00000237,0.00000174,0.00000017,0.00000271,-0.00000123,-0.00000011,-0
 .00000085,0.00000028,-0.00000708,-0.00000080,0.00000013,-0.00000009,-0
 .00000070,-0.00000024,-0.00024908,0.00003171,-0.00063557,0.00005449,-0
 .00000311,-0.00013621,-0.00009217,0.00215148,0.00043374,-0.03099175,-0
 .08305282,-0.03449572,-0.00003082,-0.00010169,0.00000501,0.00145761,-0
 .00758708,-0.00103147,0.00001473,-0.00111501,0.00019298,0.00052232,-0.
 00058061,-0.00085004,0.03050569,-0.00037013,0.04283608,0.02002667,0.09
 139629,0.00034683,-0.00006845,0.00056272,-0.00106825,-0.00015501,0.000
 14270,0.00080648,0.00045444,0.00000769,-0.00025294,-0.00026821,-0.0000
 0007,-0.00040614,0.00011441,0.00001085,0.00009521,0.00004194,-0.000008
 93,-0.00001605,-0.00002081,-0.00000193,-0.00000223,0.00001401,0.000001
 09,-0.00058155,-0.00240439,0.00000810,-0.01202061,-0.00427922,-0.00649
 363,-0.00078677,0.00090961,0.00024540,-0.00049258,-0.00056050,0.000575
 87,-0.00010721,-0.00034916,-0.00005435,0.00002703,-0.00007152,-0.00002
 766,-0.00001688,-0.00000394,-0.00000022,-0.00001792,-0.00000521,0.0000
 0125,-0.00000002,0.00000307,0.00000173,0.00000049,0.00000124,-0.000000
 20,-0.00000078,-0.00000119,0.00000070,-0.00000584,-0.00000067,-0.00000
 023,0.00000015,-0.00000020,-0.00000006,0.00020507,-0.00008628,-0.00041
 717,0.00003346,-0.00003363,-0.00008524,-0.00166765,0.00073606,-0.00172
 568,-0.08456825,-0.03844570,-0.17718067,-0.00014312,-0.00012821,0.0000
 4942,0.00076783,0.00037895,0.00110049,0.00036329,-0.00040205,0.0002543
 2,0.00026716,-0.00066456,0.00019956,-0.03920469,0.03058810,-0.04498066
 ,0.13644545,0.04553227,0.30683067,-0.00014643,0.00014893,-0.00185238,-
 0.00197526,-0.00054027,0.00002877,0.00141721,0.00081219,0.00000338,-0.
 00047832,-0.00046918,-0.00002524,-0.00075644,0.00019107,0.00002886,0.0
 0018296,0.00008734,0.00000908,-0.00003196,-0.00003862,-0.00000040,-0.0
 0000318,0.00002457,0.00000050,-0.00131242,-0.00664883,0.00254916,-0.02
 979356,0.01376351,0.03225809,0.00046515,0.00196628,-0.00121979,-0.0011
 4109,-0.00052805,-0.00070226,-0.00042321,-0.00062714,0.00031310,0.0000
 5872,-0.00013957,-0.00001644,-0.00003280,-0.00000865,-0.00000199,-0.00
 003253,-0.00000785,0.00000157,0.00000089,0.00000344,0.00000134,0.00000
 087,0.00000423,-0.00000125,-0.00000065,-0.00000126,0.00000076,-0.00001
 114,-0.00000125,0.00000015,-0.00000073,-0.00000149,-0.00000110,0.00062
 127,0.00028185,0.00064332,0.00014985,-0.00004540,0.00014433,-0.0047656
 3,-0.00196621,0.00210280,-0.17243052,0.02651530,0.09249204,-0.00011631
 ,-0.00016782,0.00004554,0.00205536,0.00266900,-0.00168324,0.00075103,-
 0.00002419,-0.00019668,0.00152882,0.00051667,-0.00098811,-0.02586706,0
 .04584081,0.01340385,0.01972295,0.00081302,0.00200103,0.21236414,-0.00
 036059,-0.00007893,-0.00041128,-0.00079797,-0.00009020,-0.00000274,0.0
 0047874,0.00028617,-0.00004508,-0.00013384,-0.00016130,0.00000172,-0.0
 0024441,0.00007268,0.00001201,0.00005673,0.00002373,0.00000701,-0.0000
 0968,-0.00001340,0.00000055,-0.00000138,0.00000822,-0.00000034,-0.0006
 2597,-0.00228194,0.00101431,-0.01237087,0.01163621,0.00788096,0.000692
 49,0.00034765,-0.00052847,0.00058208,0.00068604,0.00008349,-0.00055636
 ,0.00038656,0.00010697,-0.00000917,-0.00005818,0.00000909,-0.00001027,
 -0.00000251,-0.00000003,-0.00001099,-0.00000245,0.00000035,0.,0.000001
 38,0.00000116,-0.00000005,0.00000128,-0.00000109,-0.00000003,-0.000000
 40,-0.00000001,-0.00000359,-0.00000043,-0.00000001,0.00000013,-0.00000
 037,0.,-0.00026314,0.00022540,0.00017939,-0.00001098,0.00002657,-0.000
 02534,0.00235714,0.00298414,-0.00218488,0.03268613,-0.08272130,-0.0320
 8713,0.00005002,-0.00000523,-0.00002437,0.00069886,-0.00521574,0.00482
 971,-0.00033200,-0.00108393,0.00054750,-0.00063123,-0.00795224,0.00050
 752,0.05522936,-0.04690062,-0.02608154,0.00596326,-0.00009039,-0.03082
 518,-0.08242239,0.12997351,0.00000278,-0.00093577,0.00053184,0.0013425
 5,0.00039351,-0.00006493,-0.00087316,-0.00056174,-0.00002689,0.0002689
 8,0.00031861,0.00001852,0.00046004,-0.00010630,-0.00001549,-0.00010894
 ,-0.00005411,0.00000053,0.00001981,0.00002416,-0.00000022,0.00000217,-
 0.00001521,-0.00000066,0.00190475,0.00462047,-0.00155242,0.01884373,-0
 .01018081,-0.00747395,-0.00066742,-0.00150830,0.00109017,0.00055764,0.
 00039557,0.00003842,0.00001583,0.00043149,-0.00010981,-0.00004408,0.00
 009191,0.00000757,0.00002021,0.00000559,0.00000174,0.00001922,0.000004
 57,-0.00000089,-0.00000060,-0.00000166,-0.00000038,-0.00000041,-0.0000
 0306,0.00000091,0.00000015,0.00000055,-0.00000038,0.00000667,0.0000008
 1,-0.00000028,0.00000081,0.00000108,0.00000090,-0.00022653,-0.00004259
 ,-0.00007260,-0.00005838,0.00004502,-0.00002960,0.00072748,-0.00004949
 ,-0.00353931,0.09519867,-0.02533243,-0.14933619,0.00006147,0.00008497,
 -0.00005482,-0.00096317,0.00451097,-0.00250225,-0.00015183,0.00043357,
 0.00027752,-0.00086199,-0.00151391,0.00171558,0.00710775,-0.01589732,0
 .01301664,0.01673458,-0.03219591,-0.07901588,-0.13933879,0.07703576,0.
 22709662\\-0.00000270,0.00000171,-0.00000056,0.00000339,0.00000362,0.0
 0000073,0.00000336,-0.00000520,0.00000148,0.00000306,-0.00000018,0.000
 00256,-0.00000274,0.00000380,-0.00000222,-0.00000493,-0.00000179,0.000
 00851,0.00000362,-0.00000343,0.00000459,-0.00000146,-0.00000320,0.0000
 0343,-0.00000041,-0.00000057,-0.00000452,-0.00000191,0.00000018,-0.000
 00170,0.00000245,0.00000273,-0.00000122,0.00000267,0.00000057,-0.00000
 174,-0.00000024,-0.00000102,0.00000204,0.00000025,-0.00000181,0.000000
 03,0.00000092,-0.00000064,0.00000416,0.00000158,-0.00000241,0.00000455
 ,0.00000008,0.00000018,0.00000115,-0.00000329,-0.00000278,0.00000418,0
 .00000162,-0.00000191,0.00000623,-0.00000001,-0.00000352,0.00000642,-0
 .00000155,-0.00000327,0.00000873,-0.00000169,0.00000090,-0.00000303,0.
 00000082,0.00000103,0.00000008,0.00000025,0.00000462,-0.00000567,0.000
 00012,-0.00000139,-0.00001017,0.00000127,0.00000126,-0.00000090,0.0000
 0096,0.00000194,-0.00000474,0.00000213,0.00000295,-0.00000496,-0.00000
 157,-0.00000253,-0.00000155,-0.00000245,0.00000236,-0.00000610,0.00000
 086,0.00000448,-0.00000568,-0.00000444,0.00000333,-0.00000410\\\@


 LORD, MAN... WERE YE BUT WHYLES WHERE I AM, 
 THE GENTILES YE WAD NE'ER ENVY 'EM.        
 IT'S TRUE, THEY NEEDNA STARVE OR SWEAT,     
 THRO' WINTER'S CAULD OR SIMMER'S HEAT...  
 THEY'VE NAE SAIR WARK TO CRAZE THEIR BANES, 
 AND FILL AULD AGE WITH GRIPS AN' GRANES...  
                                             
 BUT HUMAN BODIES ARE SIC FOOLS              
 FOR A' THEIR COLLEGES AND SCHOOLS,           
 THAT WHEN NAE REAL ILLS PERPLEX THEM,       
 THEY MAK ENOW THEMSELVES TO VEX THEM,       
 AN' AYE THE LESS THEY HAE TO STURT THEM,    
 IN LIKE PROPORTION LESS WILL HURT THEM....  
                                             
                (ROBERT BURNS 'THE TWA DOGS')
 Job cpu time:       0 days  6 hours 24 minutes 12.4 seconds.
 File lengths (MBytes):  RWF=    905 Int=      0 D2E=      0 Chk=     26 Scr=      1
 Normal termination of Gaussian 09 at Thu Nov 14 17:37:19 2019.
pbs_rusage has been removed.
Please contact help@nci.org.au if you require this functionality.
