 Entering Gaussian System, Link 0=/apps/gaussian/g09e01/g09/g09
 Initial command:
 /apps/gaussian/g09e01/g09/l1.exe "/jobfs/local/3595002.r-man2/Gau-29321.inp" -scrdir="/jobfs/local/3595002.r-man2/"
 Entering Link 1 = /apps/gaussian/g09e01/g09/l1.exe PID=     29322.
  
 Copyright (c) 1988,1990,1992,1993,1995,1998,2003,2009,2015,
            Gaussian, Inc.  All Rights Reserved.
  
 This is part of the Gaussian(R) 09 program.  It is based on
 the Gaussian(R) 03 system (copyright 2003, Gaussian, Inc.),
 the Gaussian(R) 98 system (copyright 1998, Gaussian, Inc.),
 the Gaussian(R) 94 system (copyright 1995, Gaussian, Inc.),
 the Gaussian 92(TM) system (copyright 1992, Gaussian, Inc.),
 the Gaussian 90(TM) system (copyright 1990, Gaussian, Inc.),
 the Gaussian 88(TM) system (copyright 1988, Gaussian, Inc.),
 the Gaussian 86(TM) system (copyright 1986, Carnegie Mellon
 University), and the Gaussian 82(TM) system (copyright 1983,
 Carnegie Mellon University). Gaussian is a federally registered
 trademark of Gaussian, Inc.
  
 This software contains proprietary and confidential information,
 including trade secrets, belonging to Gaussian, Inc.
  
 This software is provided under written license and may be
 used, copied, transmitted, or stored only in accord with that
 written license.
  
 The following legend is applicable only to US Government
 contracts under FAR:
  
                    RESTRICTED RIGHTS LEGEND
  
 Use, reproduction and disclosure by the US Government is
 subject to restrictions as set forth in subparagraphs (a)
 and (c) of the Commercial Computer Software - Restricted
 Rights clause in FAR 52.227-19.
  
 Gaussian, Inc.
 340 Quinnipiac St., Bldg. 40, Wallingford CT 06492
  
  
 ---------------------------------------------------------------
 Warning -- This program may not be used in any manner that
 competes with the business of Gaussian, Inc. or will provide
 assistance to any competitor of Gaussian, Inc.  The licensee
 of this program is prohibited from giving any competitor of
 Gaussian, Inc. access to this program.  By using this program,
 the user acknowledges that Gaussian, Inc. is engaged in the
 business of creating and licensing software in the field of
 computational chemistry and represents and warrants to the
 licensee that it is not a competitor of Gaussian, Inc. and that
 it will not use this program in any manner prohibited above.
 ---------------------------------------------------------------
  

 Cite this work as:
 Gaussian 09, Revision E.01,
 M. J. Frisch, G. W. Trucks, H. B. Schlegel, G. E. Scuseria, 
 M. A. Robb, J. R. Cheeseman, G. Scalmani, V. Barone, B. Mennucci, 
 G. A. Petersson, H. Nakatsuji, M. Caricato, X. Li, H. P. Hratchian, 
 A. F. Izmaylov, J. Bloino, G. Zheng, J. L. Sonnenberg, M. Hada, 
 M. Ehara, K. Toyota, R. Fukuda, J. Hasegawa, M. Ishida, T. Nakajima, 
 Y. Honda, O. Kitao, H. Nakai, T. Vreven, J. A. Montgomery, Jr., 
 J. E. Peralta, F. Ogliaro, M. Bearpark, J. J. Heyd, E. Brothers, 
 K. N. Kudin, V. N. Staroverov, T. Keith, R. Kobayashi, J. Normand, 
 K. Raghavachari, A. Rendell, J. C. Burant, S. S. Iyengar, J. Tomasi, 
 M. Cossi, N. Rega, J. M. Millam, M. Klene, J. E. Knox, J. B. Cross, 
 V. Bakken, C. Adamo, J. Jaramillo, R. Gomperts, R. E. Stratmann, 
 O. Yazyev, A. J. Austin, R. Cammi, C. Pomelli, J. W. Ochterski, 
 R. L. Martin, K. Morokuma, V. G. Zakrzewski, G. A. Voth, 
 P. Salvador, J. J. Dannenberg, S. Dapprich, A. D. Daniels, 
 O. Farkas, J. B. Foresman, J. V. Ortiz, J. Cioslowski, 
 and D. J. Fox, Gaussian, Inc., Wallingford CT, 2013.
 
 ******************************************
 Gaussian 09:  ES64L-G09RevE.01 30-Nov-2015
                14-Nov-2019 
 ******************************************
 %chk=29_carboxy.M062X_6-311pGd_opt_GD3.chk
 %mem=196608000
 %nproc=8
 Will use up to    8 processors via shared memory.
 ----------------------------------------------------------------------
 # M062X/6-311+G* SCF=Tight INT(grid=ultrafine) OPT IOP(2/17=4) Empiric
 alDispersion=GD3 maxdisk=2684354560
 ----------------------------------------------------------------------
 1/14=-1,18=20,19=15,26=4,38=1/1,3;
 2/9=110,12=2,17=4,18=5,40=1/2;
 3/5=4,6=6,7=11,11=2,16=1,25=1,30=1,71=1,74=-55,75=-5,124=31/1,2,3;
 4//1;
 5/5=2,32=2,38=5/2;
 6/7=2,8=2,9=2,10=2,28=1/1;
 7//1,2,3,16;
 1/14=-1,18=20,19=15,26=4/3(2);
 2/9=110,17=4/2;
 99//99;
 2/9=110,17=4/2;
 3/5=4,6=6,7=11,11=2,16=1,25=1,30=1,71=1,74=-55,75=-5,124=31/1,2,3;
 4/5=5,16=3,69=1/1;
 5/5=2,32=2,38=5/2;
 7//1,2,3,16;
 1/14=-1,18=20,19=15,26=4/3(-5);
 2/9=110,17=4/2;
 6/7=2,8=2,9=2,10=2,19=2,28=1/1;
 99/9=1/99;
 ---------------------------------
 29_carboxy.M062X_6-311pGd_opt_GD3
 ---------------------------------
 Symbolic Z-matrix:
 Charge = -1 Multiplicity = 1
 C                    -6.1461    1.27865   0.5409 
 N                    -4.86395   0.77374   0.55223 
 C                    -3.69886   1.42979   0.18027 
 O                    -3.66299   2.58989  -0.2173 
 N                    -2.59988   0.64936   0.31378 
 C                    -1.3052    1.13026  -0.11035 
 C                    -0.21303   0.21151   0.42321 
 C                     1.17041   0.64569  -0.05017 
 C                    -6.49191   2.58522   0.16004 
 C                    -7.8221    2.99569   0.18795 
 C                    -8.82576   2.11917   0.5937 
 C                    -8.49117   0.82502   0.97092 
 C                    -7.17352   0.40663   0.94616 
 H                    -4.78578  -0.2132    0.86337 
 H                    -2.69131  -0.34966   0.54987 
 H                    -1.16511   2.15186   0.25559 
 H                    -1.248     1.18302  -1.20706 
 H                    -0.42203  -0.81567   0.10993 
 H                    -0.25948   0.2079    1.51638 
 H                     1.23842   0.62214  -1.14157 
 H                     1.95204  -0.00759   0.34445 
 H                     1.39603   1.66698   0.27089 
 H                    -5.71569   3.26572  -0.15462 
 C                    -8.15424   4.4021   -0.22731 
 Cl                   -10.51042   2.59467   0.64602 
 H                    -9.27412   0.14507   1.28507 
 H                    -6.90753  -0.60475   1.23862 
 F                    -8.99814   4.44082  -1.27564 
 F                    -8.74243   5.10272   0.76067 
 F                    -7.06937   5.0986   -0.58988 
 O                    -4.90985  -1.87329   1.37868 
 O                    -2.72979  -2.11186   0.93557 
 C                    -3.84611  -2.54041   1.30139 
 C                    -3.95552  -4.02066   1.69915 
 C                    -2.64595  -4.7916    1.61062 
 H                    -4.72208  -4.46833   1.05866 
 H                    -4.36585  -4.05085   2.71335 
 H                    -2.24878  -4.76232   0.59468 
 H                    -2.77785  -5.83807   1.90278 
 H                    -1.88963  -4.34356   2.25729 
 
 Add virtual bond connecting atoms O31        and H14        Dist= 3.29D+00.
 Add virtual bond connecting atoms O32        and H15        Dist= 3.41D+00.

 GradGradGradGradGradGradGradGradGradGradGradGradGradGradGradGradGradGrad
 Berny optimization.
 Initialization pass.
                           ----------------------------
                           !    Initial Parameters    !
                           ! (Angstroms and Degrees)  !
 --------------------------                            --------------------------
 ! Name  Definition              Value          Derivative Info.                !
 --------------------------------------------------------------------------------
 ! R1    R(1,2)                  1.378          estimate D2E/DX2                !
 ! R2    R(1,9)                  1.4042         estimate D2E/DX2                !
 ! R3    R(1,13)                 1.4072         estimate D2E/DX2                !
 ! R4    R(2,3)                  1.3879         estimate D2E/DX2                !
 ! R5    R(2,14)                 1.0378         estimate D2E/DX2                !
 ! R6    R(3,4)                  1.2269         estimate D2E/DX2                !
 ! R7    R(3,5)                  1.3545         estimate D2E/DX2                !
 ! R8    R(5,6)                  1.4448         estimate D2E/DX2                !
 ! R9    R(5,15)                 1.0306         estimate D2E/DX2                !
 ! R10   R(6,7)                  1.5237         estimate D2E/DX2                !
 ! R11   R(6,16)                 1.0942         estimate D2E/DX2                !
 ! R12   R(6,17)                 1.0995         estimate D2E/DX2                !
 ! R13   R(7,8)                  1.5253         estimate D2E/DX2                !
 ! R14   R(7,18)                 1.094          estimate D2E/DX2                !
 ! R15   R(7,19)                 1.0942         estimate D2E/DX2                !
 ! R16   R(8,20)                 1.0938         estimate D2E/DX2                !
 ! R17   R(8,21)                 1.0924         estimate D2E/DX2                !
 ! R18   R(8,22)                 1.0941         estimate D2E/DX2                !
 ! R19   R(9,10)                 1.3924         estimate D2E/DX2                !
 ! R20   R(9,23)                 1.0792         estimate D2E/DX2                !
 ! R21   R(10,11)                1.3929         estimate D2E/DX2                !
 ! R22   R(10,24)                1.5036         estimate D2E/DX2                !
 ! R23   R(11,12)                1.3889         estimate D2E/DX2                !
 ! R24   R(11,25)                1.7513         estimate D2E/DX2                !
 ! R25   R(12,13)                1.3827         estimate D2E/DX2                !
 ! R26   R(12,26)                1.0835         estimate D2E/DX2                !
 ! R27   R(13,27)                1.0859         estimate D2E/DX2                !
 ! R28   R(14,31)                1.7427         estimate D2E/DX2                !
 ! R29   R(15,32)                1.8043         estimate D2E/DX2                !
 ! R30   R(24,28)                1.3464         estimate D2E/DX2                !
 ! R31   R(24,29)                1.3465         estimate D2E/DX2                !
 ! R32   R(24,30)                1.3392         estimate D2E/DX2                !
 ! R33   R(31,33)                1.258          estimate D2E/DX2                !
 ! R34   R(32,33)                1.2505         estimate D2E/DX2                !
 ! R35   R(33,34)                1.5367         estimate D2E/DX2                !
 ! R36   R(34,35)                1.5222         estimate D2E/DX2                !
 ! R37   R(34,36)                1.0946         estimate D2E/DX2                !
 ! R38   R(34,37)                1.0945         estimate D2E/DX2                !
 ! R39   R(35,38)                1.0912         estimate D2E/DX2                !
 ! R40   R(35,39)                1.0945         estimate D2E/DX2                !
 ! R41   R(35,40)                1.0913         estimate D2E/DX2                !
 ! A1    A(2,1,9)              124.9096         estimate D2E/DX2                !
 ! A2    A(2,1,13)             116.737          estimate D2E/DX2                !
 ! A3    A(9,1,13)             118.3534         estimate D2E/DX2                !
 ! A4    A(1,2,3)              127.2774         estimate D2E/DX2                !
 ! A5    A(1,2,14)             114.8976         estimate D2E/DX2                !
 ! A6    A(3,2,14)             117.818          estimate D2E/DX2                !
 ! A7    A(2,3,4)              123.9431         estimate D2E/DX2                !
 ! A8    A(2,3,5)              112.4786         estimate D2E/DX2                !
 ! A9    A(4,3,5)              123.5767         estimate D2E/DX2                !
 ! A10   A(3,5,6)              120.4206         estimate D2E/DX2                !
 ! A11   A(3,5,15)             120.606          estimate D2E/DX2                !
 ! A12   A(6,5,15)             117.9954         estimate D2E/DX2                !
 ! A13   A(5,6,7)              109.8053         estimate D2E/DX2                !
 ! A14   A(5,6,16)             109.1072         estimate D2E/DX2                !
 ! A15   A(5,6,17)             110.8197         estimate D2E/DX2                !
 ! A16   A(7,6,16)             110.7378         estimate D2E/DX2                !
 ! A17   A(7,6,17)             109.9339         estimate D2E/DX2                !
 ! A18   A(16,6,17)            106.3883         estimate D2E/DX2                !
 ! A19   A(6,7,8)              111.7042         estimate D2E/DX2                !
 ! A20   A(6,7,18)             109.203          estimate D2E/DX2                !
 ! A21   A(6,7,19)             108.7487         estimate D2E/DX2                !
 ! A22   A(8,7,18)             110.5885         estimate D2E/DX2                !
 ! A23   A(8,7,19)             110.4583         estimate D2E/DX2                !
 ! A24   A(18,7,19)            105.9552         estimate D2E/DX2                !
 ! A25   A(7,8,20)             111.0971         estimate D2E/DX2                !
 ! A26   A(7,8,21)             111.5068         estimate D2E/DX2                !
 ! A27   A(7,8,22)             111.2033         estimate D2E/DX2                !
 ! A28   A(20,8,21)            107.6428         estimate D2E/DX2                !
 ! A29   A(20,8,22)            107.4627         estimate D2E/DX2                !
 ! A30   A(21,8,22)            107.7383         estimate D2E/DX2                !
 ! A31   A(1,9,10)             120.2739         estimate D2E/DX2                !
 ! A32   A(1,9,23)             119.2547         estimate D2E/DX2                !
 ! A33   A(10,9,23)            120.4714         estimate D2E/DX2                !
 ! A34   A(9,10,11)            120.5771         estimate D2E/DX2                !
 ! A35   A(9,10,24)            118.767          estimate D2E/DX2                !
 ! A36   A(11,10,24)           120.6559         estimate D2E/DX2                !
 ! A37   A(10,11,12)           119.4635         estimate D2E/DX2                !
 ! A38   A(10,11,25)           122.0717         estimate D2E/DX2                !
 ! A39   A(12,11,25)           118.4648         estimate D2E/DX2                !
 ! A40   A(11,12,13)           120.4406         estimate D2E/DX2                !
 ! A41   A(11,12,26)           119.3005         estimate D2E/DX2                !
 ! A42   A(13,12,26)           120.2589         estimate D2E/DX2                !
 ! A43   A(1,13,12)            120.8914         estimate D2E/DX2                !
 ! A44   A(1,13,27)            118.4166         estimate D2E/DX2                !
 ! A45   A(12,13,27)           120.6919         estimate D2E/DX2                !
 ! A46   A(10,24,28)           112.3593         estimate D2E/DX2                !
 ! A47   A(10,24,29)           112.3687         estimate D2E/DX2                !
 ! A48   A(10,24,30)           112.4759         estimate D2E/DX2                !
 ! A49   A(28,24,29)           106.4131         estimate D2E/DX2                !
 ! A50   A(28,24,30)           106.3797         estimate D2E/DX2                !
 ! A51   A(29,24,30)           106.3736         estimate D2E/DX2                !
 ! A52   A(14,31,33)           115.2647         estimate D2E/DX2                !
 ! A53   A(15,32,33)           114.6003         estimate D2E/DX2                !
 ! A54   A(31,33,32)           126.2358         estimate D2E/DX2                !
 ! A55   A(31,33,34)           115.7674         estimate D2E/DX2                !
 ! A56   A(32,33,34)           117.9968         estimate D2E/DX2                !
 ! A57   A(33,34,35)           114.3025         estimate D2E/DX2                !
 ! A58   A(33,34,36)           106.9996         estimate D2E/DX2                !
 ! A59   A(33,34,37)           107.0453         estimate D2E/DX2                !
 ! A60   A(35,34,36)           111.18           estimate D2E/DX2                !
 ! A61   A(35,34,37)           111.2508         estimate D2E/DX2                !
 ! A62   A(36,34,37)           105.5675         estimate D2E/DX2                !
 ! A63   A(34,35,38)           110.7123         estimate D2E/DX2                !
 ! A64   A(34,35,39)           111.41           estimate D2E/DX2                !
 ! A65   A(34,35,40)           110.7221         estimate D2E/DX2                !
 ! A66   A(38,35,39)           108.5456         estimate D2E/DX2                !
 ! A67   A(38,35,40)           106.7643         estimate D2E/DX2                !
 ! A68   A(39,35,40)           108.5352         estimate D2E/DX2                !
 ! A69   L(2,14,31,7,-1)       188.3694         estimate D2E/DX2                !
 ! A70   L(5,15,32,7,-1)       176.133          estimate D2E/DX2                !
 ! A71   L(2,14,31,7,-2)       180.7961         estimate D2E/DX2                !
 ! A72   L(5,15,32,7,-2)       180.9894         estimate D2E/DX2                !
 ! D1    D(9,1,2,3)             -1.0976         estimate D2E/DX2                !
 ! D2    D(9,1,2,14)           179.8968         estimate D2E/DX2                !
 ! D3    D(13,1,2,3)           178.9988         estimate D2E/DX2                !
 ! D4    D(13,1,2,14)           -0.0068         estimate D2E/DX2                !
 ! D5    D(2,1,9,10)          -179.8615         estimate D2E/DX2                !
 ! D6    D(2,1,9,23)             0.1824         estimate D2E/DX2                !
 ! D7    D(13,1,9,10)            0.0407         estimate D2E/DX2                !
 ! D8    D(13,1,9,23)         -179.9154         estimate D2E/DX2                !
 ! D9    D(2,1,13,12)          179.8274         estimate D2E/DX2                !
 ! D10   D(2,1,13,27)           -0.235          estimate D2E/DX2                !
 ! D11   D(9,1,13,12)           -0.0828         estimate D2E/DX2                !
 ! D12   D(9,1,13,27)          179.8548         estimate D2E/DX2                !
 ! D13   D(1,2,3,4)              0.2499         estimate D2E/DX2                !
 ! D14   D(1,2,3,5)            179.802          estimate D2E/DX2                !
 ! D15   D(14,2,3,4)           179.23           estimate D2E/DX2                !
 ! D16   D(14,2,3,5)            -1.2179         estimate D2E/DX2                !
 ! D17   D(1,2,31,33)          171.934          estimate D2E/DX2                !
 ! D18   D(3,2,31,33)           -6.3655         estimate D2E/DX2                !
 ! D19   D(2,3,5,6)            175.8231         estimate D2E/DX2                !
 ! D20   D(2,3,5,15)             7.3624         estimate D2E/DX2                !
 ! D21   D(4,3,5,6)             -4.6229         estimate D2E/DX2                !
 ! D22   D(4,3,5,15)          -173.0836         estimate D2E/DX2                !
 ! D23   D(3,5,6,7)            167.4555         estimate D2E/DX2                !
 ! D24   D(3,5,6,16)            45.9183         estimate D2E/DX2                !
 ! D25   D(3,5,6,17)           -70.9014         estimate D2E/DX2                !
 ! D26   D(15,5,6,7)           -23.7885         estimate D2E/DX2                !
 ! D27   D(15,5,6,16)         -145.3258         estimate D2E/DX2                !
 ! D28   D(15,5,6,17)           97.8545         estimate D2E/DX2                !
 ! D29   D(3,5,32,33)          -11.4446         estimate D2E/DX2                !
 ! D30   D(6,5,32,33)         -179.8618         estimate D2E/DX2                !
 ! D31   D(5,6,7,8)            177.5288         estimate D2E/DX2                !
 ! D32   D(5,6,7,18)            54.8846         estimate D2E/DX2                !
 ! D33   D(5,6,7,19)           -60.3049         estimate D2E/DX2                !
 ! D34   D(16,6,7,8)           -61.9158         estimate D2E/DX2                !
 ! D35   D(16,6,7,18)          175.44           estimate D2E/DX2                !
 ! D36   D(16,6,7,19)           60.2505         estimate D2E/DX2                !
 ! D37   D(17,6,7,8)            55.3573         estimate D2E/DX2                !
 ! D38   D(17,6,7,18)          -67.2869         estimate D2E/DX2                !
 ! D39   D(17,6,7,19)          177.5236         estimate D2E/DX2                !
 ! D40   D(6,7,8,20)           -60.6413         estimate D2E/DX2                !
 ! D41   D(6,7,8,21)           179.2796         estimate D2E/DX2                !
 ! D42   D(6,7,8,22)            59.0069         estimate D2E/DX2                !
 ! D43   D(18,7,8,20)           61.2081         estimate D2E/DX2                !
 ! D44   D(18,7,8,21)          -58.8711         estimate D2E/DX2                !
 ! D45   D(18,7,8,22)         -179.1438         estimate D2E/DX2                !
 ! D46   D(19,7,8,20)          178.1793         estimate D2E/DX2                !
 ! D47   D(19,7,8,21)           58.1002         estimate D2E/DX2                !
 ! D48   D(19,7,8,22)          -62.1726         estimate D2E/DX2                !
 ! D49   D(1,9,10,11)            0.0442         estimate D2E/DX2                !
 ! D50   D(1,9,10,24)         -179.9814         estimate D2E/DX2                !
 ! D51   D(23,9,10,11)         179.9998         estimate D2E/DX2                !
 ! D52   D(23,9,10,24)          -0.0258         estimate D2E/DX2                !
 ! D53   D(9,10,11,12)          -0.0882         estimate D2E/DX2                !
 ! D54   D(9,10,11,25)         179.9057         estimate D2E/DX2                !
 ! D55   D(24,10,11,12)        179.9378         estimate D2E/DX2                !
 ! D56   D(24,10,11,25)         -0.0682         estimate D2E/DX2                !
 ! D57   D(9,10,24,28)         120.2674         estimate D2E/DX2                !
 ! D58   D(9,10,24,29)        -119.7543         estimate D2E/DX2                !
 ! D59   D(9,10,24,30)           0.256          estimate D2E/DX2                !
 ! D60   D(11,10,24,28)        -59.7582         estimate D2E/DX2                !
 ! D61   D(11,10,24,29)         60.2201         estimate D2E/DX2                !
 ! D62   D(11,10,24,30)       -179.7696         estimate D2E/DX2                !
 ! D63   D(10,11,12,13)          0.0463         estimate D2E/DX2                !
 ! D64   D(10,11,12,26)       -179.9348         estimate D2E/DX2                !
 ! D65   D(25,11,12,13)       -179.9479         estimate D2E/DX2                !
 ! D66   D(25,11,12,26)          0.0711         estimate D2E/DX2                !
 ! D67   D(11,12,13,1)           0.0398         estimate D2E/DX2                !
 ! D68   D(11,12,13,27)       -179.8964         estimate D2E/DX2                !
 ! D69   D(26,12,13,1)        -179.9794         estimate D2E/DX2                !
 ! D70   D(26,12,13,27)          0.0845         estimate D2E/DX2                !
 ! D71   D(14,31,33,32)          2.3365         estimate D2E/DX2                !
 ! D72   D(14,31,33,34)       -177.6282         estimate D2E/DX2                !
 ! D73   D(15,32,33,31)          2.2379         estimate D2E/DX2                !
 ! D74   D(15,32,33,34)       -177.7981         estimate D2E/DX2                !
 ! D75   D(31,33,34,35)       -179.2455         estimate D2E/DX2                !
 ! D76   D(31,33,34,36)         57.2091         estimate D2E/DX2                !
 ! D77   D(31,33,34,37)        -55.5752         estimate D2E/DX2                !
 ! D78   D(32,33,34,35)          0.7867         estimate D2E/DX2                !
 ! D79   D(32,33,34,36)       -122.7586         estimate D2E/DX2                !
 ! D80   D(32,33,34,37)        124.4571         estimate D2E/DX2                !
 ! D81   D(33,34,35,38)        -59.0583         estimate D2E/DX2                !
 ! D82   D(33,34,35,39)       -179.9554         estimate D2E/DX2                !
 ! D83   D(33,34,35,40)         59.154          estimate D2E/DX2                !
 ! D84   D(36,34,35,38)         62.207          estimate D2E/DX2                !
 ! D85   D(36,34,35,39)        -58.6901         estimate D2E/DX2                !
 ! D86   D(36,34,35,40)       -179.5807         estimate D2E/DX2                !
 ! D87   D(37,34,35,38)        179.5619         estimate D2E/DX2                !
 ! D88   D(37,34,35,39)         58.6648         estimate D2E/DX2                !
 ! D89   D(37,34,35,40)        -62.2258         estimate D2E/DX2                !
 --------------------------------------------------------------------------------
 Trust Radius=3.00D-01 FncErr=1.00D-07 GrdErr=1.00D-06
 Number of steps in this run=    212 maximum allowed number of steps=    240.
 GradGradGradGradGradGradGradGradGradGradGradGradGradGradGradGradGradGrad

                          Input orientation:                          
 ---------------------------------------------------------------------
 Center     Atomic      Atomic             Coordinates (Angstroms)
 Number     Number       Type             X           Y           Z
 ---------------------------------------------------------------------
      1          6           0       -6.146102    1.278652    0.540901
      2          7           0       -4.863945    0.773744    0.552228
      3          6           0       -3.698855    1.429789    0.180268
      4          8           0       -3.662987    2.589889   -0.217299
      5          7           0       -2.599885    0.649360    0.313785
      6          6           0       -1.305204    1.130264   -0.110349
      7          6           0       -0.213028    0.211511    0.423214
      8          6           0        1.170413    0.645689   -0.050168
      9          6           0       -6.491907    2.585221    0.160035
     10          6           0       -7.822100    2.995689    0.187951
     11          6           0       -8.825755    2.119167    0.593704
     12          6           0       -8.491167    0.825018    0.970919
     13          6           0       -7.173519    0.406634    0.946159
     14          1           0       -4.785775   -0.213198    0.863367
     15          1           0       -2.691309   -0.349664    0.549865
     16          1           0       -1.165110    2.151858    0.255593
     17          1           0       -1.247996    1.183022   -1.207064
     18          1           0       -0.422029   -0.815666    0.109927
     19          1           0       -0.259485    0.207895    1.516383
     20          1           0        1.238420    0.622145   -1.141572
     21          1           0        1.952036   -0.007593    0.344449
     22          1           0        1.396030    1.666978    0.270889
     23          1           0       -5.715690    3.265724   -0.154621
     24          6           0       -8.154244    4.402097   -0.227313
     25         17           0      -10.510423    2.594667    0.646025
     26          1           0       -9.274119    0.145068    1.285073
     27          1           0       -6.907531   -0.604747    1.238620
     28          9           0       -8.998144    4.440819   -1.275643
     29          9           0       -8.742432    5.102722    0.760666
     30          9           0       -7.069374    5.098604   -0.589877
     31          8           0       -4.909852   -1.873290    1.378680
     32          8           0       -2.729788   -2.111858    0.935568
     33          6           0       -3.846109   -2.540406    1.301386
     34          6           0       -3.955525   -4.020658    1.699145
     35          6           0       -2.645946   -4.791601    1.610620
     36          1           0       -4.722081   -4.468334    1.058657
     37          1           0       -4.365850   -4.050850    2.713345
     38          1           0       -2.248782   -4.762317    0.594684
     39          1           0       -2.777849   -5.838066    1.902784
     40          1           0       -1.889631   -4.343565    2.257294
 ---------------------------------------------------------------------
                    Distance matrix (angstroms):
                    1          2          3          4          5
     1  C    0.000000
     2  N    1.378037   0.000000
     3  C    2.478289   1.387870   0.000000
     4  O    2.908620   2.309297   1.226857   0.000000
     5  N    3.608774   2.279978   1.354486   2.275498   0.000000
     6  C    4.886762   3.637410   2.429761   2.775083   1.444768
     7  C    6.029429   4.686554   3.700570   4.239005   2.429151
     8  C    7.367591   6.065704   4.937376   5.212447   3.787825
     9  C    1.404195   2.466885   3.022676   2.853977   4.349602
    10  C    2.425234   3.717582   4.410584   4.198466   5.726485
    11  C    2.808878   4.184235   5.189535   5.247235   6.403136
    12  C    2.426938   3.651666   4.894602   5.276168   5.930421
    13  C    1.407208   2.371515   3.702260   4.294656   4.623521
    14  H    2.044526   1.037773   2.085048   3.207146   2.413330
    15  H    3.819305   2.445895   2.078029   3.189620   1.030602
    16  H    5.064995   3.958355   2.635702   2.579708   2.078332
    17  H    5.201536   4.041993   2.827065   2.964978   2.103659
    18  H    6.110395   4.738405   3.972985   4.712610   2.632663
    19  H    6.062207   4.738231   3.886836   4.501486   2.668071
    20  H    7.602164   6.334888   5.174576   5.361912   4.105044
    21  H    8.202003   6.863764   5.833146   6.212162   4.599186
    22  H    7.556948   6.329637   5.101208   5.165631   4.123678
    23  H    2.148829   2.726732   2.747805   2.162006   4.095486
    24  C    3.791926   4.959707   5.371334   4.843097   6.725083
    25  Cl   4.559632   5.933571   6.926133   6.901646   8.152988
    26  H    3.409295   4.514635   5.827063   6.302307   6.763366
    27  H    2.147971   2.558831   3.943989   4.780425   4.580821
    28  F    4.629609   5.820665   6.266454   5.745427   7.605207
    29  F    4.627390   5.816025   6.266176   5.750782   7.600199
    30  F    4.089392   4.987257   5.041203   4.246874   6.370927
    31  O    3.487825   2.773431   3.716589   4.901202   3.582416
    32  O    4.829339   3.609471   3.748711   4.930151   2.833339
    33  C    4.522555   3.546945   4.128079   5.353491   3.564132
    34  C    5.850029   5.012678   5.663942   6.888953   5.056288
    35  C    7.088255   6.083814   6.469948   7.672161   5.593564
    36  H    5.943379   5.268395   6.050323   7.250397   5.590111
    37  H    6.024318   5.309919   6.074436   7.292607   5.564935
    38  H    7.189249   6.122815   6.373118   7.530885   5.430325
    39  H    7.990464   7.063415   7.525757   8.735482   6.681562
    40  H    7.257608   6.159598   6.396792   7.572396   5.404718
                    6          7          8          9         10
     6  C    0.000000
     7  C    1.523695   0.000000
     8  C    2.523314   1.525290   0.000000
     9  C    5.393690   6.717744   7.906776   0.000000
    10  C    6.785184   8.105861   9.297553   1.392364   0.000000
    11  C    7.617894   8.823111  10.124677   2.419117   1.392928
    12  C    7.273265   8.318892   9.717042   2.784402   2.402603
    13  C    6.006411   6.982835   8.406606   2.414297   2.774661
    14  H    3.855825   4.613473   6.086741   3.352120   4.469050
    15  H    2.132453   2.544177   4.032823   4.817683   6.135747
    16  H    1.094164   2.167834   2.795836   5.345250   6.710600
    17  H    1.099473   2.161666   2.734197   5.597654   6.960652
    18  H    2.148293   1.094040   2.167270   6.957871   8.324276
    19  H    2.142556   1.094161   2.165722   6.806941   8.168823
    20  H    2.791349   2.173448   1.093775   8.081201   9.460146
    21  H    3.480111   2.177547   1.092444   8.834979  10.226335
    22  H    2.780300   2.175006   1.094080   7.941977   9.313768
    23  H    4.900463   6.319921   7.368440   1.079169   2.151102
    24  C    7.591306   9.002617  10.054413   2.492879   1.503579
    25  Cl   9.351611  10.571917  11.862762   4.047808   2.756398
    26  H    8.149933   9.102230  10.541430   3.867915   3.382022
    27  H    6.017977   6.793198   8.275128   3.392932   3.860503
    28  F    8.455709   9.897042  10.922653   3.433022   2.369301
    29  F    8.476523   9.838117  10.898948   3.429785   2.369515
    30  F    7.014508   8.480538   9.381569   2.685690   2.365135
    31  O    4.922603   5.226802   6.734722   4.885316   5.797066
    32  O    3.692524   3.463327   4.877224   6.067746   7.251042
    33  C    4.682201   4.641499   6.094538   5.880050   6.906272
    34  C    6.068811   5.791851   7.149135   7.241529   8.152499
    35  C    6.310928   5.688599   6.847404   8.444710   9.458247
    36  H    6.662276   6.529648   7.880623   7.327513   8.128953
    37  H    6.647161   6.376391   7.768185   7.421385   8.244816
    38  H    6.009153   5.377050   6.430650   8.495843   9.561065
    39  H    7.401284   6.735340   7.838487   9.369267  10.316023
    40  H    5.992502   5.188791   6.291335   8.578317   9.661315
                   11         12         13         14         15
    11  C    0.000000
    12  C    1.388907   0.000000
    13  C    2.405593   1.382698   0.000000
    14  H    4.672695   3.849596   2.468272   0.000000
    15  H    6.612752   5.932581   4.562811   2.122191   0.000000
    16  H    7.668173   7.479526   6.294734   4.367161   2.945079
    17  H    7.844844   7.572008   6.352242   4.330357   2.742094
    18  H    8.914589   8.279139   6.912013   4.469108   2.358036
    19  H    8.825264   8.272784   6.940355   4.592500   2.675593
    20  H   10.321816   9.958345   8.669821   6.403789   4.387271
    21  H   10.988449  10.495056   9.154747   6.760891   4.660457
    22  H   10.236873   9.947643   8.688016   6.488513   4.566290
    23  H    3.398101   3.863569   3.392843   3.742183   4.765943
    24  C    2.517294   3.787450   4.278153   5.816968   7.281958
    25  Cl   1.751269   2.704553   4.001562   6.379885   8.355649
    26  H    2.139179   1.083530   2.143781   4.522325   6.642189
    27  H    3.393407   2.150301   1.085898   2.189972   4.279718
    28  F    2.985673   4.286966   4.953818   6.631688   8.127569
    29  F    2.989384   4.290232   4.954709   6.627569   8.147947
    30  F    3.655514   4.766668   4.938101   5.961709   7.081673
    31  O    5.647141   4.502549   3.241807   1.742655   2.816079
    32  O    7.428274   6.466837   5.107804   2.799501   1.804321
    33  C    6.856334   5.745594   4.459023   2.547692   2.587991
    34  C    7.914455   6.677046   5.524798   3.985549   4.049109
    35  C    9.326461   8.131558   6.925466   5.108722   4.567063
    36  H    7.775056   6.498713   5.457794   4.260092   4.620211
    37  H    7.902705   6.620300   5.556538   4.280927   4.602555
    38  H    9.519002   8.386133   7.148050   5.215651   4.435014
    39  H   10.080100   8.826497   7.696318   6.062285   5.653355
    40  H    9.625189   8.482292   7.225160   5.233605   4.416927
                   16         17         18         19         20
    16  H    0.000000
    17  H    1.756382   0.000000
    18  H    3.062611   2.532082   0.000000
    19  H    2.487717   3.056990   1.747060   0.000000
    20  H    3.173177   2.549733   2.527972   3.078968   0.000000
    21  H    3.793115   3.750328   2.518763   2.512108   1.764674
    22  H    2.606679   3.067479   3.081358   2.533950   1.763963
    23  H    4.702845   5.040394   6.689587   6.474005   7.504814
    24  C    7.358313   7.682358   9.334128   9.108185  10.165926
    25  Cl   9.363941   9.550876  10.662714  10.561057  12.046645
    26  H    8.416832   8.467984   8.981285   9.017820  10.799523
    27  H    6.445201   6.419333   6.586363   6.703287   8.574795
    28  F    8.303039   8.407303  10.153827  10.103327  10.926459
    29  F    8.147300   8.683466  10.231319   9.822974  11.104570
    30  F    6.652704   7.042808   8.924994   8.644649   9.453174
    31  O    5.611259   5.425523   4.782139   5.096685   7.097895
    32  O    4.592369   4.200335   2.772643   3.438168   5.247472
    33  C    5.504433   5.187141   4.014801   4.523633   6.467009
    34  C    6.926053   6.546377   5.028238   5.619144   7.523454
    35  C    7.227766   6.752017   4.796451   5.540672   7.209127
    36  H    7.558035   7.010034   5.721234   6.480077   8.141349
    37  H    7.399924   7.244587   5.726948   6.035882   8.252583
    38  H    7.006793   6.292450   4.375851   5.432297   6.645871
    39  H    8.315831   7.829896   5.829985   6.560877   8.193463
    40  H    6.835367   6.554131   4.383048   4.891023   6.781981
                   21         22         23         24         25
    21  H    0.000000
    22  H    1.765995   0.000000
    23  H    8.352107   7.301616   0.000000
    24  C   11.041249   9.946699   2.691315   0.000000
    25  Cl  12.734818  11.948428   4.907221   3.095335   0.000000
    26  H   11.266527  10.825749   4.947083   4.654431   2.817333
    27  H    8.924577   8.662930   4.282775   5.363930   4.854714
    28  F   11.929774  10.868524   3.662246   1.346351   3.063995
    29  F   11.860025  10.715998   3.656976   1.346455   3.070712
    30  F   10.408268   9.174968   2.319776   1.339222   4.431475
    31  O    7.185816   7.316066   5.423085   7.244707   7.201793
    32  O    5.166898   5.634161   6.246800   8.556204   9.097994
    33  C    6.399168   6.800295   6.271079   8.312359   8.438694
    34  C    7.269056   7.939033   7.721787   9.606420   9.372208
    35  C    6.755099   7.735999   8.801130  10.873980  10.832239
    36  H    8.059289   8.700225   7.891448   9.597813   9.141179
    37  H    7.866085   8.476934   7.973679   9.718628   9.283991
    38  H    6.349559   7.397657   8.776694  10.933282  11.062665
    39  H    7.667766   8.741283   9.784826  11.760267  11.510131
    40  H    6.100658   7.132180   8.851968  11.041072  11.182723
                   26         27         28         29         30
    26  H    0.000000
    27  H    2.482965   0.000000
    28  F    5.008682   6.012480   0.000000
    29  F    5.013584   6.014192   2.156399   0.000000
    30  F    5.737060   5.991478   2.150142   2.150141   0.000000
    31  O    4.809299   2.370557   7.976687   7.983442   7.559501
    32  O    6.931388   4.451602   9.333773   9.393223   8.552763
    33  C    6.056016   3.622571   9.051080   9.093061   8.504163
    34  C    6.768469   4.538157  10.289508  10.345592   9.904374
    35  C    8.270995   5.985753  11.572317  11.652776  11.055545
    36  H    6.485043   4.442508  10.154145  10.385428   9.987680
    37  H    6.613380   4.528861  10.463203  10.332246  10.096179
    38  H    8.597350   6.277259  11.565022  11.811606  11.039885
    39  H    8.853303   6.699478  12.427789  12.513253  12.010049
    40  H    8.696189   6.340014  11.839679  11.765760  11.139599
                   31         32         33         34         35
    31  O    0.000000
    32  O    2.237396   0.000000
    33  C    1.258001   1.250459   0.000000
    34  C    2.371630   2.393533   1.536662   0.000000
    35  C    3.700758   2.764733   2.569805   1.522231   0.000000
    36  H    2.621436   3.088262   2.131467   1.094645   2.172442
    37  H    2.611329   3.097884   2.131948   1.094477   2.173197
    38  H    4.005299   2.715235   2.826264   2.163992   1.091202
    39  H    4.532060   3.849992   3.518155   2.175169   1.094461
    40  H    3.999495   2.726415   2.827180   2.164190   1.091301
                   36         37         38         39         40
    36  H    0.000000
    37  H    1.743327   0.000000
    38  H    2.533556   3.078455   0.000000
    39  H    2.523639   2.524460   1.774337   0.000000
    40  H    3.078161   2.534823   1.751747   1.774301   0.000000
 Stoichiometry    C14H17ClF3N2O3(1-)
 Framework group  C1[X(C14H17ClF3N2O3)]
 Deg. of freedom   114
 Full point group                 C1      NOp   1
 Largest Abelian subgroup         C1      NOp   1
 Largest concise Abelian subgroup C1      NOp   1
                         Standard orientation:                         
 ---------------------------------------------------------------------
 Center     Atomic      Atomic             Coordinates (Angstroms)
 Number     Number       Type             X           Y           Z
 ---------------------------------------------------------------------
      1          6           0       -0.683826    0.287002   -0.047952
      2          7           0        0.647319   -0.069341   -0.055699
      3          6           0        1.174601   -1.351698    0.005275
      4          8           0        0.493540   -2.369961    0.072166
      5          7           0        2.528692   -1.356938   -0.026987
      6          6           0        3.259107   -2.595074    0.117482
      7          6           0        4.719472   -2.380072   -0.260346
      8          6           0        5.545088   -3.647683   -0.065331
      9          6           0       -1.757355   -0.616713    0.003040
     10          6           0       -3.068932   -0.149335    0.003396
     11          6           0       -3.334227    1.217145   -0.047593
     12          6           0       -2.277303    2.116872   -0.097255
     13          6           0       -0.970969    1.663720   -0.097226
     14          1           0        1.312338    0.726238   -0.097841
     15          1           0        3.058176   -0.474191    0.023466
     16          1           0        2.801938   -3.357180   -0.520786
     17          1           0        3.190091   -2.971523    1.148192
     18          1           0        5.128356   -1.559075    0.336060
     19          1           0        4.768108   -2.048456   -1.301910
     20          1           0        5.529883   -3.970566    0.979589
     21          1           0        6.588711   -3.493526   -0.349091
     22          1           0        5.153656   -4.471693   -0.669316
     23          1           0       -1.553772   -1.675767    0.042591
     24          6           0       -4.192556   -1.146883    0.059231
     25         17           0       -4.968039    1.847688   -0.051535
     26          1           0       -2.486683    3.179282   -0.135781
     27          1           0       -0.141524    2.363594   -0.134265
     28          9           0       -4.976727   -0.975086    1.140075
     29          9           0       -5.001581   -1.068040   -1.014176
     30          9           0       -3.752979   -2.410943    0.108636
     31          8           0        2.224109    2.210880   -0.134722
     32          8           0        4.088853    1.002998    0.129260
     33          6           0        3.467211    2.081226    0.008299
     34          6           0        4.276448    3.387282    0.034428
     35          6           0        5.777859    3.190973    0.190682
     36          1           0        3.870900    3.998855    0.846683
     37          1           0        4.040980    3.929081   -0.886924
     38          1           0        6.003106    2.657046    1.115294
     39          1           0        6.306775    4.149049    0.204260
     40          1           0        6.175408    2.586789   -0.626541
 ---------------------------------------------------------------------
 Rotational constants (GHZ):      0.3459915      0.1007928      0.0794100
 Standard basis: 6-311+G(d) (5D, 7F)
 There are   588 symmetry adapted cartesian basis functions of A   symmetry.
 There are   565 symmetry adapted basis functions of A   symmetry.
   565 basis functions,   930 primitive gaussians,   588 cartesian basis functions
    92 alpha electrons       92 beta electrons
       nuclear repulsion energy      2100.1163780536 Hartrees.
 NAtoms=   40 NActive=   40 NUniq=   40 SFac= 1.00D+00 NAtFMM=   60 NAOKFM=F Big=F
 Integral buffers will be    131072 words long.
 Raffenetti 2 integral format.
 Two-electron integral symmetry is turned on.
 Nuclear repulsion after empirical dispersion term =     2100.1139786029 Hartrees.
 One-electron integrals computed using PRISM.
 NBasis=   565 RedAO= T EigKep=  1.61D-06  NBF=   565
 NBsUse=   562 1.00D-06 EigRej=  9.81D-07 NBFU=   562
 ExpMin= 4.38D-02 ExpMax= 1.06D+05 ExpMxC= 3.62D+03 IAcc=3 IRadAn=         5 AccDes= 0.00D+00
 Harris functional with IExCor= 1009 and IRadAn=       5 diagonalized for initial guess.
 HarFok:  IExCor= 1009 AccDes= 0.00D+00 IRadAn=         5 IDoV= 1 UseB2=F ITyADJ=14
 ICtDFT=  3500011 ScaDFX=  1.000000  1.000000  1.000000  1.000000
 FoFCou: FMM=F IPFlag=           0 FMFlag=      100000 FMFlg1=           0
         NFxFlg=           0 DoJE=T BraDBF=F KetDBF=T FulRan=T
         wScrn=  0.000000 ICntrl=     500 IOpCl=  0 I1Cent=   200000004 NGrid=           0
         NMat0=    1 NMatS0=      1 NMatT0=    0 NMatD0=    1 NMtDS0=    0 NMtDT0=    0
 Petite list used in FoFCou.
 Requested convergence on RMS density matrix=1.00D-08 within 128 cycles.
 Requested convergence on MAX density matrix=1.00D-06.
 Requested convergence on             energy=1.00D-06.
 No special actions if energy rises.
 SCF Done:  E(RM062X) =  -1638.67406266     A.U. after   16 cycles
            NFock= 16  Conv=0.37D-08     -V/T= 2.0029

 **********************************************************************

            Population analysis using the SCF density.

 **********************************************************************

 Orbital symmetries:
       Occupied  (A) (A) (A) (A) (A) (A) (A) (A) (A) (A) (A) (A)
                 (A) (A) (A) (A) (A) (A) (A) (A) (A) (A) (A) (A)
                 (A) (A) (A) (A) (A) (A) (A) (A) (A) (A) (A) (A)
                 (A) (A) (A) (A) (A) (A) (A) (A) (A) (A) (A) (A)
                 (A) (A) (A) (A) (A) (A) (A) (A) (A) (A) (A) (A)
                 (A) (A) (A) (A) (A) (A) (A) (A) (A) (A) (A) (A)
                 (A) (A) (A) (A) (A) (A) (A) (A) (A) (A) (A) (A)
                 (A) (A) (A) (A) (A) (A) (A) (A)
       Virtual   (A) (A) (A) (A) (A) (A) (A) (A) (A) (A) (A) (A)
                 (A) (A) (A) (A) (A) (A) (A) (A) (A) (A) (A) (A)
                 (A) (A) (A) (A) (A) (A) (A) (A) (A) (A) (A) (A)
                 (A) (A) (A) (A) (A) (A) (A) (A) (A) (A) (A) (A)
                 (A) (A) (A) (A) (A) (A) (A) (A) (A) (A) (A) (A)
                 (A) (A) (A) (A) (A) (A) (A) (A) (A) (A) (A) (A)
                 (A) (A) (A) (A) (A) (A) (A) (A) (A) (A) (A) (A)
                 (A) (A) (A) (A) (A) (A) (A) (A) (A) (A) (A) (A)
                 (A) (A) (A) (A) (A) (A) (A) (A) (A) (A) (A) (A)
                 (A) (A) (A) (A) (A) (A) (A) (A) (A) (A) (A) (A)
                 (A) (A) (A) (A) (A) (A) (A) (A) (A) (A) (A) (A)
                 (A) (A) (A) (A) (A) (A) (A) (A) (A) (A) (A) (A)
                 (A) (A) (A) (A) (A) (A) (A) (A) (A) (A) (A) (A)
                 (A) (A) (A) (A) (A) (A) (A) (A) (A) (A) (A) (A)
                 (A) (A) (A) (A) (A) (A) (A) (A) (A) (A) (A) (A)
                 (A) (A) (A) (A) (A) (A) (A) (A) (A) (A) (A) (A)
                 (A) (A) (A) (A) (A) (A) (A) (A) (A) (A) (A) (A)
                 (A) (A) (A) (A) (A) (A) (A) (A) (A) (A) (A) (A)
                 (A) (A) (A) (A) (A) (A) (A) (A) (A) (A) (A) (A)
                 (A) (A) (A) (A) (A) (A) (A) (A) (A) (A) (A) (A)
                 (A) (A) (A) (A) (A) (A) (A) (A) (A) (A) (A) (A)
                 (A) (A) (A) (A) (A) (A) (A) (A) (A) (A) (A) (A)
                 (A) (A) (A) (A) (A) (A) (A) (A) (A) (A) (A) (A)
                 (A) (A) (A) (A) (A) (A) (A) (A) (A) (A) (A) (A)
                 (A) (A) (A) (A) (A) (A) (A) (A) (A) (A) (A) (A)
                 (A) (A) (A) (A) (A) (A) (A) (A) (A) (A) (A) (A)
                 (A) (A) (A) (A) (A) (A) (A) (A) (A) (A) (A) (A)
                 (A) (A) (A) (A) (A) (A) (A) (A) (A) (A) (A) (A)
                 (A) (A) (A) (A) (A) (A) (A) (A) (A) (A) (A) (A)
                 (A) (A) (A) (A) (A) (A) (A) (A) (A) (A) (A) (A)
                 (A) (A) (A) (A) (A) (A) (A) (A) (A) (A) (A) (A)
                 (A) (A) (A) (A) (A) (A) (A) (A) (A) (A) (A) (A)
                 (A) (A) (A) (A) (A) (A) (A) (A) (A) (A) (A) (A)
                 (A) (A) (A) (A) (A) (A) (A) (A) (A) (A) (A) (A)
                 (A) (A) (A) (A) (A) (A) (A) (A) (A) (A) (A) (A)
                 (A) (A) (A) (A) (A) (A) (A) (A) (A) (A) (A) (A)
                 (A) (A) (A) (A) (A) (A) (A) (A) (A) (A) (A) (A)
                 (A) (A) (A) (A) (A) (A) (A) (A) (A) (A) (A) (A)
                 (A) (A) (A) (A) (A) (A) (A) (A) (A) (A) (A) (A)
                 (A) (A)
 The electronic state is 1-A.
 Alpha  occ. eigenvalues -- -102.58983 -25.18630 -25.18280 -25.18277 -19.46759
 Alpha  occ. eigenvalues --  -19.44539 -19.44276 -14.65122 -14.63282 -10.71159
 Alpha  occ. eigenvalues --  -10.55119 -10.51626 -10.50759 -10.49802 -10.48411
 Alpha  occ. eigenvalues --  -10.46486 -10.46104 -10.45321 -10.45088 -10.44186
 Alpha  occ. eigenvalues --  -10.43558 -10.41859 -10.41796  -9.73259  -7.45768
 Alpha  occ. eigenvalues --   -7.45099  -7.45097  -1.37826  -1.28426  -1.28089
 Alpha  occ. eigenvalues --   -1.05604  -1.03588  -0.94274  -0.93705  -0.91449
 Alpha  occ. eigenvalues --   -0.90113  -0.84136  -0.79734  -0.78371  -0.75137
 Alpha  occ. eigenvalues --   -0.73707  -0.71303  -0.67609  -0.63914  -0.62009
 Alpha  occ. eigenvalues --   -0.61477  -0.60157  -0.59750  -0.58405  -0.56903
 Alpha  occ. eigenvalues --   -0.54283  -0.51547  -0.48629  -0.48446  -0.48286
 Alpha  occ. eigenvalues --   -0.47198  -0.46007  -0.45181  -0.44786  -0.44142
 Alpha  occ. eigenvalues --   -0.43266  -0.42756  -0.42099  -0.41757  -0.41184
 Alpha  occ. eigenvalues --   -0.41054  -0.40915  -0.39665  -0.38584  -0.38202
 Alpha  occ. eigenvalues --   -0.37927  -0.36800  -0.35927  -0.35195  -0.34419
 Alpha  occ. eigenvalues --   -0.33915  -0.33101  -0.32846  -0.32141  -0.31136
 Alpha  occ. eigenvalues --   -0.30604  -0.29802  -0.29077  -0.28973  -0.26241
 Alpha  occ. eigenvalues --   -0.23117  -0.23011  -0.20370  -0.19894  -0.19519
 Alpha  occ. eigenvalues --   -0.19319  -0.15658
 Alpha virt. eigenvalues --    0.09337   0.09546   0.09728   0.10295   0.10876
 Alpha virt. eigenvalues --    0.11251   0.11674   0.11869   0.12075   0.12611
 Alpha virt. eigenvalues --    0.13160   0.13689   0.13869   0.14013   0.14772
 Alpha virt. eigenvalues --    0.15256   0.15325   0.15607   0.16100   0.16135
 Alpha virt. eigenvalues --    0.16678   0.16961   0.17132   0.17869   0.18125
 Alpha virt. eigenvalues --    0.18477   0.18593   0.19361   0.19736   0.20207
 Alpha virt. eigenvalues --    0.20469   0.20834   0.21095   0.21621   0.21821
 Alpha virt. eigenvalues --    0.22042   0.22540   0.22931   0.23583   0.24137
 Alpha virt. eigenvalues --    0.24461   0.25059   0.25194   0.25724   0.26701
 Alpha virt. eigenvalues --    0.26855   0.27245   0.27700   0.27975   0.28709
 Alpha virt. eigenvalues --    0.28817   0.29593   0.29652   0.30025   0.30444
 Alpha virt. eigenvalues --    0.30537   0.30826   0.30996   0.31189   0.31419
 Alpha virt. eigenvalues --    0.31900   0.32490   0.32652   0.32867   0.33292
 Alpha virt. eigenvalues --    0.33665   0.33889   0.34260   0.34663   0.34804
 Alpha virt. eigenvalues --    0.35198   0.35583   0.35927   0.36194   0.36443
 Alpha virt. eigenvalues --    0.36718   0.37159   0.37327   0.37722   0.38132
 Alpha virt. eigenvalues --    0.38423   0.38780   0.39085   0.39251   0.39782
 Alpha virt. eigenvalues --    0.40262   0.40566   0.40713   0.41077   0.41582
 Alpha virt. eigenvalues --    0.42087   0.42393   0.42665   0.43137   0.43378
 Alpha virt. eigenvalues --    0.43641   0.43911   0.44436   0.44696   0.45499
 Alpha virt. eigenvalues --    0.45811   0.46095   0.46460   0.47208   0.47501
 Alpha virt. eigenvalues --    0.47806   0.48314   0.48836   0.49049   0.49342
 Alpha virt. eigenvalues --    0.49647   0.50470   0.50731   0.51680   0.52440
 Alpha virt. eigenvalues --    0.52600   0.53145   0.53653   0.53940   0.54184
 Alpha virt. eigenvalues --    0.54530   0.55799   0.56721   0.57702   0.58078
 Alpha virt. eigenvalues --    0.58236   0.59331   0.59672   0.60084   0.60795
 Alpha virt. eigenvalues --    0.61928   0.62290   0.62834   0.63715   0.64176
 Alpha virt. eigenvalues --    0.64405   0.64908   0.65564   0.66474   0.66840
 Alpha virt. eigenvalues --    0.67450   0.68019   0.69832   0.70355   0.70667
 Alpha virt. eigenvalues --    0.70933   0.71967   0.73383   0.73594   0.73750
 Alpha virt. eigenvalues --    0.74270   0.75486   0.75975   0.76213   0.77146
 Alpha virt. eigenvalues --    0.77549   0.77916   0.78465   0.79339   0.79992
 Alpha virt. eigenvalues --    0.80574   0.81083   0.81492   0.81917   0.82731
 Alpha virt. eigenvalues --    0.83105   0.83374   0.83797   0.84193   0.84519
 Alpha virt. eigenvalues --    0.85495   0.86556   0.87086   0.87724   0.88059
 Alpha virt. eigenvalues --    0.88682   0.88765   0.89036   0.89506   0.90425
 Alpha virt. eigenvalues --    0.90832   0.91308   0.92378   0.93315   0.94219
 Alpha virt. eigenvalues --    0.96293   0.98809   0.99421   1.00497   1.01710
 Alpha virt. eigenvalues --    1.03024   1.03753   1.04647   1.04807   1.05296
 Alpha virt. eigenvalues --    1.06273   1.06867   1.07297   1.08352   1.08877
 Alpha virt. eigenvalues --    1.09865   1.10237   1.11137   1.12881   1.13075
 Alpha virt. eigenvalues --    1.13813   1.15564   1.15946   1.18270   1.19434
 Alpha virt. eigenvalues --    1.19815   1.20998   1.21358   1.22236   1.24528
 Alpha virt. eigenvalues --    1.25258   1.26048   1.27258   1.28294   1.29618
 Alpha virt. eigenvalues --    1.30856   1.32419   1.32986   1.34691   1.35421
 Alpha virt. eigenvalues --    1.35730   1.36015   1.37823   1.38222   1.39281
 Alpha virt. eigenvalues --    1.40497   1.42841   1.43124   1.44246   1.44764
 Alpha virt. eigenvalues --    1.45968   1.48103   1.49889   1.50032   1.51220
 Alpha virt. eigenvalues --    1.53157   1.55132   1.56084   1.56670   1.57367
 Alpha virt. eigenvalues --    1.57922   1.59152   1.59603   1.60287   1.61236
 Alpha virt. eigenvalues --    1.61294   1.62949   1.63542   1.63836   1.65079
 Alpha virt. eigenvalues --    1.66963   1.67506   1.67812   1.68626   1.69808
 Alpha virt. eigenvalues --    1.69905   1.70659   1.71735   1.72711   1.72889
 Alpha virt. eigenvalues --    1.73719   1.74451   1.76136   1.78156   1.79033
 Alpha virt. eigenvalues --    1.79636   1.81689   1.83135   1.85265   1.86856
 Alpha virt. eigenvalues --    1.87908   1.88896   1.89073   1.90544   1.91238
 Alpha virt. eigenvalues --    1.91650   1.92867   1.93214   1.93867   1.94615
 Alpha virt. eigenvalues --    1.96793   1.97322   1.98615   1.99788   2.00806
 Alpha virt. eigenvalues --    2.01928   2.04278   2.06418   2.07341   2.08573
 Alpha virt. eigenvalues --    2.08956   2.10056   2.11596   2.12982   2.16546
 Alpha virt. eigenvalues --    2.17810   2.18407   2.20086   2.21548   2.24713
 Alpha virt. eigenvalues --    2.27390   2.27758   2.29598   2.31512   2.35503
 Alpha virt. eigenvalues --    2.37201   2.38815   2.40916   2.41933   2.42600
 Alpha virt. eigenvalues --    2.45153   2.45417   2.48792   2.51605   2.52059
 Alpha virt. eigenvalues --    2.58089   2.58866   2.60273   2.63406   2.64118
 Alpha virt. eigenvalues --    2.64609   2.64843   2.66023   2.67736   2.69711
 Alpha virt. eigenvalues --    2.69920   2.70770   2.70877   2.72887   2.74124
 Alpha virt. eigenvalues --    2.75172   2.77618   2.78455   2.80889   2.81564
 Alpha virt. eigenvalues --    2.84420   2.87718   2.91905   2.94115   2.97185
 Alpha virt. eigenvalues --    2.97435   2.98963   3.00797   3.02208   3.05527
 Alpha virt. eigenvalues --    3.06524   3.08335   3.08838   3.10829   3.12364
 Alpha virt. eigenvalues --    3.13136   3.13475   3.14192   3.15002   3.17092
 Alpha virt. eigenvalues --    3.17392   3.20938   3.22627   3.23032   3.24995
 Alpha virt. eigenvalues --    3.26809   3.28554   3.31417   3.33863   3.35884
 Alpha virt. eigenvalues --    3.36112   3.36674   3.37961   3.40974   3.44323
 Alpha virt. eigenvalues --    3.44604   3.48794   3.50284   3.50837   3.52185
 Alpha virt. eigenvalues --    3.53530   3.54018   3.55079   3.55309   3.57341
 Alpha virt. eigenvalues --    3.60160   3.63915   3.71466   3.75667   3.79558
 Alpha virt. eigenvalues --    3.83495   3.84207   3.87978   3.89822   3.90193
 Alpha virt. eigenvalues --    3.90794   3.93584   3.93866   3.95384   3.96173
 Alpha virt. eigenvalues --    3.97835   3.98080   4.00975   4.07286   4.09956
 Alpha virt. eigenvalues --    4.12459   4.12918   4.13416   4.17950   4.18879
 Alpha virt. eigenvalues --    4.20433   4.22476   4.32302   4.32805   4.34590
 Alpha virt. eigenvalues --    4.36691   4.40775   4.76330   4.81627   4.87055
 Alpha virt. eigenvalues --    4.93434   5.05713   5.07295   5.11438   5.31065
 Alpha virt. eigenvalues --    5.32658   5.33799   5.36422   5.52938   5.56676
 Alpha virt. eigenvalues --    5.58256   5.89642   6.03830   6.16210   6.54417
 Alpha virt. eigenvalues --    6.58338   6.59343   6.63142   6.65416   6.67312
 Alpha virt. eigenvalues --    6.73366   6.95968   7.00729  10.09408  23.56761
 Alpha virt. eigenvalues --   23.69524  23.73427  23.76311  23.85992  23.91408
 Alpha virt. eigenvalues --   23.92198  24.04258  24.06360  24.08474  24.10500
 Alpha virt. eigenvalues --   24.18360  24.23473  24.30211  26.05251  26.39397
 Alpha virt. eigenvalues --   26.89633  35.76931  35.86993  50.20935  50.28555
 Alpha virt. eigenvalues --   50.29532  66.98190  67.01661  67.06753 216.20377
          Condensed to atoms (all electrons):
               1          2          3          4          5          6
     1  C   15.363946   0.121317  -0.601994  -0.057132  -0.110411  -0.320178
     2  N    0.121317   8.363251   0.258870  -0.079066  -0.717798  -0.773543
     3  C   -0.601994   0.258870   8.866417   0.720436   0.216987  -1.911153
     4  O   -0.057132  -0.079066   0.720436   8.120164  -0.197013  -0.131786
     5  N   -0.110411  -0.717798   0.216987  -0.197013   8.196526   0.766728
     6  C   -0.320178  -0.773543  -1.911153  -0.131786   0.766728   9.373882
     7  C   -0.018648   0.076320   0.468934   0.023665  -0.102854  -1.188584
     8  C   -0.005605  -0.026722  -0.351581  -0.001694  -0.038723   0.564185
     9  C   -2.850843   0.235564  -0.745059   0.082994  -0.330048  -0.386177
    10  C   -3.066452  -0.042463   0.177298  -0.015996   0.044712   0.044060
    11  C    5.594561  -0.087749  -0.427931  -0.037929  -0.063213  -0.066361
    12  C   -4.557637   0.018138  -0.446590  -0.003280  -0.062740  -0.053116
    13  C   -0.468495   0.079530  -0.436239  -0.024954  -0.187077  -0.209932
    14  H   -0.051132   0.071788  -0.022252  -0.003497   0.018732   0.031235
    15  H   -0.020187   0.031976  -0.008948  -0.007811   0.095500  -0.011472
    16  H    0.002411   0.011197   0.064627   0.003763  -0.077181   0.329678
    17  H    0.010328   0.007577   0.060777  -0.003664  -0.070555   0.410044
    18  H   -0.002899  -0.002106  -0.015554  -0.000277   0.008436  -0.071693
    19  H    0.002733   0.001007   0.028263  -0.000189   0.003824  -0.067380
    20  H    0.000104   0.000105   0.006622  -0.000002   0.000686  -0.025785
    21  H    0.000080  -0.000009   0.004147   0.000015  -0.001873   0.078407
    22  H   -0.000288  -0.000082  -0.007801  -0.000086   0.000307  -0.055449
    23  H    0.019665  -0.032445   0.103639   0.012968   0.011225   0.013581
    24  C   -2.403919   0.031080   0.066417   0.003959   0.008839   0.006641
    25  Cl  -0.060620  -0.000330  -0.052585   0.000184  -0.000486  -0.001454
    26  H    0.052744  -0.003077   0.004704  -0.000017  -0.000072   0.000051
    27  H    0.096323  -0.029740  -0.004310   0.000017   0.000280  -0.000030
    28  F    0.014479   0.000404   0.001676   0.000033   0.000013   0.000026
    29  F    0.014428   0.000395   0.001730   0.000040   0.000017   0.000010
    30  F    0.028933   0.001501   0.012421  -0.001080  -0.000095   0.000241
    31  O   -0.161726   0.014174   0.003374  -0.000645  -0.054645  -0.018379
    32  O    0.012625  -0.039059  -0.046118   0.000321  -0.011172   0.072241
    33  C    0.177085   0.010273   0.019250  -0.001113   0.041338   0.004638
    34  C   -0.051824  -0.063990  -0.058843  -0.001281  -0.065808   0.075571
    35  C    0.005677   0.001677   0.003852   0.000086   0.012945  -0.011541
    36  H    0.000353   0.000203  -0.000441  -0.000000   0.000271   0.000217
    37  H   -0.000029   0.000610   0.000516   0.000001  -0.000122  -0.000533
    38  H   -0.000076   0.000020  -0.000164  -0.000000   0.000170  -0.000144
    39  H   -0.000013   0.000034   0.000223   0.000000  -0.000087  -0.000135
    40  H    0.000082  -0.000025  -0.000590  -0.000000   0.000158   0.000956
               7          8          9         10         11         12
     1  C   -0.018648  -0.005605  -2.850843  -3.066452   5.594561  -4.557637
     2  N    0.076320  -0.026722   0.235564  -0.042463  -0.087749   0.018138
     3  C    0.468934  -0.351581  -0.745059   0.177298  -0.427931  -0.446590
     4  O    0.023665  -0.001694   0.082994  -0.015996  -0.037929  -0.003280
     5  N   -0.102854  -0.038723  -0.330048   0.044712  -0.063213  -0.062740
     6  C   -1.188584   0.564185  -0.386177   0.044060  -0.066361  -0.053116
     7  C    6.719649  -0.563889   0.029507  -0.003887   0.001564   0.001307
     8  C   -0.563889   6.537187  -0.012154   0.000582  -0.000527  -0.000948
     9  C    0.029507  -0.012154  11.470891   5.006427  -7.038624   0.493277
    10  C   -0.003887   0.000582   5.006427  35.117938 -17.006168  -4.600874
    11  C    0.001564  -0.000527  -7.038624 -17.006168  37.202231  -2.873888
    12  C    0.001307  -0.000948   0.493277  -4.600874  -2.873888  13.898493
    13  C    0.015363  -0.006986  -1.194787  -5.588955  -3.904094   2.942319
    14  H   -0.006358   0.000337  -0.004124   0.009422   0.018890   0.015138
    15  H   -0.033663   0.008323  -0.000761  -0.003504   0.002527  -0.003696
    16  H    0.018949  -0.015961  -0.003837   0.000390   0.000143  -0.000011
    17  H   -0.078276  -0.022280   0.002106   0.000079   0.000154   0.000028
    18  H    0.473168  -0.058468  -0.000362   0.000002  -0.000005   0.000002
    19  H    0.435099  -0.074175   0.000325  -0.000009   0.000017  -0.000016
    20  H    0.040760   0.324252   0.000037  -0.000000   0.000001  -0.000000
    21  H   -0.138247   0.408077   0.000011  -0.000000   0.000000   0.000000
    22  H   -0.001314   0.409184  -0.000013  -0.000003  -0.000001   0.000001
    23  H   -0.000675   0.000132   0.282345  -0.083387   0.004546  -0.027363
    24  C   -0.000485  -0.000059   1.305018  -3.139394  -4.804581   0.956985
    25  Cl   0.000012  -0.000005  -0.152410   0.388625  -0.993974   0.230072
    26  H   -0.000001   0.000000  -0.004886   0.073432   0.126201   0.294547
    27  H   -0.000007   0.000005  -0.023988   0.004587  -0.033868  -0.112471
    28  F   -0.000001   0.000000  -0.021882   0.082438  -0.102377   0.049805
    29  F   -0.000001   0.000000  -0.024398   0.093820  -0.106271   0.048558
    30  F    0.000004  -0.000001  -0.009623  -0.248790   0.040108   0.000472
    31  O   -0.001672  -0.000352   0.024848   0.004471  -0.009871   0.026713
    32  O   -0.019473   0.008192  -0.003425  -0.000894   0.000044  -0.005829
    33  C    0.007825  -0.010989  -0.047879  -0.031069  -0.007667  -0.117754
    34  C   -0.038640   0.009263  -0.000264  -0.002830   0.013745   0.015348
    35  C    0.011162  -0.003550  -0.001104  -0.000133  -0.001382  -0.003107
    36  H   -0.000224  -0.000020  -0.000021   0.000042  -0.000090  -0.000134
    37  H    0.000472   0.000016   0.000037  -0.000035   0.000025  -0.000239
    38  H    0.000324   0.000182  -0.000002  -0.000001   0.000002  -0.000010
    39  H   -0.000024  -0.000016   0.000005  -0.000001   0.000001   0.000007
    40  H   -0.000496   0.000045  -0.000011   0.000002  -0.000001  -0.000010
              13         14         15         16         17         18
     1  C   -0.468495  -0.051132  -0.020187   0.002411   0.010328  -0.002899
     2  N    0.079530   0.071788   0.031976   0.011197   0.007577  -0.002106
     3  C   -0.436239  -0.022252  -0.008948   0.064627   0.060777  -0.015554
     4  O   -0.024954  -0.003497  -0.007811   0.003763  -0.003664  -0.000277
     5  N   -0.187077   0.018732   0.095500  -0.077181  -0.070555   0.008436
     6  C   -0.209932   0.031235  -0.011472   0.329678   0.410044  -0.071693
     7  C    0.015363  -0.006358  -0.033663   0.018949  -0.078276   0.473168
     8  C   -0.006986   0.000337   0.008323  -0.015961  -0.022280  -0.058468
     9  C   -1.194787  -0.004124  -0.000761  -0.003837   0.002106  -0.000362
    10  C   -5.588955   0.009422  -0.003504   0.000390   0.000079   0.000002
    11  C   -3.904094   0.018890   0.002527   0.000143   0.000154  -0.000005
    12  C    2.942319   0.015138  -0.003696  -0.000011   0.000028   0.000002
    13  C   15.054551  -0.025443   0.000631   0.000376   0.000263   0.000129
    14  H   -0.025443   0.315215   0.029531  -0.000028  -0.000134   0.000088
    15  H    0.000631   0.029531   0.339558   0.001936   0.002617   0.006427
    16  H    0.000376  -0.000028   0.001936   0.484106  -0.051805   0.005577
    17  H    0.000263  -0.000134   0.002617  -0.051805   0.491515  -0.008650
    18  H    0.000129   0.000088   0.006427   0.005577  -0.008650   0.427346
    19  H   -0.000119   0.000039   0.001314  -0.010236   0.006723  -0.036132
    20  H    0.000007   0.000000  -0.000045  -0.000581   0.003519  -0.007994
    21  H   -0.000002   0.000000  -0.000075  -0.000296  -0.000126  -0.003724
    22  H    0.000009  -0.000000   0.000042   0.003543  -0.001013   0.006681
    23  H   -0.020734  -0.000298   0.000028  -0.000038  -0.000026  -0.000000
    24  C   -0.147716  -0.000180  -0.000606  -0.000118   0.000001  -0.000002
    25  Cl   0.023362   0.000007  -0.000005   0.000000   0.000000  -0.000000
    26  H   -0.214793  -0.000012   0.000001   0.000000  -0.000000   0.000000
    27  H    0.384080   0.012722  -0.000114  -0.000000   0.000000  -0.000001
    28  F    0.026761   0.000000  -0.000000  -0.000000   0.000000  -0.000000
    29  F    0.026371  -0.000000  -0.000000   0.000000  -0.000000   0.000000
    30  F   -0.007999   0.000006  -0.000000   0.000000   0.000000   0.000000
    31  O    0.177521   0.083676   0.012335   0.000017  -0.000024  -0.000026
    32  O   -0.019240   0.010406   0.075236  -0.001235   0.000796  -0.006268
    33  C   -0.066006  -0.012487  -0.006780  -0.001280   0.000973   0.003481
    34  C    0.016689   0.047772   0.049009  -0.000732   0.000384  -0.002346
    35  C   -0.004041  -0.003702  -0.006741   0.000104  -0.000026   0.002443
    36  H    0.000600  -0.000313  -0.000102   0.000000  -0.000000   0.000005
    37  H   -0.000156  -0.000329  -0.000003   0.000000   0.000000   0.000004
    38  H    0.000053  -0.000020  -0.000348  -0.000000   0.000001  -0.000053
    39  H   -0.000007  -0.000002   0.000061  -0.000000   0.000000  -0.000003
    40  H    0.000036  -0.000018  -0.000370  -0.000000  -0.000000  -0.000042
              19         20         21         22         23         24
     1  C    0.002733   0.000104   0.000080  -0.000288   0.019665  -2.403919
     2  N    0.001007   0.000105  -0.000009  -0.000082  -0.032445   0.031080
     3  C    0.028263   0.006622   0.004147  -0.007801   0.103639   0.066417
     4  O   -0.000189  -0.000002   0.000015  -0.000086   0.012968   0.003959
     5  N    0.003824   0.000686  -0.001873   0.000307   0.011225   0.008839
     6  C   -0.067380  -0.025785   0.078407  -0.055449   0.013581   0.006641
     7  C    0.435099   0.040760  -0.138247  -0.001314  -0.000675  -0.000485
     8  C   -0.074175   0.324252   0.408077   0.409184   0.000132  -0.000059
     9  C    0.000325   0.000037   0.000011  -0.000013   0.282345   1.305018
    10  C   -0.000009  -0.000000  -0.000000  -0.000003  -0.083387  -3.139394
    11  C    0.000017   0.000001   0.000000  -0.000001   0.004546  -4.804581
    12  C   -0.000016  -0.000000   0.000000   0.000001  -0.027363   0.956985
    13  C   -0.000119   0.000007  -0.000002   0.000009  -0.020734  -0.147716
    14  H    0.000039   0.000000   0.000000  -0.000000  -0.000298  -0.000180
    15  H    0.001314  -0.000045  -0.000075   0.000042   0.000028  -0.000606
    16  H   -0.010236  -0.000581  -0.000296   0.003543  -0.000038  -0.000118
    17  H    0.006723   0.003519  -0.000126  -0.001013  -0.000026   0.000001
    18  H   -0.036132  -0.007994  -0.003724   0.006681  -0.000000  -0.000002
    19  H    0.453318   0.006769  -0.004188  -0.008975   0.000001  -0.000001
    20  H    0.006769   0.471075  -0.028130  -0.039637   0.000000   0.000000
    21  H   -0.004188  -0.028130   0.461479  -0.027848   0.000000   0.000000
    22  H   -0.008975  -0.039637  -0.027848   0.477311  -0.000000  -0.000001
    23  H    0.000001   0.000000   0.000000  -0.000000   0.338761   0.030064
    24  C   -0.000001   0.000000   0.000000  -0.000001   0.030064  13.399584
    25  Cl   0.000000  -0.000000   0.000000  -0.000000  -0.002540  -0.516940
    26  H   -0.000000   0.000000  -0.000000   0.000000   0.000063   0.009388
    27  H    0.000000   0.000000   0.000000  -0.000000  -0.000029   0.002998
    28  F    0.000000   0.000000   0.000000  -0.000000   0.000518   0.104650
    29  F    0.000000  -0.000000   0.000000  -0.000000   0.000477   0.101724
    30  F   -0.000000   0.000000  -0.000000   0.000000   0.012770   0.335845
    31  O   -0.000044   0.000001   0.000000  -0.000002   0.000022  -0.000528
    32  O   -0.000515   0.000151   0.000078  -0.000135  -0.000003  -0.000040
    33  C    0.001104   0.000268  -0.000087  -0.000075   0.000508  -0.005398
    34  C    0.001448   0.000011   0.000128  -0.000052   0.000079   0.000050
    35  C    0.000053   0.000016  -0.000060   0.000023   0.000001  -0.000023
    36  H    0.000001   0.000000  -0.000000   0.000000   0.000000   0.000001
    37  H   -0.000002   0.000000  -0.000000   0.000000  -0.000000  -0.000001
    38  H   -0.000006  -0.000000   0.000000  -0.000000   0.000000  -0.000000
    39  H    0.000000  -0.000000   0.000000  -0.000000  -0.000000  -0.000000
    40  H    0.000003   0.000000   0.000001  -0.000000   0.000000   0.000000
              25         26         27         28         29         30
     1  C   -0.060620   0.052744   0.096323   0.014479   0.014428   0.028933
     2  N   -0.000330  -0.003077  -0.029740   0.000404   0.000395   0.001501
     3  C   -0.052585   0.004704  -0.004310   0.001676   0.001730   0.012421
     4  O    0.000184  -0.000017   0.000017   0.000033   0.000040  -0.001080
     5  N   -0.000486  -0.000072   0.000280   0.000013   0.000017  -0.000095
     6  C   -0.001454   0.000051  -0.000030   0.000026   0.000010   0.000241
     7  C    0.000012  -0.000001  -0.000007  -0.000001  -0.000001   0.000004
     8  C   -0.000005   0.000000   0.000005   0.000000   0.000000  -0.000001
     9  C   -0.152410  -0.004886  -0.023988  -0.021882  -0.024398  -0.009623
    10  C    0.388625   0.073432   0.004587   0.082438   0.093820  -0.248790
    11  C   -0.993974   0.126201  -0.033868  -0.102377  -0.106271   0.040108
    12  C    0.230072   0.294547  -0.112471   0.049805   0.048558   0.000472
    13  C    0.023362  -0.214793   0.384080   0.026761   0.026371  -0.007999
    14  H    0.000007  -0.000012   0.012722   0.000000  -0.000000   0.000006
    15  H   -0.000005   0.000001  -0.000114  -0.000000  -0.000000  -0.000000
    16  H    0.000000   0.000000  -0.000000  -0.000000   0.000000   0.000000
    17  H    0.000000  -0.000000   0.000000   0.000000  -0.000000   0.000000
    18  H   -0.000000   0.000000  -0.000001  -0.000000   0.000000   0.000000
    19  H    0.000000  -0.000000   0.000000   0.000000   0.000000  -0.000000
    20  H   -0.000000   0.000000   0.000000   0.000000  -0.000000   0.000000
    21  H    0.000000  -0.000000   0.000000   0.000000   0.000000  -0.000000
    22  H   -0.000000   0.000000  -0.000000  -0.000000  -0.000000   0.000000
    23  H   -0.002540   0.000063  -0.000029   0.000518   0.000477   0.012770
    24  C   -0.516940   0.009388   0.002998   0.104650   0.101724   0.335845
    25  Cl  17.790461  -0.019359   0.000074  -0.020191  -0.019370   0.006320
    26  H   -0.019359   0.428038  -0.002823  -0.000021  -0.000022   0.000031
    27  H    0.000074  -0.002823   0.343402  -0.000000  -0.000001  -0.000009
    28  F   -0.020191  -0.000021  -0.000000   9.001750  -0.047596  -0.035658
    29  F   -0.019370  -0.000022  -0.000001  -0.047596   8.999793  -0.035665
    30  F    0.006320   0.000031  -0.000009  -0.035658  -0.035665   9.031936
    31  O   -0.000188   0.000002   0.006873  -0.000000  -0.000000   0.000000
    32  O   -0.000004  -0.000002   0.000958  -0.000000  -0.000000   0.000000
    33  C   -0.000431  -0.000501   0.010518   0.000005   0.000004  -0.000014
    34  C    0.000031   0.000234  -0.002836   0.000000   0.000000  -0.000001
    35  C   -0.000009  -0.000006   0.000252   0.000000  -0.000000  -0.000000
    36  H   -0.000000   0.000000  -0.000081   0.000000   0.000000   0.000000
    37  H   -0.000000  -0.000000   0.000011   0.000000  -0.000000   0.000000
    38  H    0.000000   0.000000   0.000000  -0.000000   0.000000  -0.000000
    39  H   -0.000000   0.000000  -0.000001  -0.000000  -0.000000   0.000000
    40  H    0.000000   0.000000  -0.000001   0.000000   0.000000  -0.000000
              31         32         33         34         35         36
     1  C   -0.161726   0.012625   0.177085  -0.051824   0.005677   0.000353
     2  N    0.014174  -0.039059   0.010273  -0.063990   0.001677   0.000203
     3  C    0.003374  -0.046118   0.019250  -0.058843   0.003852  -0.000441
     4  O   -0.000645   0.000321  -0.001113  -0.001281   0.000086  -0.000000
     5  N   -0.054645  -0.011172   0.041338  -0.065808   0.012945   0.000271
     6  C   -0.018379   0.072241   0.004638   0.075571  -0.011541   0.000217
     7  C   -0.001672  -0.019473   0.007825  -0.038640   0.011162  -0.000224
     8  C   -0.000352   0.008192  -0.010989   0.009263  -0.003550  -0.000020
     9  C    0.024848  -0.003425  -0.047879  -0.000264  -0.001104  -0.000021
    10  C    0.004471  -0.000894  -0.031069  -0.002830  -0.000133   0.000042
    11  C   -0.009871   0.000044  -0.007667   0.013745  -0.001382  -0.000090
    12  C    0.026713  -0.005829  -0.117754   0.015348  -0.003107  -0.000134
    13  C    0.177521  -0.019240  -0.066006   0.016689  -0.004041   0.000600
    14  H    0.083676   0.010406  -0.012487   0.047772  -0.003702  -0.000313
    15  H    0.012335   0.075236  -0.006780   0.049009  -0.006741  -0.000102
    16  H    0.000017  -0.001235  -0.001280  -0.000732   0.000104   0.000000
    17  H   -0.000024   0.000796   0.000973   0.000384  -0.000026  -0.000000
    18  H   -0.000026  -0.006268   0.003481  -0.002346   0.002443   0.000005
    19  H   -0.000044  -0.000515   0.001104   0.001448   0.000053   0.000001
    20  H    0.000001   0.000151   0.000268   0.000011   0.000016   0.000000
    21  H    0.000000   0.000078  -0.000087   0.000128  -0.000060  -0.000000
    22  H   -0.000002  -0.000135  -0.000075  -0.000052   0.000023   0.000000
    23  H    0.000022  -0.000003   0.000508   0.000079   0.000001   0.000000
    24  C   -0.000528  -0.000040  -0.005398   0.000050  -0.000023   0.000001
    25  Cl  -0.000188  -0.000004  -0.000431   0.000031  -0.000009  -0.000000
    26  H    0.000002  -0.000002  -0.000501   0.000234  -0.000006   0.000000
    27  H    0.006873   0.000958   0.010518  -0.002836   0.000252  -0.000081
    28  F   -0.000000  -0.000000   0.000005   0.000000   0.000000   0.000000
    29  F   -0.000000  -0.000000   0.000004   0.000000  -0.000000   0.000000
    30  F    0.000000   0.000000  -0.000014  -0.000001  -0.000000   0.000000
    31  O    8.445082  -0.140077   0.328241  -0.270775   0.028320  -0.005136
    32  O   -0.140077   8.322172   0.374901  -0.157947   0.016199   0.000567
    33  C    0.328241   0.374901   6.364144  -1.383848   0.355851  -0.023479
    34  C   -0.270775  -0.157947  -1.383848   7.976269  -0.578453   0.403934
    35  C    0.028320   0.016199   0.355851  -0.578453   6.078760  -0.042854
    36  H   -0.005136   0.000567  -0.023479   0.403934  -0.042854   0.463058
    37  H   -0.005705   0.001990  -0.024637   0.409663  -0.045071  -0.035383
    38  H   -0.000087  -0.009141  -0.008623  -0.027606   0.395767  -0.007340
    39  H   -0.000612   0.004430   0.062899  -0.120691   0.399965  -0.003145
    40  H   -0.000451  -0.008701  -0.009485  -0.028038   0.395379   0.006038
              37         38         39         40
     1  C   -0.000029  -0.000076  -0.000013   0.000082
     2  N    0.000610   0.000020   0.000034  -0.000025
     3  C    0.000516  -0.000164   0.000223  -0.000590
     4  O    0.000001  -0.000000   0.000000  -0.000000
     5  N   -0.000122   0.000170  -0.000087   0.000158
     6  C   -0.000533  -0.000144  -0.000135   0.000956
     7  C    0.000472   0.000324  -0.000024  -0.000496
     8  C    0.000016   0.000182  -0.000016   0.000045
     9  C    0.000037  -0.000002   0.000005  -0.000011
    10  C   -0.000035  -0.000001  -0.000001   0.000002
    11  C    0.000025   0.000002   0.000001  -0.000001
    12  C   -0.000239  -0.000010   0.000007  -0.000010
    13  C   -0.000156   0.000053  -0.000007   0.000036
    14  H   -0.000329  -0.000020  -0.000002  -0.000018
    15  H   -0.000003  -0.000348   0.000061  -0.000370
    16  H    0.000000  -0.000000  -0.000000  -0.000000
    17  H    0.000000   0.000001   0.000000  -0.000000
    18  H    0.000004  -0.000053  -0.000003  -0.000042
    19  H   -0.000002  -0.000006   0.000000   0.000003
    20  H    0.000000  -0.000000  -0.000000   0.000000
    21  H   -0.000000   0.000000   0.000000   0.000001
    22  H    0.000000  -0.000000  -0.000000  -0.000000
    23  H   -0.000000   0.000000  -0.000000   0.000000
    24  C   -0.000001  -0.000000  -0.000000   0.000000
    25  Cl  -0.000000   0.000000  -0.000000   0.000000
    26  H   -0.000000   0.000000   0.000000   0.000000
    27  H    0.000011   0.000000  -0.000001  -0.000001
    28  F    0.000000  -0.000000  -0.000000   0.000000
    29  F   -0.000000   0.000000  -0.000000   0.000000
    30  F    0.000000  -0.000000   0.000000  -0.000000
    31  O   -0.005705  -0.000087  -0.000612  -0.000451
    32  O    0.001990  -0.009141   0.004430  -0.008701
    33  C   -0.024637  -0.008623   0.062899  -0.009485
    34  C    0.409663  -0.027606  -0.120691  -0.028038
    35  C   -0.045071   0.395767   0.399965   0.395379
    36  H   -0.035383  -0.007340  -0.003145   0.006038
    37  H    0.459730   0.005925  -0.003212  -0.007258
    38  H    0.005925   0.459958  -0.033822  -0.031828
    39  H   -0.003212  -0.033822   0.498218  -0.033491
    40  H   -0.007258  -0.031828  -0.033491   0.460560
 Mulliken charges:
               1
     1  C   -0.707767
     2  N   -0.438809
     3  C    0.046973
     4  O   -0.400133
     5  N   -0.335720
     6  C   -0.467566
     7  C   -0.126665
     8  C   -1.075257
     9  C   -0.076713
    10  C   -1.213481
    11  C    0.561811
    12  C   -0.121498
    13  C   -0.220874
    14  H    0.465325
    15  H    0.448180
    16  H    0.236523
    17  H    0.238693
    18  H    0.282816
    19  H    0.259944
    20  H    0.247792
    21  H    0.252239
    22  H    0.245674
    23  H    0.336143
    24  C    0.656746
    25  Cl   0.401753
    26  H    0.256155
    27  H    0.347211
    28  F   -0.054831
    29  F   -0.054041
    30  F   -0.131654
    31  O   -0.484724
    32  O   -0.432029
    33  C   -0.003700
    34  C   -0.162824
    35  C   -1.006728
    36  H    0.243474
    37  H    0.243717
    38  H    0.256870
    39  H    0.229419
    40  H    0.257557
 Sum of Mulliken charges =  -1.00000
 Mulliken charges with hydrogens summed into heavy atoms:
               1
     1  C   -0.707767
     2  N    0.026517
     3  C    0.046973
     4  O   -0.400133
     5  N    0.112460
     6  C    0.007650
     7  C    0.416095
     8  C   -0.329552
     9  C    0.259430
    10  C   -1.213481
    11  C    0.561811
    12  C    0.134657
    13  C    0.126337
    24  C    0.656746
    25  Cl   0.401753
    28  F   -0.054831
    29  F   -0.054041
    30  F   -0.131654
    31  O   -0.484724
    32  O   -0.432029
    33  C   -0.003700
    34  C    0.324366
    35  C   -0.262882
 Electronic spatial extent (au):  <R**2>=          12586.6425
 Charge=             -1.0000 electrons
 Dipole moment (field-independent basis, Debye):
    X=             -1.5842    Y=              0.0473    Z=             -0.0995  Tot=              1.5881
 Quadrupole moment (field-independent basis, Debye-Ang):
   XX=           -214.2091   YY=           -166.8385   ZZ=           -148.5656
[...]
 ,0.00000892,-0.00001202,0.00000389,-0.00000204,-0.00001003,-0.00000960
 ,0.00000272,-0.00001674,0.00000721,-0.00000352,-0.00002462,-0.00000613
 ,-0.00001302,0.00002135,-0.00000199,-0.00000091,0.00001281,-0.00000623
 ,-0.00000844,-0.00005115,-0.00003678,-0.00002919,0.00000957,0.00000075
 ,0.00001079,0.00000421,0.00000031,0.00000158,0.00001154,0.00000411,0.0
 0000014,0.00284988,0.00105324,0.00367978,-0.00064642,-0.00464466,0.005
 40285,-0.02369310,-0.01100923,-0.02414643,-0.07602989,-0.09269616,-0.0
 6897294,0.01393654,0.00762967,0.01219028,0.08017350,0.09970838,-0.0001
 6471,0.00005517,-0.00000366,0.00012201,-0.00010031,0.00004754,-0.00006
 881,0.00005048,-0.00000486,0.00001395,-0.00004848,0.00000861,0.0000430
 4,0.00000930,0.00005549,-0.00000300,-0.00000069,-0.00000319,0.00000075
 ,0.00000252,-0.00001024,0.00000432,-0.00000239,0.00000420,0.00003664,-
 0.00002870,0.00000440,-0.00001310,0.00000525,0.00000116,0.00000328,0.0
 0000048,-0.00000142,-0.00002050,-0.00000241,0.00000687,0.00004532,0.00
 001110,-0.00000509,-0.00001687,0.00013663,-0.00009691,-0.00000119,-0.0
 0005265,-0.00009569,0.00000099,-0.00000218,-0.00000186,0.00000165,-0.0
 0000091,0.00000452,-0.00000063,-0.00000163,-0.00000861,0.00000422,0.00
 000888,0.00000726,-0.00000158,0.00000016,0.00000419,0.00000143,0.00000
 152,-0.00000128,-0.00000248,-0.00000448,-0.00000155,-0.00000735,0.0000
 0466,-0.00000115,-0.00002114,0.00000128,-0.00000196,0.00002000,-0.0000
 0237,-0.00000125,0.00001258,-0.00000592,-0.00000256,-0.00002884,-0.000
 03256,-0.00000226,0.00000776,-0.00000113,0.00000542,0.00000556,-0.0000
 0255,-0.00000230,0.00000916,0.00000313,-0.00000141,0.00105849,-0.00106
 934,-0.00010272,0.00077566,0.00102678,-0.00208280,0.00614198,0.0060138
 4,0.00633344,-0.10803744,-0.06575335,-0.13661069,0.00275561,0.00206835
 ,0.00199859,0.11866777,0.07073535,0.14796079,0.00007247,-0.00001580,-0
 .00000110,0.00003067,0.00011422,-0.00001260,-0.00018012,-0.00000745,0.
 00003843,0.00004933,0.00000108,-0.00001451,0.00005763,-0.00015877,0.00
 002105,-0.00000821,-0.00001286,-0.00000073,0.00000385,0.00003207,0.000
 03289,0.00000003,-0.00000939,-0.00000821,-0.00001245,0.00000203,-0.000
 00538,-0.00000173,0.00000338,-0.00000240,0.00000555,0.00000287,-0.0000
 0072,0.00001086,0.00000371,-0.00000494,-0.00002100,-0.00001014,0.00001
 382,-0.00002957,-0.00022841,0.00001595,-0.00002636,0.00020031,-0.00005
 736,-0.00000010,-0.00000719,0.00000214,0.00000131,0.00000353,-0.000004
 99,0.00000267,0.00000261,-0.00000897,-0.00000371,-0.00000569,-0.000008
 56,0.00000123,0.00000458,-0.00000428,0.00000448,0.00000323,0.00000486,
 -0.00000298,-0.00000781,0.00000038,-0.00000040,-0.00000026,0.00000214,
 0.00000709,-0.00001263,0.00001054,-0.00001040,0.00000206,0.00000041,-0
 .00000545,0.00000267,-0.00000046,0.00003329,0.00000469,-0.00001598,-0.
 00000506,0.00000366,-0.00000629,-0.00000249,0.00000419,-0.00000099,-0.
 00000074,0.00000353,-0.00000219,-0.00018960,0.00166502,-0.00110782,0.0
 0005381,-0.00220338,-0.00051208,-0.00379420,-0.00106758,0.00514776,-0.
 08036245,-0.00143552,0.09047878,-0.01058245,-0.00093992,0.02732299,0.0
 0851191,0.00164326,-0.02185778,0.08922874,-0.00011680,0.00005591,-0.00
 001079,0.00016990,0.00010160,0.00001367,-0.00037416,0.00012519,0.00002
 101,0.00009182,-0.00014796,0.00002023,0.00014346,-0.00047876,0.0001764
 0,0.00009785,0.00000821,-0.00002919,-0.00001585,0.00002312,0.00002124,
 0.00000849,-0.00001373,-0.00000678,0.00002388,-0.00002970,0.00000512,-
 0.00001205,0.00000496,-0.00000051,0.00000592,-0.00000093,-0.00000381,-
 0.00000177,0.00000087,-0.00000132,0.00003032,-0.00000532,-0.00002231,-
 0.00006138,-0.00004647,-0.00010107,-0.00005219,0.00073785,-0.00035637,
 -0.00002112,-0.00002137,0.00000575,-0.00001121,-0.00000442,0.00001464,
 0.00003348,-0.00000887,-0.00002884,0.00000915,0.00001102,0.00000254,-0
 .00000200,-0.00000271,0.00000527,-0.00001250,0.00000277,-0.00000183,-0
 .00000855,-0.00000700,0.00000335,-0.00000935,0.00000547,0.00000150,-0.
 00000949,0.00000875,0.00000817,0.00001085,-0.00000156,-0.00000094,0.00
 000547,0.00000092,0.00000401,-0.00001947,0.00000614,0.00002332,0.00000
 235,-0.00000200,0.00000018,0.00000369,-0.00000536,-0.00000571,0.000003
 93,-0.00000144,-0.00000130,0.00034582,-0.00052972,-0.00384032,-0.00278
 088,-0.00649356,-0.00191865,-0.01067287,0.00234123,0.03376005,-0.00117
 562,-0.04480328,0.01119774,0.00671542,-0.00039134,-0.01742505,0.005568
 51,0.00000289,-0.01405456,0.00011812,0.05031660,0.00022547,-0.00009419
 ,-0.00000200,-0.00023804,0.00004131,0.00001262,0.00037156,-0.00013676,
 -0.00002126,-0.00008854,0.00014030,-0.00002386,-0.00014097,0.00034919,
 -0.00006754,-0.00004629,0.00000054,0.00001838,0.00000246,-0.00003759,-
 0.00002251,-0.00000869,0.00001368,0.00000495,-0.00004979,0.00004934,-0
 .00000512,0.00002166,-0.00000900,0.00000360,-0.00000788,-0.00000113,0.
 00000055,0.00002236,0.00000337,0.00000540,-0.00006354,-0.00000298,0.00
 002425,0.00004213,-0.00006743,0.00004741,-0.00000236,-0.00048139,0.000
 12320,0.00001186,0.00002063,-0.00000305,0.00000120,-0.00000138,-0.0000
 0706,-0.00002375,0.00000823,0.00002542,-0.00000354,-0.00000659,-0.0000
 0206,0.00000117,-0.00000167,-0.00000379,0.00000375,-0.00000578,-0.0000
 0041,0.00000923,0.00001416,-0.00000062,0.00001393,-0.00000914,-0.00000
 303,0.00002718,-0.00000900,-0.00001818,-0.00002662,0.00000360,0.000003
 05,-0.00001570,0.00000284,-0.00000668,0.00002672,0.00001896,-0.0000418
 8,-0.00000620,0.00000173,0.00000085,-0.00000959,0.00000885,0.00001174,
 -0.00001242,-0.00000269,0.00000517,-0.00156225,0.00071984,0.00257214,-
 0.00025835,0.00251612,0.00036813,0.00477088,-0.00324132,-0.00905503,0.
 08926154,0.00817621,-0.27666065,-0.00062903,-0.00015192,0.00116767,0.0
 0669375,0.00119106,-0.01915034,-0.09896012,-0.00824593,0.29831860,0.00
 001262,0.00000730,0.00000097,-0.00000354,0.00006145,-0.00003825,-0.000
 03110,-0.00001384,0.00002284,0.00000600,0.00001985,-0.00001598,-0.0000
 0693,-0.00000622,-0.00002614,0.00001933,0.00000928,0.00001941,-0.00001
 104,-0.00002669,-0.00002262,-0.00000029,0.00000240,0.00000792,0.000001
 51,0.00000195,-0.00000310,-0.00000632,0.00000856,-0.00000054,0.0000082
 1,0.00000040,-0.00000218,0.00000195,0.00000106,-0.00000413,-0.00000484
 ,-0.00001798,-0.00000612,0.00000165,-0.00009812,0.00004670,0.00000316,
 0.00000490,0.00002711,-0.00000530,0.00000347,-0.00000436,0.00000186,0.
 00000360,-0.00000544,0.00001672,-0.00000155,0.00001709,0.00000042,0.00
 000211,-0.00000113,0.00000152,-0.00000154,-0.00000154,-0.00000891,-0.0
 0000376,-0.00000446,0.00000133,0.00000792,0.00000007,-0.00000015,0.000
 00100,0.00000234,0.00000824,-0.00002002,0.00001749,-0.00000875,0.00000
 338,-0.00000083,0.00000308,-0.00000139,0.00000422,0.00001101,-0.000010
 35,0.00001889,-0.00000678,0.00000554,-0.00001042,-0.00000244,0.0000057
 7,-0.00000238,0.00000092,0.00000645,-0.00000439,0.00042981,0.00017543,
 -0.00051757,0.00098478,0.00005445,-0.00084085,-0.00088007,-0.00128746,
 0.00093313,-0.01135708,-0.00025164,0.02916511,-0.08025500,-0.00314901,
 0.08943255,0.00078592,-0.00107799,-0.00013698,-0.00475301,0.00350237,-
 0.00036853,0.08934438,0.00014714,-0.00005600,-0.00000130,-0.00015754,0
 .00003928,0.00001988,0.00023986,-0.00012397,0.00001006,-0.00005588,0.0
 0010978,-0.00002782,-0.00008397,0.00022195,-0.00003414,-0.00000992,0.0
 0000573,0.00001842,-0.00001117,-0.00007487,-0.00004127,-0.00001264,0.0
 0002516,0.00001230,-0.00002685,0.00003225,-0.00000681,0.00000753,0.000
 00127,-0.00000259,0.00000717,-0.00000074,-0.00000060,0.00001165,0.0000
 0150,-0.00000262,-0.00003917,-0.00001120,0.00001541,0.00002841,-0.0000
 8808,0.00000730,-0.00002747,-0.00030527,0.00004632,0.00000006,0.000020
 70,-0.00000233,-0.00000220,-0.00000512,-0.00000580,-0.00002584,-0.0000
 0454,0.00002833,0.00000094,0.00000571,0.00000605,-0.00000055,-0.000003
 68,-0.00000480,0.00000234,-0.00000843,0.00000014,0.00001418,0.00001776
 ,-0.00000101,0.00000916,-0.00000547,-0.00000092,0.00002686,-0.00003297
 ,0.00000663,-0.00002659,0.00000631,0.00000136,-0.00000533,-0.00000049,
 0.00000018,0.00002057,-0.00000405,-0.00000829,-0.00001125,0.00000853,-
 0.00001023,-0.00000948,0.00001411,0.00000611,-0.00000650,0.00000719,-0
 .00000121,-0.00096014,0.00009532,0.00039169,-0.00115151,-0.00013981,0.
 00100953,0.00199254,0.00064817,-0.00163105,0.00567799,0.00013599,-0.01
 696664,-0.00382449,-0.04717377,0.00904473,-0.00064982,0.00065822,0.000
 44143,0.00322318,-0.00163474,0.00002511,0.00085429,0.04758547,0.000007
 40,-0.00001800,0.00000247,-0.00006831,-0.00009354,0.00005522,0.0001481
 7,0.00000343,-0.00003440,-0.00004402,-0.00001643,0.00001823,-0.0000699
 2,0.00002572,0.00002085,0.00006051,0.00001980,-0.00000481,-0.00001713,
 -0.00004676,-0.00003971,-0.00000021,0.00000990,0.00001124,-0.00000674,
 0.00000544,0.00000082,0.00000994,-0.00001064,0.00000347,-0.00001027,-0
 .00000120,0.00000140,-0.00000176,-0.00000241,0.00000343,-0.00000159,0.
 00001493,0.00000104,0.00000896,0.00012977,-0.00005969,0.00000457,0.000
 00359,-0.00002920,-0.00001025,0.00000562,-0.00000187,-0.00000817,-0.00
 000664,0.00001061,0.00001416,-0.00001406,0.00001372,0.00000645,0.00001
 052,0.00000945,-0.00000154,-0.00000847,0.00000592,-0.00001512,-0.00000
 619,-0.00000911,0.00000305,0.00001421,0.00000085,0.00000383,-0.0000013
 5,-0.00000195,-0.00000215,0.00002857,-0.00002060,0.00000572,-0.0000032
 4,0.00000096,-0.00000345,0.00000151,-0.00000226,-0.00000892,0.00000741
 ,-0.00000849,0.00000545,-0.00000777,0.00001019,0.00000160,-0.00000770,
 0.00000328,-0.00000503,-0.00001044,0.00000607,-0.00057030,-0.00064517,
 0.00024641,-0.00181290,0.00051140,0.00092583,0.00201684,0.00176409,-0.
 00072163,0.00038807,-0.00083631,-0.00035166,0.09015318,0.00663535,-0.2
 8612794,0.00052867,-0.00026298,0.00067468,0.00009705,0.00030671,0.0016
 4967,-0.09888617,-0.00904476,0.30828881,0.00010891,-0.00000275,-0.0000
 1213,0.00005739,0.00033410,-0.00012046,-0.00025803,-0.00001079,0.00004
 032,0.00007385,0.00005160,-0.00002826,0.00008953,-0.00003982,0.0000128
 4,-0.00006393,-0.00002326,0.00000775,0.00001457,0.00003164,0.00000186,
 0.00000973,-0.00001118,0.00000029,-0.00001631,0.00001120,-0.00000145,-
 0.00000855,0.00001496,-0.00000256,0.00001204,0.00000466,-0.00000359,0.
 00001581,0.00000956,-0.00000499,-0.00003357,-0.00004184,0.00001503,-0.
 00004881,-0.00049009,0.00016641,-0.00001622,0.00001550,-0.00000057,0.0
 0000961,-0.00000331,-0.00000081,0.00001358,0.00000258,-0.00000309,-0.0
 0000825,0.00000616,-0.00002577,-0.00000183,0.00001152,0.00000854,-0.00
 000180,0.00000143,0.00000405,0.00001153,0.00000396,-0.00000067,-0.0000
 0577,-0.00000890,-0.00000030,-0.00000174,-0.00000071,0.00000050,0.0000
 1059,-0.00003732,0.00001249,-0.00002076,0.00000654,0.00000020,-0.00000
 325,-0.00000056,0.00000108,0.00004607,-0.00000806,-0.00000051,-0.00000
 826,0.00000956,-0.00001009,-0.00000613,0.00001345,0.00000278,0.0000014
 2,0.00001099,-0.00000415,-0.00065027,0.00342878,-0.00070236,0.00227539
 ,-0.00047699,-0.00024743,-0.00695651,-0.00210505,0.00219680,0.00535858
 ,0.03073858,-0.00923283,-0.05247816,-0.03320426,0.00884768,0.00101778,
 -0.00093668,-0.00048439,0.00113710,-0.00083484,0.00045606,-0.00285749,
 -0.01077824,0.00117103,0.05581279,-0.00037909,0.00008864,0.00001888,0.
 00020394,-0.00045926,0.00011685,-0.00007873,0.00028759,-0.00009461,0.0
 0000053,-0.00029469,0.00010256,0.00002212,-0.00033266,0.00009819,0.000
 10595,0.00002404,-0.00005445,-0.00000158,0.00004236,0.00001933,0.00001
 687,-0.00001599,-0.00000752,0.00005595,-0.00006898,0.00001622,0.000010
 35,-0.00003808,0.00000928,-0.00004965,-0.00000232,0.00000774,-0.000043
 95,-0.00001422,0.00000970,0.00010341,0.00008577,-0.00004394,-0.0000263
 9,0.00077143,-0.00023228,0.00007791,0.00053726,-0.00014713,-0.00001625
 ,-0.00003126,0.00000507,-0.00001374,-0.00000574,0.00003071,0.00003578,
 -0.00000419,-0.00004738,0.00001221,0.00001940,0.00001498,-0.00000441,-
 0.00000316,0.00001563,-0.00001432,0.00001143,-0.00000531,-0.00001408,-
 0.00002084,0.00000221,-0.00001265,0.00000999,-0.00000099,-0.00007583,0
 .00016005,-0.00004287,0.00009001,-0.00002585,-0.00000258,0.00000580,0.
 00000538,-0.00000190,-0.00009246,0.00003717,0.00000152,0.00004012,-0.0
 0004116,0.00004242,0.00003262,-0.00006097,-0.00001772,0.00000620,-0.00
 004287,0.00001344,0.00182167,-0.00291826,0.00034491,0.00070075,-0.0009
 6945,0.00023113,0.00137711,0.00252007,-0.00073406,-0.00429203,-0.01450
 667,0.00427443,-0.03311350,-0.28603603,0.06658330,0.00034675,0.0005758
 4,0.00042824,0.00001533,0.00012181,-0.00069903,-0.00032343,0.00040764,
 0.00033747,0.03465903,0.31228525,0.00007450,-0.00002232,-0.00000194,-0
 .00006360,0.00004574,-0.00000424,0.00007183,-0.00007005,0.00001115,-0.
 00001519,0.00006224,-0.00001983,-0.00001711,0.00010093,0.00000164,-0.0
 0002026,-0.00000208,0.00001040,-0.00000292,-0.00003042,-0.00001772,-0.
 00000352,0.00000867,0.00000693,-0.00001098,0.00001579,-0.00000320,-0.0
 0000022,0.00000651,-0.00000069,0.00000897,-0.00000069,-0.00000187,0.00
 000844,0.00000151,-0.00000117,-0.00002036,-0.00001518,0.00000081,0.000
 01649,-0.00009289,0.00001838,-0.00002246,-0.00015249,0.00000870,0.0000
 0234,0.00000915,-0.00000044,0.00000271,-0.00000338,-0.00000304,-0.0000
 1303,-0.00000225,-0.00000108,0.00000128,0.00001055,0.00000691,-0.00000
 166,-0.00000268,-0.00000080,0.00000360,-0.00000351,-0.00000059,0.00000
 475,0.00000688,-0.00000016,0.00000368,-0.00000216,0.00000040,0.0000179
 4,-0.00003083,0.00001176,-0.00001842,0.00000495,0.00000015,-0.00000058
 ,-0.00000055,0.00000212,0.00001470,-0.00000630,0.00000290,-0.00000934,
 0.00000819,-0.00001033,-0.00000643,0.00001127,0.00000232,-0.00000222,0
 .00000807,-0.00000304,-0.00031834,0.00001014,0.00012971,-0.00055921,0.
 00053052,0.00062982,0.00133266,0.00001088,0.00032679,-0.00034397,-0.00
 332932,-0.00039543,0.00881150,0.06656948,-0.06887720,-0.00013780,0.000
 37802,-0.00015442,-0.00042627,-0.00018051,0.00016800,0.00295599,0.0301
 9352,-0.00608952,-0.01060157,-0.07433632,0.06807573,-0.00001738,0.0000
 2094,-0.00001000,0.00005938,0.00010139,-0.00001740,-0.00014169,-0.0000
 0629,0.00000569,0.00003644,0.00001412,-0.00000201,0.00005719,-0.000020
 08,0.00004476,-0.00001413,-0.00000267,-0.00000206,-0.00000669,-0.00000
 944,-0.00003111,0.00000578,-0.00000201,0.00000917,0.00001043,-0.000005
 20,0.00000265,-0.00001286,0.00001293,-0.00000414,0.00001370,0.00000188
 ,-0.00000061,0.00000362,0.00000406,0.00000153,0.00000562,-0.00001432,0
 .00001865,-0.00001007,-0.00013616,0.00002449,-0.00001373,0.00000606,-0
 .00004240,0.00000077,0.00000339,-0.00000238,0.00000478,-0.00000157,0.0
 0000356,0.00000588,0.00000708,-0.00000066,0.00000697,0.00001172,0.0000
 0932,-0.00000361,-0.00000165,0.00000525,0.00000044,-0.00000207,-0.0000
 0319,-0.00000140,0.00000284,-0.00000116,-0.00000415,0.00000030,-0.0000
 0230,0.00000142,-0.00003975,-0.00000128,-0.00000800,0.00000486,0.00000
 036,0.00000454,-0.00000477,-0.00000357,0.00000692,-0.00002320,-0.00001
 186,-0.00000220,0.00000935,-0.00000171,-0.00000495,0.00001478,0.000006
 64,0.00000544,0.00001250,-0.00000213,0.00081175,0.00055311,0.00001690,
 0.00201860,0.00030625,0.00031130,-0.00187387,-0.00209788,0.00057511,-0
 .02123465,-0.01177708,-0.01856203,-0.17368419,-0.07723503,-0.11130342,
 -0.00425219,0.00378874,0.00113461,0.00078046,-0.00069870,0.00055928,0.
 00855459,0.00561272,0.00690932,-0.00263062,-0.00118831,-0.00071595,0.1
 9152171,0.00012462,-0.00004142,-0.00000054,-0.00011062,0.00007186,-0.0
 0000668,0.00015244,-0.00011080,0.00001821,-0.00003161,0.00010285,-0.00
 003332,-0.00005167,0.00017808,-0.00005246,-0.00002646,-0.00000355,0.00
 002083,-0.00000004,-0.00002393,0.00000716,-0.00001950,0.00001710,-0.00
 000601,-0.00002119,0.00002554,-0.00000614,0.00000354,0.00000567,-0.000
 00118,0.00000946,-0.00000016,-0.00000137,0.00001069,0.00000294,-0.0000
 0054,-0.00003482,-0.00001536,0.00000772,0.00002120,-0.00012419,0.00003
 384,-0.00002144,-0.00026410,0.00006308,0.00000483,0.00001401,-0.000001
 58,-0.00000027,0.00000274,-0.00001551,-0.00001938,0.00000719,0.0000362
 8,-0.00001156,-0.00002286,-0.00002011,0.00000663,0.00000355,-0.0000100
 7,0.00000994,-0.00000560,0.00000485,0.00001053,0.00000963,-0.00000173,
 0.00000651,-0.00000418,0.00000072,0.00002191,-0.00004055,0.00000787,-0
 .00002439,0.00000632,0.00000088,-0.00000361,-0.00000076,0.00000057,0.0
 0002157,-0.00000305,0.00000031,-0.00001045,0.00001048,-0.00001000,-0.0
 0000913,0.00001607,0.00000594,-0.00000316,0.00001038,-0.00000281,-0.00
 069297,0.00024474,-0.00014976,-0.00044777,-0.00051532,-0.00011273,0.00
 133333,0.00036282,0.00064014,0.01231878,0.00790931,0.01164321,-0.07902
 218,-0.09454699,-0.06898703,0.00346868,-0.00170546,0.00016205,-0.00093
 653,0.00075492,-0.00010015,0.00154805,-0.00037483,0.00120861,-0.020351
 14,-0.01209850,-0.01970905,0.08277715,0.10014544,-0.00008037,0.0000381
 2,-0.00000401,0.00013781,0.00004013,-0.00002446,-0.00023287,0.00005927
 ,0.00000243,0.00006371,-0.00004505,0.00001272,0.00011605,-0.00010814,0
 .00004902,-0.00006965,-0.00002413,-0.00002250,0.00002413,0.00004944,0.
 00002874,0.00000949,-0.00001378,-0.00001253,0.00001814,-0.00002064,0.0
 0000521,-0.00000924,0.00000474,-0.00000176,0.00000210,0.00000157,0.000
 00024,-0.00000443,0.00000055,-0.00000031,0.00002222,0.00000238,0.00000
 180,-0.00002398,-0.00003465,0.00000568,-0.00000528,0.00011609,-0.00005
 306,0.00001155,-0.00001226,0.00000586,0.00001203,-0.00000499,0.0000102
 4,-0.00001763,0.00000868,-0.00007525,-0.00000232,0.00002967,0.00002140
 ,-0.00000476,-0.00000112,0.00001326,0.00002341,0.00000865,0.00000068,-
 0.00000953,-0.00002062,0.00000200,-0.00000780,0.00000271,-0.00000119,-
 0.00001534,-0.00000386,-0.00000250,0.00001090,-0.00000143,-0.00000049,
 0.00000409,-0.00000063,-0.00000137,-0.00000677,-0.00000144,-0.00000136
 ,0.00000535,0.00000043,0.00000453,0.00000311,-0.00000003,-0.00000087,0
 .00000720,0.00000346,-0.00000082,0.00066554,0.00036032,-0.00035317,0.0
 0180890,-0.00005847,0.00024064,-0.00220906,-0.00123767,0.00067209,0.00
 261055,0.00200313,0.00178309,-0.11138551,-0.06714661,-0.14516038,0.000
 83539,-0.00025882,0.00123104,-0.00016446,0.00064488,0.00056426,-0.0217
 6775,-0.01349029,-0.01846176,0.00854228,0.00374391,0.00617211,0.121082
 78,0.07536650,0.15335077\\0.00000114,-0.00000069,-0.00000324,0.0000013
 6,-0.00000037,0.00000031,-0.00000066,-0.00000180,-0.00000045,0.0000040
 5,0.00000111,0.00000015,-0.00000195,0.00000015,0.00000251,0.00000112,0
 .00000179,0.00000144,-0.00000050,-0.00000114,0.00000116,0.00000037,-0.
 00000025,0.00000177,0.00000168,0.00000107,0.00000296,-0.00000398,-0.00
 000024,0.00000097,0.00000277,0.00000201,-0.00000243,0.00000044,0.00000
 034,-0.00000183,-0.00000008,-0.00000081,-0.00000207,-0.00000032,-0.000
 00113,0.00000091,-0.00000155,-0.00000027,-0.00000029,0.00000090,-0.000
 00013,0.00000100,0.00000143,-0.00000020,0.00000104,0.00000002,-0.00000
 062,0.00000067,-0.00000012,-0.00000010,0.00000114,0.00000053,-0.000000
 40,0.00000203,-0.00000009,-0.00000064,0.00000201,0.00000026,-0.0000006
 3,0.00000211,-0.00000025,-0.00000077,-0.00000017,0.00000218,0.00000150
 ,-0.00000123,0.00000172,0.00000371,-0.00000174,-0.00000034,0.00000058,
 -0.00000160,-0.00000011,0.00000054,0.00000021,-0.00000252,0.00000024,-
 0.00000142,0.00000019,-0.00000343,-0.00000114,0.00000198,0.00000211,0.
 00000048,-0.00000048,-0.00000073,0.00000073,-0.00000136,0.00000423,-0.
 00000125,-0.00000116,-0.00000106,-0.00000096,-0.00000184,-0.00000017,-
 0.00000036,0.00000041,-0.00000115,-0.00000050,-0.00000081,-0.00000018,
 -0.00000116,-0.00000134,-0.00000071,-0.00000087,-0.00000069,-0.0000002
 3,-0.00000007,-0.00000126,-0.00000092,-0.00000050,-0.00000113,-0.00000
 058,-0.00000034\\\@


 EXPERIENCE IS A WONDERFUL THING.  IT ENABLES
 YOU TO RECOGNIZE A MISTAKE WHEN YOU MAKE IT AGAIN.
           - BACK OF A SUGAR PACKET
 Job cpu time:       0 days 11 hours 19 minutes 51.4 seconds.
 File lengths (MBytes):  RWF=   1251 Int=      0 D2E=      0 Chk=     24 Scr=      1
 Normal termination of Gaussian 09 at Thu Nov 14 23:23:36 2019.
pbs_rusage has been removed.
Please contact help@nci.org.au if you require this functionality.
