 Entering Gaussian System, Link 0=/apps/gaussian/g09e01/g09/g09
 Initial command:
 /apps/gaussian/g09e01/g09/l1.exe "/jobfs/local/3595017.r-man2/Gau-2971.inp" -scrdir="/jobfs/local/3595017.r-man2/"
 Entering Link 1 = /apps/gaussian/g09e01/g09/l1.exe PID=      2972.
  
 Copyright (c) 1988,1990,1992,1993,1995,1998,2003,2009,2015,
            Gaussian, Inc.  All Rights Reserved.
  
 This is part of the Gaussian(R) 09 program.  It is based on
 the Gaussian(R) 03 system (copyright 2003, Gaussian, Inc.),
 the Gaussian(R) 98 system (copyright 1998, Gaussian, Inc.),
 the Gaussian(R) 94 system (copyright 1995, Gaussian, Inc.),
 the Gaussian 92(TM) system (copyright 1992, Gaussian, Inc.),
 the Gaussian 90(TM) system (copyright 1990, Gaussian, Inc.),
 the Gaussian 88(TM) system (copyright 1988, Gaussian, Inc.),
 the Gaussian 86(TM) system (copyright 1986, Carnegie Mellon
 University), and the Gaussian 82(TM) system (copyright 1983,
 Carnegie Mellon University). Gaussian is a federally registered
 trademark of Gaussian, Inc.
  
 This software contains proprietary and confidential information,
 including trade secrets, belonging to Gaussian, Inc.
  
 This software is provided under written license and may be
 used, copied, transmitted, or stored only in accord with that
 written license.
  
 The following legend is applicable only to US Government
 contracts under FAR:
  
                    RESTRICTED RIGHTS LEGEND
  
 Use, reproduction and disclosure by the US Government is
 subject to restrictions as set forth in subparagraphs (a)
 and (c) of the Commercial Computer Software - Restricted
 Rights clause in FAR 52.227-19.
  
 Gaussian, Inc.
 340 Quinnipiac St., Bldg. 40, Wallingford CT 06492
  
  
 ---------------------------------------------------------------
 Warning -- This program may not be used in any manner that
 competes with the business of Gaussian, Inc. or will provide
 assistance to any competitor of Gaussian, Inc.  The licensee
 of this program is prohibited from giving any competitor of
 Gaussian, Inc. access to this program.  By using this program,
 the user acknowledges that Gaussian, Inc. is engaged in the
 business of creating and licensing software in the field of
 computational chemistry and represents and warrants to the
 licensee that it is not a competitor of Gaussian, Inc. and that
 it will not use this program in any manner prohibited above.
 ---------------------------------------------------------------
  

 Cite this work as:
 Gaussian 09, Revision E.01,
 M. J. Frisch, G. W. Trucks, H. B. Schlegel, G. E. Scuseria, 
 M. A. Robb, J. R. Cheeseman, G. Scalmani, V. Barone, B. Mennucci, 
 G. A. Petersson, H. Nakatsuji, M. Caricato, X. Li, H. P. Hratchian, 
 A. F. Izmaylov, J. Bloino, G. Zheng, J. L. Sonnenberg, M. Hada, 
 M. Ehara, K. Toyota, R. Fukuda, J. Hasegawa, M. Ishida, T. Nakajima, 
 Y. Honda, O. Kitao, H. Nakai, T. Vreven, J. A. Montgomery, Jr., 
 J. E. Peralta, F. Ogliaro, M. Bearpark, J. J. Heyd, E. Brothers, 
 K. N. Kudin, V. N. Staroverov, T. Keith, R. Kobayashi, J. Normand, 
 K. Raghavachari, A. Rendell, J. C. Burant, S. S. Iyengar, J. Tomasi, 
 M. Cossi, N. Rega, J. M. Millam, M. Klene, J. E. Knox, J. B. Cross, 
 V. Bakken, C. Adamo, J. Jaramillo, R. Gomperts, R. E. Stratmann, 
 O. Yazyev, A. J. Austin, R. Cammi, C. Pomelli, J. W. Ochterski, 
 R. L. Martin, K. Morokuma, V. G. Zakrzewski, G. A. Voth, 
 P. Salvador, J. J. Dannenberg, S. Dapprich, A. D. Daniels, 
 O. Farkas, J. B. Foresman, J. V. Ortiz, J. Cioslowski, 
 and D. J. Fox, Gaussian, Inc., Wallingford CT, 2013.
 
 ******************************************
 Gaussian 09:  ES64L-G09RevE.01 30-Nov-2015
                14-Nov-2019 
 ******************************************
 %chk=29_c2_carboxy.M062X_6-311pGd_opt_Pentadecane_GD3.chk
 %mem=196608000
 %nproc=8
 Will use up to    8 processors via shared memory.
 ----------------------------------------------------------------------
 # M062X/6-311+G* SCF=Tight INT(grid=ultrafine) OPT IOP(2/17=4) Empiric
 alDispersion=GD3 SCRF=(SMD,Solvent=n-Pentadecane) maxdisk=2684354560
 ----------------------------------------------------------------------
 1/14=-1,18=20,19=15,26=4,38=1/1,3;
 2/9=110,12=2,17=4,18=5,40=1/2;
 3/5=4,6=6,7=11,11=2,16=1,25=1,30=1,70=32201,71=1,72=151,74=-55,75=-5,124=31/1,2,3;
 4//1;
 5/5=2,32=2,38=5,53=151/2;
 6/7=2,8=2,9=2,10=2,28=1/1;
 7//1,2,3,16;
 1/14=-1,18=20,19=15,26=4/3(2);
 2/9=110,17=4/2;
 99//99;
 2/9=110,17=4/2;
 3/5=4,6=6,7=11,11=2,16=1,25=1,30=1,70=32205,71=1,72=151,74=-55,75=-5,124=31/1,2,3;
 4/5=5,16=3,69=1/1;
 5/5=2,32=2,38=5,53=151/2;
 7//1,2,3,16;
 1/14=-1,18=20,19=15,26=4/3(-5);
 2/9=110,17=4/2;
 6/7=2,8=2,9=2,10=2,19=2,28=1/1;
 99/9=1/99;
 ------------------------------------------------
 29_c2_carboxy.M062X_6-311pGd_opt_Pentadecane_GD3
 ------------------------------------------------
 Symbolic Z-matrix:
 Charge = -1 Multiplicity = 1
 C                    -6.11568   1.42362   0.63911 
 N                    -4.86416   0.84296   0.59679 
 C                    -3.65725   1.47058   0.32848 
 O                    -3.54785   2.6719    0.09534 
 N                    -2.60608   0.61879   0.36179 
 C                    -1.27447   1.07656   0.02546 
 C                    -0.2431    0.0442    0.46193 
 C                     1.17133   0.46576   0.08096 
 C                    -7.197     0.56625   0.9196 
 C                    -8.49456   1.04724   0.98332 
 C                    -8.74563   2.40484   0.76854 
 C                    -7.68977   3.25646   0.49351 
 C                    -6.38484   2.78362   0.42717 
 H                    -4.84548  -0.17894   0.78122 
 H                    -2.75888  -0.39686   0.44108 
 H                    -1.09181   2.0345    0.52016 
 H                    -1.18682   1.25871  -1.0545 
 H                    -0.488    -0.92183   0.0104 
 H                    -0.32095  -0.09591   1.54446 
 H                     1.27183   0.57949  -1.0023 
 H                     1.90806  -0.27302   0.4048 
 H                     1.43735   1.42285   0.53946 
 H                    -6.99473  -0.48696   1.08488 
 C                    -9.61523   0.09096   1.27944 
 Cl                   -10.36553   3.06464   0.83643 
 H                    -7.88766   4.30907   0.3279 
 H                    -5.57236   3.46002   0.21146 
 F                    -10.29468   0.42661   2.39179 
 F                    -10.5186   0.03962   0.2828 
 F                    -9.18132  -1.16119   1.46361 
 O                    -5.04559  -1.86786   1.09727 
 O                    -2.90544  -2.20056   0.54958 
 C                    -4.03567  -2.5967    0.91044 
 C                    -4.23892  -4.0971    1.1536 
 C                    -2.99433  -4.94639   0.94493 
 H                    -5.0508   -4.42127   0.49484 
 H                    -4.62539  -4.20747   2.17155 
 H                    -2.6172   -4.84228  -0.07401 
 H                    -3.20233  -6.00498   1.12746 
 H                    -2.19156  -4.63529   1.61621 
 
 Add virtual bond connecting atoms O31        and H14        Dist= 3.27D+00.
 Add virtual bond connecting atoms O32        and H15        Dist= 3.43D+00.

 GradGradGradGradGradGradGradGradGradGradGradGradGradGradGradGradGradGrad
 Berny optimization.
 Initialization pass.
                           ----------------------------
                           !    Initial Parameters    !
                           ! (Angstroms and Degrees)  !
 --------------------------                            --------------------------
 ! Name  Definition              Value          Derivative Info.                !
 --------------------------------------------------------------------------------
 ! R1    R(1,2)                  1.3803         estimate D2E/DX2                !
 ! R2    R(1,9)                  1.4082         estimate D2E/DX2                !
 ! R3    R(1,13)                 1.4025         estimate D2E/DX2                !
 ! R4    R(2,3)                  1.3866         estimate D2E/DX2                !
 ! R5    R(2,14)                 1.0386         estimate D2E/DX2                !
 ! R6    R(3,4)                  1.2286         estimate D2E/DX2                !
 ! R7    R(3,5)                  1.3534         estimate D2E/DX2                !
 ! R8    R(5,6)                  1.4477         estimate D2E/DX2                !
 ! R9    R(5,15)                 1.0301         estimate D2E/DX2                !
 ! R10   R(6,7)                  1.5232         estimate D2E/DX2                !
 ! R11   R(6,16)                 1.0935         estimate D2E/DX2                !
 ! R12   R(6,17)                 1.0987         estimate D2E/DX2                !
 ! R13   R(7,8)                  1.5243         estimate D2E/DX2                !
 ! R14   R(7,18)                 1.0941         estimate D2E/DX2                !
 ! R15   R(7,19)                 1.0943         estimate D2E/DX2                !
 ! R16   R(8,20)                 1.0938         estimate D2E/DX2                !
 ! R17   R(8,21)                 1.0924         estimate D2E/DX2                !
 ! R18   R(8,22)                 1.0941         estimate D2E/DX2                !
 ! R19   R(9,10)                 1.3853         estimate D2E/DX2                !
 ! R20   R(9,23)                 1.0851         estimate D2E/DX2                !
 ! R21   R(10,11)                1.3972         estimate D2E/DX2                !
 ! R22   R(10,24)                1.5027         estimate D2E/DX2                !
 ! R23   R(11,12)                1.3841         estimate D2E/DX2                !
 ! R24   R(11,25)                1.7504         estimate D2E/DX2                !
 ! R25   R(12,13)                1.3895         estimate D2E/DX2                !
 ! R26   R(12,26)                1.0838         estimate D2E/DX2                !
 ! R27   R(13,27)                1.079          estimate D2E/DX2                !
 ! R28   R(14,31)                1.7298         estimate D2E/DX2                !
 ! R29   R(15,32)                1.8129         estimate D2E/DX2                !
 ! R30   R(24,28)                1.346          estimate D2E/DX2                !
 ! R31   R(24,29)                1.3461         estimate D2E/DX2                !
 ! R32   R(24,30)                1.3379         estimate D2E/DX2                !
 ! R33   R(31,33)                1.2594         estimate D2E/DX2                !
 ! R34   R(32,33)                1.2508         estimate D2E/DX2                !
 ! R35   R(33,34)                1.5335         estimate D2E/DX2                !
 ! R36   R(34,35)                1.5211         estimate D2E/DX2                !
 ! R37   R(34,36)                1.0946         estimate D2E/DX2                !
 ! R38   R(34,37)                1.0944         estimate D2E/DX2                !
 ! R39   R(35,38)                1.0915         estimate D2E/DX2                !
 ! R40   R(35,39)                1.0942         estimate D2E/DX2                !
 ! R41   R(35,40)                1.0917         estimate D2E/DX2                !
 ! A1    A(2,1,9)              116.5008         estimate D2E/DX2                !
 ! A2    A(2,1,13)             125.2611         estimate D2E/DX2                !
 ! A3    A(9,1,13)             118.238          estimate D2E/DX2                !
 ! A4    A(1,2,3)              127.2102         estimate D2E/DX2                !
 ! A5    A(1,2,14)             115.1367         estimate D2E/DX2                !
 ! A6    A(3,2,14)             117.6511         estimate D2E/DX2                !
 ! A7    A(2,3,4)              123.8357         estimate D2E/DX2                !
 ! A8    A(2,3,5)              112.7323         estimate D2E/DX2                !
 ! A9    A(4,3,5)              123.4297         estimate D2E/DX2                !
 ! A10   A(3,5,6)              120.643          estimate D2E/DX2                !
 ! A11   A(3,5,15)             120.4782         estimate D2E/DX2                !
 ! A12   A(6,5,15)             117.7801         estimate D2E/DX2                !
 ! A13   A(5,6,7)              109.9948         estimate D2E/DX2                !
 ! A14   A(5,6,16)             108.9989         estimate D2E/DX2                !
 ! A15   A(5,6,17)             110.7418         estimate D2E/DX2                !
 ! A16   A(7,6,16)             110.5489         estimate D2E/DX2                !
 ! A17   A(7,6,17)             109.8776         estimate D2E/DX2                !
 ! A18   A(16,6,17)            106.6259         estimate D2E/DX2                !
 ! A19   A(6,7,8)              111.6697         estimate D2E/DX2                !
 ! A20   A(6,7,18)             109.1843         estimate D2E/DX2                !
 ! A21   A(6,7,19)             108.7883         estimate D2E/DX2                !
 ! A22   A(8,7,18)             110.4106         estimate D2E/DX2                !
 ! A23   A(8,7,19)             110.4053         estimate D2E/DX2                !
 ! A24   A(18,7,19)            106.2174         estimate D2E/DX2                !
 ! A25   A(7,8,20)             111.194          estimate D2E/DX2                !
 ! A26   A(7,8,21)             111.3869         estimate D2E/DX2                !
 ! A27   A(7,8,22)             111.2729         estimate D2E/DX2                !
 ! A28   A(20,8,21)            107.5735         estimate D2E/DX2                !
 ! A29   A(20,8,22)            107.5608         estimate D2E/DX2                !
 ! A30   A(21,8,22)            107.6611         estimate D2E/DX2                !
 ! A31   A(1,9,10)             121.1313         estimate D2E/DX2                !
 ! A32   A(1,9,23)             118.5643         estimate D2E/DX2                !
 ! A33   A(10,9,23)            120.3043         estimate D2E/DX2                !
 ! A34   A(9,10,11)            119.9077         estimate D2E/DX2                !
 ! A35   A(9,10,24)            119.1205         estimate D2E/DX2                !
 ! A36   A(11,10,24)           120.9714         estimate D2E/DX2                !
 ! A37   A(10,11,12)           119.4261         estimate D2E/DX2                !
 ! A38   A(10,11,25)           121.7745         estimate D2E/DX2                !
 ! A39   A(12,11,25)           118.7994         estimate D2E/DX2                !
 ! A40   A(11,12,13)           121.0984         estimate D2E/DX2                !
 ! A41   A(11,12,26)           119.2529         estimate D2E/DX2                !
 ! A42   A(13,12,26)           119.6487         estimate D2E/DX2                !
 ! A43   A(1,13,12)            120.1983         estimate D2E/DX2                !
 ! A44   A(1,13,27)            119.5774         estimate D2E/DX2                !
 ! A45   A(12,13,27)           120.2243         estimate D2E/DX2                !
 ! A46   A(10,24,28)           112.3731         estimate D2E/DX2                !
 ! A47   A(10,24,29)           112.2629         estimate D2E/DX2                !
 ! A48   A(10,24,30)           112.3853         estimate D2E/DX2                !
 ! A49   A(28,24,29)           106.4163         estimate D2E/DX2                !
 ! A50   A(28,24,30)           106.4595         estimate D2E/DX2                !
 ! A51   A(29,24,30)           106.4916         estimate D2E/DX2                !
 ! A52   A(14,31,33)           116.4337         estimate D2E/DX2                !
 ! A53   A(15,32,33)           113.9169         estimate D2E/DX2                !
 ! A54   A(31,33,32)           125.7403         estimate D2E/DX2                !
 ! A55   A(31,33,34)           115.876          estimate D2E/DX2                !
 ! A56   A(32,33,34)           118.3837         estimate D2E/DX2                !
 ! A57   A(33,34,35)           114.5871         estimate D2E/DX2                !
 ! A58   A(33,34,36)           107.0155         estimate D2E/DX2                !
 ! A59   A(33,34,37)           107.0352         estimate D2E/DX2                !
 ! A60   A(35,34,36)           111.0365         estimate D2E/DX2                !
 ! A61   A(35,34,37)           111.1135         estimate D2E/DX2                !
 ! A62   A(36,34,37)           105.544          estimate D2E/DX2                !
 ! A63   A(34,35,38)           110.9482         estimate D2E/DX2                !
 ! A64   A(34,35,39)           111.2074         estimate D2E/DX2                !
 ! A65   A(34,35,40)           110.9899         estimate D2E/DX2                !
 ! A66   A(38,35,39)           108.2822         estimate D2E/DX2                !
 ! A67   A(38,35,40)           107.0236         estimate D2E/DX2                !
 ! A68   A(39,35,40)           108.2345         estimate D2E/DX2                !
 ! A69   L(2,14,31,7,-1)       187.6819         estimate D2E/DX2                !
 ! A70   L(5,15,32,7,-1)       176.1284         estimate D2E/DX2                !
 ! A71   L(2,14,31,7,-2)       180.0908         estimate D2E/DX2                !
 ! A72   L(5,15,32,7,-2)       181.1429         estimate D2E/DX2                !
 ! D1    D(9,1,2,3)            179.2719         estimate D2E/DX2                !
 ! D2    D(9,1,2,14)            -0.1902         estimate D2E/DX2                !
 ! D3    D(13,1,2,3)            -0.7603         estimate D2E/DX2                !
 ! D4    D(13,1,2,14)          179.7777         estimate D2E/DX2                !
 ! D5    D(2,1,9,10)          -179.9112         estimate D2E/DX2                !
 ! D6    D(2,1,9,23)            -0.005          estimate D2E/DX2                !
 ! D7    D(13,1,9,10)            0.1186         estimate D2E/DX2                !
 ! D8    D(13,1,9,23)         -179.9752         estimate D2E/DX2                !
 ! D9    D(2,1,13,12)          179.9297         estimate D2E/DX2                !
 ! D10   D(2,1,13,27)           -0.0163         estimate D2E/DX2                !
 ! D11   D(9,1,13,12)           -0.103          estimate D2E/DX2                !
 ! D12   D(9,1,13,27)          179.951          estimate D2E/DX2                !
 ! D13   D(1,2,3,4)              0.571          estimate D2E/DX2                !
 ! D14   D(1,2,3,5)           -179.96           estimate D2E/DX2                !
 ! D15   D(14,2,3,4)          -179.9788         estimate D2E/DX2                !
 ! D16   D(14,2,3,5)            -0.5098         estimate D2E/DX2                !
 ! D17   D(1,2,31,33)          169.8104         estimate D2E/DX2                !
 ! D18   D(3,2,31,33)           -9.3527         estimate D2E/DX2                !
 ! D19   D(2,3,5,6)            176.1793         estimate D2E/DX2                !
 ! D20   D(2,3,5,15)             8.4281         estimate D2E/DX2                !
 ! D21   D(4,3,5,6)             -4.3492         estimate D2E/DX2                !
 ! D22   D(4,3,5,15)          -172.1005         estimate D2E/DX2                !
 ! D23   D(3,5,6,7)            166.2365         estimate D2E/DX2                !
 ! D24   D(3,5,6,16)            44.8826         estimate D2E/DX2                !
 ! D25   D(3,5,6,17)           -72.1159         estimate D2E/DX2                !
 ! D26   D(15,5,6,7)           -25.6903         estimate D2E/DX2                !
 ! D27   D(15,5,6,16)         -147.0441         estimate D2E/DX2                !
 ! D28   D(15,5,6,17)           95.9574         estimate D2E/DX2                !
 ! D29   D(3,5,32,33)          -15.996          estimate D2E/DX2                !
 ! D30   D(6,5,32,33)          176.2983         estimate D2E/DX2                !
 ! D31   D(5,6,7,8)            177.9728         estimate D2E/DX2                !
 ! D32   D(5,6,7,18)            55.5898         estimate D2E/DX2                !
 ! D33   D(5,6,7,19)           -59.923          estimate D2E/DX2                !
 ! D34   D(16,6,7,8)           -61.6049         estimate D2E/DX2                !
 ! D35   D(16,6,7,18)          176.0121         estimate D2E/DX2                !
 ! D36   D(16,6,7,19)           60.4993         estimate D2E/DX2                !
 ! D37   D(17,6,7,8)            55.8113         estimate D2E/DX2                !
 ! D38   D(17,6,7,18)          -66.5716         estimate D2E/DX2                !
 ! D39   D(17,6,7,19)          177.9156         estimate D2E/DX2                !
 ! D40   D(6,7,8,20)           -60.5854         estimate D2E/DX2                !
 ! D41   D(6,7,8,21)           179.4385         estimate D2E/DX2                !
 ! D42   D(6,7,8,22)            59.298          estimate D2E/DX2                !
 ! D43   D(18,7,8,20)           61.092          estimate D2E/DX2                !
 ! D44   D(18,7,8,21)          -58.8841         estimate D2E/DX2                !
 ! D45   D(18,7,8,22)         -179.0247         estimate D2E/DX2                !
 ! D46   D(19,7,8,20)          178.2448         estimate D2E/DX2                !
 ! D47   D(19,7,8,21)           58.2687         estimate D2E/DX2                !
 ! D48   D(19,7,8,22)          -61.8718         estimate D2E/DX2                !
 ! D49   D(1,9,10,11)           -0.0667         estimate D2E/DX2                !
 ! D50   D(1,9,10,24)          179.7091         estimate D2E/DX2                !
 ! D51   D(23,9,10,11)        -179.9713         estimate D2E/DX2                !
 ! D52   D(23,9,10,24)          -0.1956         estimate D2E/DX2                !
 ! D53   D(9,10,11,12)          -0.0025         estimate D2E/DX2                !
 ! D54   D(9,10,11,25)         179.9624         estimate D2E/DX2                !
 ! D55   D(24,10,11,12)       -179.774          estimate D2E/DX2                !
 ! D56   D(24,10,11,25)          0.1909         estimate D2E/DX2                !
 ! D57   D(9,10,24,28)         120.6796         estimate D2E/DX2                !
 ! D58   D(9,10,24,29)        -119.4034         estimate D2E/DX2                !
 ! D59   D(9,10,24,30)           0.6196         estimate D2E/DX2                !
 ! D60   D(11,10,24,28)        -59.5471         estimate D2E/DX2                !
 ! D61   D(11,10,24,29)         60.3699         estimate D2E/DX2                !
 ! D62   D(11,10,24,30)       -179.6071         estimate D2E/DX2                !
 ! D63   D(10,11,12,13)          0.0172         estimate D2E/DX2                !
 ! D64   D(10,11,12,26)       -179.9676         estimate D2E/DX2                !
 ! D65   D(25,11,12,13)       -179.9488         estimate D2E/DX2                !
 ! D66   D(25,11,12,26)          0.0664         estimate D2E/DX2                !
 ! D67   D(11,12,13,1)           0.037          estimate D2E/DX2                !
 ! D68   D(11,12,13,27)        179.9827         estimate D2E/DX2                !
 ! D69   D(26,12,13,1)        -179.9782         estimate D2E/DX2                !
 ! D70   D(26,12,13,27)         -0.0326         estimate D2E/DX2                !
 ! D71   D(14,31,33,32)          1.7498         estimate D2E/DX2                !
 ! D72   D(14,31,33,34)       -178.2214         estimate D2E/DX2                !
 ! D73   D(15,32,33,31)          5.228          estimate D2E/DX2                !
 ! D74   D(15,32,33,34)       -174.8015         estimate D2E/DX2                !
 ! D75   D(31,33,34,35)       -178.9023         estimate D2E/DX2                !
 ! D76   D(31,33,34,36)         57.5348         estimate D2E/DX2                !
 ! D77   D(31,33,34,37)        -55.2253         estimate D2E/DX2                !
 ! D78   D(32,33,34,35)          1.1243         estimate D2E/DX2                !
 ! D79   D(32,33,34,36)       -122.4386         estimate D2E/DX2                !
 ! D80   D(32,33,34,37)        124.8013         estimate D2E/DX2                !
 ! D81   D(33,34,35,38)        -59.1167         estimate D2E/DX2                !
 ! D82   D(33,34,35,39)       -179.7037         estimate D2E/DX2                !
 ! D83   D(33,34,35,40)         59.7414         estimate D2E/DX2                !
 ! D84   D(36,34,35,38)         62.2668         estimate D2E/DX2                !
 ! D85   D(36,34,35,39)        -58.3202         estimate D2E/DX2                !
 ! D86   D(36,34,35,40)       -178.875          estimate D2E/DX2                !
 ! D87   D(37,34,35,38)        179.4142         estimate D2E/DX2                !
 ! D88   D(37,34,35,39)         58.8273         estimate D2E/DX2                !
 ! D89   D(37,34,35,40)        -61.7276         estimate D2E/DX2                !
 --------------------------------------------------------------------------------
 Trust Radius=3.00D-01 FncErr=1.00D-07 GrdErr=1.00D-06
 Number of steps in this run=    212 maximum allowed number of steps=    240.
 GradGradGradGradGradGradGradGradGradGradGradGradGradGradGradGradGradGrad

                          Input orientation:                          
 ---------------------------------------------------------------------
 Center     Atomic      Atomic             Coordinates (Angstroms)
 Number     Number       Type             X           Y           Z
 ---------------------------------------------------------------------
      1          6           0       -6.115685    1.423615    0.639106
      2          7           0       -4.864159    0.842957    0.596794
      3          6           0       -3.657245    1.470576    0.328478
      4          8           0       -3.547850    2.671898    0.095342
      5          7           0       -2.606075    0.618794    0.361795
      6          6           0       -1.274472    1.076563    0.025459
      7          6           0       -0.243098    0.044195    0.461931
      8          6           0        1.171331    0.465756    0.080957
      9          6           0       -7.196997    0.566246    0.919603
     10          6           0       -8.494558    1.047236    0.983316
     11          6           0       -8.745633    2.404841    0.768539
     12          6           0       -7.689775    3.256459    0.493509
     13          6           0       -6.384843    2.783615    0.427170
     14          1           0       -4.845481   -0.178943    0.781220
     15          1           0       -2.758884   -0.396863    0.441083
     16          1           0       -1.091809    2.034496    0.520157
     17          1           0       -1.186821    1.258711   -1.054497
     18          1           0       -0.488003   -0.921831    0.010397
     19          1           0       -0.320946   -0.095909    1.544459
     20          1           0        1.271826    0.579494   -1.002297
     21          1           0        1.908063   -0.273023    0.404799
     22          1           0        1.437347    1.422848    0.539456
     23          1           0       -6.994727   -0.486958    1.084876
     24          6           0       -9.615230    0.090957    1.279440
     25         17           0      -10.365535    3.064643    0.836427
     26          1           0       -7.887664    4.309074    0.327902
     27          1           0       -5.572356    3.460017    0.211465
     28          9           0      -10.294682    0.426606    2.391786
     29          9           0      -10.518597    0.039620    0.282801
     30          9           0       -9.181317   -1.161185    1.463614
     31          8           0       -5.045595   -1.867860    1.097267
     32          8           0       -2.905441   -2.200557    0.549580
     33          6           0       -4.035673   -2.596701    0.910438
     34          6           0       -4.238923   -4.097104    1.153598
     35          6           0       -2.994332   -4.946386    0.944932
     36          1           0       -5.050804   -4.421270    0.494843
     37          1           0       -4.625395   -4.207475    2.171552
     38          1           0       -2.617196   -4.842284   -0.074011
     39          1           0       -3.202335   -6.004975    1.127461
     40          1           0       -2.191563   -4.635294    1.616205
 ---------------------------------------------------------------------
                    Distance matrix (angstroms):
                    1          2          3          4          5
     1  C    0.000000
     2  N    1.380315   0.000000
     3  C    2.478431   1.386557   0.000000
     4  O    2.906487   2.308495   1.228615   0.000000
     5  N    3.611371   2.281319   1.353367   2.274462   0.000000
     6  C    4.892275   3.642369   2.434066   2.778170   1.447703
     7  C    6.035020   4.691526   3.702536   4.237994   2.433896
     8  C    7.370863   6.069227   4.938226   5.209409   3.790922
     9  C    1.408189   2.371267   3.700957   4.292954   4.624984
    10  C    2.432936   3.656627   4.899757   5.281850   5.936672
    11  C    2.810015   4.187459   5.192128   5.247996   6.406994
    12  C    2.420387   3.717494   4.413378   4.201879   5.728754
    13  C    1.402484   2.471316   3.028795   2.858517   4.355434
    14  H    2.049831   1.038577   2.082737   3.206489   2.413967
    15  H    3.823803   2.448180   2.075346   3.187366   1.030143
    16  H    5.062278   3.956800   2.633669   2.572720   2.079013
    17  H    5.214325   4.052460   2.839103   2.982229   2.104676
    18  H    6.129209   4.754901   3.983577   4.720675   2.642582
    19  H    6.058681   4.735011   3.881157   4.491504   2.670451
    20  H    7.614595   6.346402   5.182734   5.367704   4.111011
    21  H    8.204512   6.866242   5.832549   6.207682   4.601591
    22  H    7.553689   6.328392   5.099183   5.158445   4.126419
    23  H    2.149818   2.558557   3.942443   4.778965   4.583208
    24  C    3.799055   4.858413   6.189124   6.698988   7.088648
    25  Cl   4.559949   5.937882   6.913769   6.869081   8.149642
    26  H    3.400387   4.607369   5.094459   4.644181   6.443175
    27  H    2.150585   2.738435   2.763913   2.175601   4.110227
    28  F    4.640035   5.734624   7.028704   7.472264   7.954399
    29  F    4.629043   5.719844   7.009128   7.453546   7.934084
    30  F    4.093789   4.837956   6.223349   6.949867   6.900444
    31  O    3.491248   2.762593   3.696445   4.884311   3.560284
    32  O    4.842346   3.619640   3.753841   4.935570   2.841412
    33  C    4.534646   3.551903   4.126092   5.353549   3.561484
    34  C    5.853655   5.010505   5.658466   6.885992   5.053002
    35  C    7.100232   6.093763   6.480500   7.685469   5.609101
    36  H    5.942851   5.268522   6.056694   7.261647   5.603271
    37  H    6.023166   5.295634   6.047686   7.266191   5.535860
    38  H    7.211758   6.149861   6.410609   7.573489   5.478450
    39  H    7.994377   7.066644   7.531878   8.744872   6.694482
    40  H    7.284493   6.180066   6.410002   7.586014   5.417638
                    6          7          8          9         10
     6  C    0.000000
     7  C    1.523162   0.000000
     8  C    2.521530   1.524292   0.000000
     9  C    6.011341   6.988470   8.410847   0.000000
    10  C    7.283405   8.328536   9.725316   1.385306   0.000000
    11  C    7.624614   8.829482  10.128129   2.408635   1.397233
    12  C    6.791696   8.110032   9.299323   2.767965   2.401719
    13  C    5.402897   6.725076   7.911264   2.412221   2.788406
    14  H    3.859996   4.618837   6.091635   2.470645   3.854883
    15  H    2.132418   2.554240   4.039850   4.566553   5.939477
    16  H    1.093493   2.164486   2.788484   6.291951   7.482639
    17  H    1.098711   2.159911   2.734760   6.363867   7.589494
    18  H    2.147636   1.094106   2.164201   6.931929   8.302332
    19  H    2.142723   1.094329   2.164300   6.936063   8.272218
    20  H    2.790519   2.173823   1.093835   8.684172   9.977158
    21  H    3.477615   2.175176   1.092448   9.158140  10.502013
    22  H    2.781738   2.174992   1.094081   8.685055   9.948911
    23  H    6.023975   6.801078   8.282512   1.085112   2.147920
    24  C    8.491886   9.407835  10.859407   2.490629   1.502686
    25  Cl   9.341176  10.570103  11.850072   4.035906   2.755370
    26  H    7.367152   8.754801   9.843651   3.851739   3.381934
    27  H    4.918055   6.334947   7.379698   3.393351   3.867368
    28  F    9.348055  10.242309  11.696619   3.432560   2.368421
    29  F    9.305662  10.277061  11.699434   3.422847   2.367013
    30  F    8.342302   9.074583  10.570525   2.686539   2.362086
    31  O    4.903037   5.208030   6.717798   3.253455   4.517312
    32  O    3.697875   3.483484   4.893761   5.119529   6.478774
    33  C    4.679774   4.643180   6.097505   4.471944   5.758927
    34  C    6.068566   5.796152   7.158288   5.527367   6.678597
    35  C    6.330818   5.719132   6.884074   6.931966   8.134953
    36  H    6.686343   6.561669   7.922707   5.446272   6.480941
    37  H    6.614791   6.340664   7.733802   5.564973   6.632821
    38  H    6.070053   5.459052   6.523207   7.156399   8.387358
    39  H    7.421539   6.767013   7.880005   7.692950   8.818281
    40  H    5.999737   5.198700   6.299742   7.252286   8.509961
                   11         12         13         14         15
    11  C    0.000000
    12  C    1.384100   0.000000
    13  C    2.415229   1.389543   0.000000
    14  H    4.678385   4.469315   3.357341   0.000000
    15  H    6.618001   6.137035   4.823195   2.125339   0.000000
    16  H    7.666803   6.710220   5.346591   4.365492   2.949051
    17  H    7.859562   6.976799   5.616057   4.338490   2.729298
    18  H    8.934762   8.340085   6.976873   4.487055   2.370229
    19  H    8.822196   8.163486   6.805207   4.589209   2.692870
    20  H   10.335242   9.471740   8.094820   6.416978   4.391269
    21  H   10.991110  10.226613   8.838316   6.764680   4.668731
    22  H   10.232784   9.309597   7.940463   6.488306   4.574864
    23  H    3.395327   3.853048   3.391340   2.192336   4.285434
    24  C    2.524139   3.787541   4.290941   4.803288   6.924615
    25  Cl   1.750437   2.704455   4.011531   6.402726   8.366568
    26  H    2.134567   1.083782   2.143678   5.440834   6.961540
    27  H    3.390194   2.145798   1.078974   3.754331   4.779526
    28  F    2.991303   4.289180   4.970115   5.714403   7.827617
    29  F    2.995600   4.288904   4.963696   5.699162   7.773591
    30  F    3.659165   4.762498   4.945294   4.497771   6.548084
    31  O    5.661653   5.797832   4.886597   1.729848   2.797044
    32  O    7.440799   7.257550   6.079737   2.811465   1.812888
    33  C    6.871628   6.912725   5.890666   2.553045   2.586460
    34  C    7.920479   8.149785   7.244099   3.982281   4.048454
    35  C    9.335369   9.462433   8.456746   5.116842   4.583390
    36  H    7.766754   8.118602   7.327661   4.256937   4.631592
    37  H    7.916282   8.241151   7.417133   4.267380   4.582483
    38  H    9.528297   9.573023   8.520603   5.238647   4.477406
    39  H   10.078789  10.310828   9.373264   6.063206   5.667335
    40  H    9.655976   9.683519   8.604511   5.253527   4.434757
                   16         17         18         19         20
    16  H    0.000000
    17  H    1.757955   0.000000
    18  H    3.060116   2.525294   0.000000
    19  H    2.486373   3.056028   1.750257   0.000000
    20  H    3.165702   2.551275   2.525178   3.078808   0.000000
    21  H    3.786447   3.748875   2.513492   2.509717   1.763945
    22  H    2.602137   3.074717   3.079675   2.531452   1.765119
    23  H    6.443685   6.430867   6.609166   6.701006   8.592410
    24  C    8.775110   8.823208   9.270517   9.299939  11.134315
    25  Cl   9.336125   9.543887  10.683629  10.553869  12.040973
    26  H    7.168983   7.491131   9.067424   8.839633   9.978751
    27  H    4.711974   5.067674   6.715033   6.480647   7.524191
    28  F    9.527916   9.773556  10.181368  10.023292  12.055176
    29  F    9.638476   9.505609  10.080249  10.276295  11.872533
    30  F    8.748865   8.724033   8.817190   8.924546  10.880206
    31  O    5.585147   5.412548   4.779948   5.065777   7.092780
    32  O    4.607147   4.182494   2.787447   3.478353   5.252291
    33  C    5.501513   5.180843   4.025075   4.522736   6.474282
    34  C    6.921134   6.547959   5.045658   5.613633   7.542334
    35  C    7.247948   6.765208   4.832399   5.570776   7.247562
    36  H    7.573058   7.042231   5.770608   6.494767   8.199069
    37  H    7.360404   7.218752   5.708245   5.985524   8.231987
    38  H    7.068942   6.342670   4.462122   5.515458   6.736608
    39  H    8.334041   7.847571   5.869734   6.587363   8.240705
    40  H    6.848130   6.548394   4.389823   4.910231   6.785694
                   21         22         23         24         25
    21  H    0.000000
    22  H    1.765130   0.000000
    23  H    8.931290   8.662835   0.000000
    24  C   11.562170  11.157104   2.690516   0.000000
    25  Cl  12.726646  11.920223   4.902851   3.098713   0.000000
    26  H   10.814703   9.763755   4.936828   4.656439   2.819051
    27  H    8.362394   7.307091   4.285394   5.369914   4.849893
    28  F   12.383238  11.919066   3.665013   1.345967   3.063233
    29  F   12.431192  12.038430   3.652160   1.346105   3.079074
    30  F   11.175164  10.967558   2.319311   1.337931   4.433211
    31  O    7.167732   7.291670   2.388756   4.975109   7.259434
    32  O    5.187116   5.655880   4.466008   7.127763   9.135514
    33  C    6.401809   6.800615   3.638329   6.204121   8.492552
    34  C    7.278031   7.941479   4.542282   6.816184   9.430089
    35  C    6.794523   7.769899   5.992432   8.326044  10.886826
    36  H    8.101969   8.732229   4.427842   6.466047   9.187052
    37  H    7.828628   8.433334   4.542779   6.646114   9.360313
    38  H    6.448673   7.487826   6.282886   8.668401  11.107887
    39  H    7.713215   8.777526   6.695712   8.849221  11.560887
    40  H    6.107689   7.143492   6.368782   8.806911  11.256593
                   26         27         28         29         30
    26  H    0.000000
    27  H    2.468828   0.000000
    28  F    5.012674   6.021275   0.000000
    29  F    5.015186   6.014110   2.155856   0.000000
    30  F    5.734729   5.995665   2.149922   2.150482   0.000000
    31  O    6.842792   5.426638   5.873097   5.852827   4.211626
    32  O    8.200427   6.266487   8.055842   7.940385   6.426693
    33  C    7.928866   6.287590   7.107036   7.026551   5.370694
    34  C    9.201028   7.731477   7.659587   7.570012   5.756995
    35  C   10.487563   8.823367   9.179191   9.050593   7.271559
    36  H    9.181207   7.903608   7.389083   7.059834   5.350496
    37  H    9.304464   7.970515   7.325573   7.505666   5.526073
    38  H   10.568194   8.817181   9.632505   9.294754   7.681307
    39  H   11.356550   9.800109   9.657388   9.527763   7.702177
    40  H   10.682089   8.884657   9.585661   9.642214   7.807008
                   31         32         33         34         35
    31  O    0.000000
    32  O    2.234035   0.000000
    33  C    1.259387   1.250830   0.000000
    34  C    2.371376   2.395809   1.533508   0.000000
    35  C    3.702460   2.775568   2.570331   1.521127   0.000000
    36  H    2.623518   3.088227   2.128911   1.094620   2.169656
    37  H    2.608535   3.101089   2.129031   1.094428   2.170473
    38  H    4.014500   2.729591   2.832642   2.166175   1.091473
    39  H    4.529265   3.859493   3.515378   2.171444   1.094163
    40  H    4.009175   2.752318   2.838083   2.166872   1.091706
                   36         37         38         39         40
    36  H    0.000000
    37  H    1.742996   0.000000
    38  H    2.534423   3.078701   0.000000
    39  H    2.514988   2.519173   1.771376   0.000000
    40  H    3.078720   2.532780   1.755232   1.771032   0.000000
 Stoichiometry    C14H17ClF3N2O3(1-)
 Framework group  C1[X(C14H17ClF3N2O3)]
 Deg. of freedom   114
 Full point group                 C1      NOp   1
 Largest Abelian subgroup         C1      NOp   1
 Largest concise Abelian subgroup C1      NOp   1
                         Standard orientation:                         
 ---------------------------------------------------------------------
 Center     Atomic      Atomic             Coordinates (Angstroms)
 Number     Number       Type             X           Y           Z
 ---------------------------------------------------------------------
      1          6           0        0.677449   -1.009993   -0.002685
      2          7           0       -0.688333   -0.811298    0.017974
      3          6           0       -1.677663   -1.781490   -0.031988
      4          8           0       -1.450759   -2.987398   -0.093584
      5          7           0       -2.925346   -1.258564    0.005909
      6          6           0       -4.087506   -2.112683   -0.119418
      7          6           0       -5.340857   -1.350170    0.290100
      8          6           0       -6.595631   -2.199767    0.125201
      9          6           0        1.481257    0.145333    0.043256
     10          6           0        2.863646    0.057208    0.025666
     11          6           0        3.481183   -1.194571   -0.037223
     12          6           0        2.700392   -2.336566   -0.081328
     13          6           0        1.313140   -2.258610   -0.064455
     14          1           0       -0.988989    0.181499    0.068986
     15          1           0       -3.067664   -0.240748   -0.064751
     16          1           0       -3.951028   -2.994509    0.512630
     17          1           0       -4.192581   -2.477992   -1.150280
     18          1           0       -5.417286   -0.436760   -0.307319
     19          1           0       -5.232810   -1.027042    1.330038
     20          1           0       -6.732976   -2.504253   -0.916384
     21          1           0       -7.490487   -1.651940    0.429441
     22          1           0       -6.541467   -3.109444    0.730647
     23          1           0        0.994938    1.114162    0.091542
     24          6           0        3.677509    1.319644    0.069822
     25         17           0        5.223340   -1.362669   -0.062957
     26          1           0        3.182334   -3.306097   -0.129537
     27          1           0        0.718133   -3.158006   -0.099665
     28          9           0        4.499586    1.362244    1.134717
     29          9           0        4.456892    1.462291   -1.018393
     30          9           0        2.913787    2.416165    0.136390
     31          8           0       -1.264567    1.887821    0.138940
     32          8           0       -3.441797    1.527294   -0.208332
     33          6           0       -2.452413    2.271210   -0.028662
     34          6           0       -2.675489    3.788243   -0.006381
     35          6           0       -4.123725    4.217689   -0.185310
     36          1           0       -2.039176    4.217074   -0.787023
     37          1           0       -2.268589    4.158285    0.939808
     38          1           0       -4.523592    3.856015   -1.134317
     39          1           0       -4.218676    5.307551   -0.165894
     40          1           0       -4.754259    3.805725    0.604965
 ---------------------------------------------------------------------
 Rotational constants (GHZ):      0.3316873      0.1091646      0.0836595
 Standard basis: 6-311+G(d) (5D, 7F)
 There are   588 symmetry adapted cartesian basis functions of A   symmetry.
 There are   565 symmetry adapted basis functions of A   symmetry.
   565 basis functions,   930 primitive gaussians,   588 cartesian basis functions
    92 alpha electrons       92 beta electrons
       nuclear repulsion energy      2112.9562472116 Hartrees.
 NAtoms=   40 NActive=   40 NUniq=   40 SFac= 1.00D+00 NAtFMM=   60 NAOKFM=F Big=F
 Integral buffers will be    131072 words long.
 Raffenetti 2 integral format.
 Two-electron integral symmetry is turned on.
 Nuclear repulsion after empirical dispersion term =     2112.9538079324 Hartrees.
 ------------------------------------------------------------------------------
 Polarizable Continuum Model (PCM)
 =================================
 Model                : PCM (using non-symmetric T matrix).
 Atomic radii         : SMD-Coulomb.
 Polarization charges : Total charges.
 Charge compensation  : None.
 Solution method      : On-the-fly selection.
 Cavity type          : VdW (van der Waals Surface) (Alpha=1.000).
 Cavity algorithm     : GePol (No added spheres)
                        Default sphere list used, NSphG=   40.
                        Lebedev-Laikov grids with approx.  5.0 points / Ang**2.
                        Smoothing algorithm: York/Karplus (Gamma=1.0000).
                        Polarization charges: spherical gaussians, with
                                              point-specific exponents (IZeta= 3).
                        Self-potential: point-specific (ISelfS= 7).
                        Self-field    : sphere-specific E.n sum rule (ISelfD= 2).
 1st derivatives      : Analytical E(r).r(x)/FMM algorithm (CHGder, D1EAlg=3).
                        Cavity 1st derivative terms included.
 Solvent              : n-Pentadecane, Eps=   2.033300 Eps(inf)=   2.049192
 ------------------------------------------------------------------------------
 ------------------------------------------------------------------------------
 Atomic radii for non-electrostatic terms: SMD-CDS.
 ------------------------------------------------------------------------------
 Nuclear repulsion after PCM non-electrostatic terms =     2112.9441926278 Hartrees.
 One-electron integrals computed using PRISM.
 NBasis=   565 RedAO= T EigKep=  1.05D-06  NBF=   565
 NBsUse=   563 1.00D-06 EigRej=  5.94D-07 NBFU=   563
 ExpMin= 4.38D-02 ExpMax= 1.06D+05 ExpMxC= 3.62D+03 IAcc=3 IRadAn=         5 AccDes= 0.00D+00
 Harris functional with IExCor= 1009 and IRadAn=       5 diagonalized for initial guess.
 HarFok:  IExCor= 1009 AccDes= 0.00D+00 IRadAn=         5 IDoV= 1 UseB2=F ITyADJ=14
 ICtDFT=  3500011 ScaDFX=  1.000000  1.000000  1.000000  1.000000
 FoFCou: FMM=F IPFlag=           0 FMFlag=      100000 FMFlg1=           0
         NFxFlg=           0 DoJE=T BraDBF=F KetDBF=T FulRan=T
         wScrn=  0.000000 ICntrl=     500 IOpCl=  0 I1Cent=   200000004 NGrid=           0
         NMat0=    1 NMatS0=      1 NMatT0=    0 NMatD0=    1 NMtDS0=    0 NMtDT0=    0
 Petite list used in FoFCou.
 Requested convergence on RMS density matrix=1.00D-08 within 128 cycles.
 Requested convergence on MAX density matrix=1.00D-06.
 Requested convergence on             energy=1.00D-06.
 No special actions if energy rises.
 Inv3:  Mode=1 IEnd=    29503488.
 Iteration    1 A*A^-1 deviation from unit magnitude is 3.33D-15 for   1747.
 Iteration    1 A*A^-1 deviation from orthogonality  is 3.10D-15 for   1216    425.
 Iteration    1 A^-1*A deviation from unit magnitude is 4.44D-15 for   2127.
 Iteration    1 A^-1*A deviation from orthogonality  is 2.41D-14 for   1907   1896.
 Error on total polarization charges =  0.02431
 SCF Done:  E(RM062X) =  -1638.71402613     A.U. after   16 cycles
            NFock= 16  Conv=0.68D-08     -V/T= 2.0030
 SMD-CDS (non-electrostatic) energy       (kcal/mol) =      -6.03
 (included in total energy above)

 **********************************************************************

            Population analysis using the SCF density.

 **********************************************************************

 Orbital symmetries:
       Occupied  (A) (A) (A) (A) (A) (A) (A) (A) (A) (A) (A) (A)
                 (A) (A) (A) (A) (A) (A) (A) (A) (A) (A) (A) (A)
                 (A) (A) (A) (A) (A) (A) (A) (A) (A) (A) (A) (A)
                 (A) (A) (A) (A) (A) (A) (A) (A) (A) (A) (A) (A)
                 (A) (A) (A) (A) (A) (A) (A) (A) (A) (A) (A) (A)
                 (A) (A) (A) (A) (A) (A) (A) (A) (A) (A) (A) (A)
                 (A) (A) (A) (A) (A) (A) (A) (A) (A) (A) (A) (A)
                 (A) (A) (A) (A) (A) (A) (A) (A)
       Virtual   (A) (A) (A) (A) (A) (A) (A) (A) (A) (A) (A) (A)
                 (A) (A) (A) (A) (A) (A) (A) (A) (A) (A) (A) (A)
                 (A) (A) (A) (A) (A) (A) (A) (A) (A) (A) (A) (A)
                 (A) (A) (A) (A) (A) (A) (A) (A) (A) (A) (A) (A)
                 (A) (A) (A) (A) (A) (A) (A) (A) (A) (A) (A) (A)
                 (A) (A) (A) (A) (A) (A) (A) (A) (A) (A) (A) (A)
                 (A) (A) (A) (A) (A) (A) (A) (A) (A) (A) (A) (A)
                 (A) (A) (A) (A) (A) (A) (A) (A) (A) (A) (A) (A)
                 (A) (A) (A) (A) (A) (A) (A) (A) (A) (A) (A) (A)
                 (A) (A) (A) (A) (A) (A) (A) (A) (A) (A) (A) (A)
                 (A) (A) (A) (A) (A) (A) (A) (A) (A) (A) (A) (A)
                 (A) (A) (A) (A) (A) (A) (A) (A) (A) (A) (A) (A)
                 (A) (A) (A) (A) (A) (A) (A) (A) (A) (A) (A) (A)
                 (A) (A) (A) (A) (A) (A) (A) (A) (A) (A) (A) (A)
                 (A) (A) (A) (A) (A) (A) (A) (A) (A) (A) (A) (A)
                 (A) (A) (A) (A) (A) (A) (A) (A) (A) (A) (A) (A)
                 (A) (A) (A) (A) (A) (A) (A) (A) (A) (A) (A) (A)
                 (A) (A) (A) (A) (A) (A) (A) (A) (A) (A) (A) (A)
                 (A) (A) (A) (A) (A) (A) (A) (A) (A) (A) (A) (A)
                 (A) (A) (A) (A) (A) (A) (A) (A) (A) (A) (A) (A)
                 (A) (A) (A) (A) (A) (A) (A) (A) (A) (A) (A) (A)
                 (A) (A) (A) (A) (A) (A) (A) (A) (A) (A) (A) (A)
                 (A) (A) (A) (A) (A) (A) (A) (A) (A) (A) (A) (A)
                 (A) (A) (A) (A) (A) (A) (A) (A) (A) (A) (A) (A)
                 (A) (A) (A) (A) (A) (A) (A) (A) (A) (A) (A) (A)
                 (A) (A) (A) (A) (A) (A) (A) (A) (A) (A) (A) (A)
                 (A) (A) (A) (A) (A) (A) (A) (A) (A) (A) (A) (A)
                 (A) (A) (A) (A) (A) (A) (A) (A) (A) (A) (A) (A)
                 (A) (A) (A) (A) (A) (A) (A) (A) (A) (A) (A) (A)
                 (A) (A) (A) (A) (A) (A) (A) (A) (A) (A) (A) (A)
                 (A) (A) (A) (A) (A) (A) (A) (A) (A) (A) (A) (A)
                 (A) (A) (A) (A) (A) (A) (A) (A) (A) (A) (A) (A)
                 (A) (A) (A) (A) (A) (A) (A) (A) (A) (A) (A) (A)
                 (A) (A) (A) (A) (A) (A) (A) (A) (A) (A) (A) (A)
                 (A) (A) (A) (A) (A) (A) (A) (A) (A) (A) (A) (A)
                 (A) (A) (A) (A) (A) (A) (A) (A) (A) (A) (A) (A)
                 (A) (A) (A) (A) (A) (A) (A) (A) (A) (A) (A) (A)
                 (A) (A) (A) (A) (A) (A) (A) (A) (A) (A) (A) (A)
                 (A) (A) (A) (A) (A) (A) (A) (A) (A) (A) (A) (A)
                 (A) (A) (A)
 The electronic state is 1-A.
 Alpha  occ. eigenvalues -- -102.63840 -25.23580 -25.23276 -25.23274 -19.52189
 Alpha  occ. eigenvalues --  -19.49893 -19.49644 -14.70469 -14.68626 -10.76175
 Alpha  occ. eigenvalues --  -10.60539 -10.56601 -10.56028 -10.55025 -10.53518
 Alpha  occ. eigenvalues --  -10.51375 -10.50881 -10.50813 -10.49932 -10.48055
 Alpha  occ. eigenvalues --  -10.47997 -10.46635 -10.46362  -9.78115  -7.50625
 Alpha  occ. eigenvalues --   -7.49953  -7.49952  -1.42836  -1.33427  -1.33097
 Alpha  occ. eigenvalues --   -1.10976  -1.08942  -0.99578  -0.98977  -0.96568
 Alpha  occ. eigenvalues --   -0.95203  -0.89189  -0.84738  -0.82919  -0.79939
 Alpha  occ. eigenvalues --   -0.78875  -0.76156  -0.72273  -0.68936  -0.66878
 Alpha  occ. eigenvalues --   -0.66323  -0.65174  -0.64200  -0.64064  -0.62313
 Alpha  occ. eigenvalues --   -0.58609  -0.56887  -0.53935  -0.53417  -0.53270
 Alpha  occ. eigenvalues --   -0.52215  -0.51022  -0.50147  -0.49629  -0.49139
 Alpha  occ. eigenvalues --   -0.48331  -0.47733  -0.47082  -0.46647  -0.46227
 Alpha  occ. eigenvalues --   -0.46073  -0.45688  -0.44690  -0.43660  -0.43144
 Alpha  occ. eigenvalues --   -0.43043  -0.41615  -0.40580  -0.40221  -0.39520
 Alpha  occ. eigenvalues --   -0.38648  -0.38133  -0.37294  -0.37124  -0.35886
 Alpha  occ. eigenvalues --   -0.35120  -0.34313  -0.34002  -0.33772  -0.31320
 Alpha  occ. eigenvalues --   -0.28495  -0.28224  -0.25737  -0.25257  -0.24825
 Alpha  occ. eigenvalues --   -0.24644  -0.20907
 Alpha virt. eigenvalues --    0.04580   0.05559   0.05713   0.05894   0.06604
 Alpha virt. eigenvalues --    0.07003   0.07476   0.07894   0.08199   0.08345
 Alpha virt. eigenvalues --    0.09136   0.09386   0.09801   0.10027   0.10504
 Alpha virt. eigenvalues --    0.10824   0.10961   0.11239   0.11637   0.12003
 Alpha virt. eigenvalues --    0.12635   0.12873   0.13349   0.13555   0.13883
 Alpha virt. eigenvalues --    0.14055   0.14141   0.15185   0.15252   0.15579
 Alpha virt. eigenvalues --    0.15996   0.16090   0.16514   0.17196   0.17335
 Alpha virt. eigenvalues --    0.17769   0.18049   0.18484   0.19213   0.19884
 Alpha virt. eigenvalues --    0.20220   0.20471   0.20699   0.21114   0.21808
 Alpha virt. eigenvalues --    0.22261   0.22572   0.23029   0.23373   0.23996
 Alpha virt. eigenvalues --    0.24283   0.24898   0.25240   0.25397   0.25888
 Alpha virt. eigenvalues --    0.26035   0.26048   0.26601   0.26683   0.26971
 Alpha virt. eigenvalues --    0.27606   0.27734   0.27922   0.27980   0.28886
 Alpha virt. eigenvalues --    0.28914   0.29273   0.29542   0.29608   0.30037
 Alpha virt. eigenvalues --    0.30601   0.30978   0.31036   0.31356   0.31610
 Alpha virt. eigenvalues --    0.32164   0.32633   0.32704   0.32749   0.32986
 Alpha virt. eigenvalues --    0.33602   0.33855   0.34443   0.34655   0.34875
 Alpha virt. eigenvalues --    0.35145   0.35281   0.35701   0.36080   0.36427
 Alpha virt. eigenvalues --    0.36800   0.36926   0.37409   0.37697   0.38094
 Alpha virt. eigenvalues --    0.38659   0.39133   0.39167   0.39647   0.39905
 Alpha virt. eigenvalues --    0.40710   0.40931   0.41035   0.41740   0.42482
 Alpha virt. eigenvalues --    0.42914   0.43459   0.43644   0.43998   0.44301
 Alpha virt. eigenvalues --    0.44637   0.45002   0.45604   0.45890   0.47615
 Alpha virt. eigenvalues --    0.47644   0.48352   0.49105   0.49318   0.49515
 Alpha virt. eigenvalues --    0.50010   0.50259   0.51023   0.51789   0.52310
 Alpha virt. eigenvalues --    0.53512   0.54320   0.54631   0.54945   0.55144
 Alpha virt. eigenvalues --    0.55689   0.56750   0.57737   0.58280   0.58770
 Alpha virt. eigenvalues --    0.59583   0.59860   0.60983   0.61611   0.62092
 Alpha virt. eigenvalues --    0.62519   0.63125   0.63612   0.64429   0.65253
 Alpha virt. eigenvalues --    0.65516   0.66472   0.66730   0.68349   0.68804
 Alpha virt. eigenvalues --    0.69398   0.69793   0.70587   0.71399   0.71485
 Alpha virt. eigenvalues --    0.72362   0.72782   0.73420   0.74016   0.74660
 Alpha virt. eigenvalues --    0.75691   0.76026   0.76201   0.77287   0.77554
 Alpha virt. eigenvalues --    0.77555   0.78342   0.78545   0.79130   0.79754
 Alpha virt. eigenvalues --    0.79937   0.80589   0.81662   0.81880   0.83070
 Alpha virt. eigenvalues --    0.83383   0.83845   0.84375   0.84533   0.85295
 Alpha virt. eigenvalues --    0.85705   0.86047   0.86540   0.87678   0.88367
 Alpha virt. eigenvalues --    0.88966   0.91280   0.93239   0.93979   0.95619
 Alpha virt. eigenvalues --    0.96494   0.96864   0.98581   0.99687   0.99772
 Alpha virt. eigenvalues --    1.00433   1.01246   1.01369   1.02367   1.03409
 Alpha virt. eigenvalues --    1.03536   1.05061   1.05268   1.05917   1.07011
 Alpha virt. eigenvalues --    1.07865   1.10013   1.10695   1.11082   1.13118
 Alpha virt. eigenvalues --    1.13608   1.15534   1.15787   1.16172   1.17629
 Alpha virt. eigenvalues --    1.19212   1.20022   1.21752   1.22185   1.23550
 Alpha virt. eigenvalues --    1.24492   1.25559   1.26906   1.28080   1.29603
 Alpha virt. eigenvalues --    1.29810   1.30574   1.32400   1.32529   1.33928
 Alpha virt. eigenvalues --    1.34744   1.35348   1.38189   1.38859   1.39483
 Alpha virt. eigenvalues --    1.39746   1.40893   1.43322   1.43739   1.45046
 Alpha virt. eigenvalues --    1.46338   1.47664   1.49649   1.50896   1.51208
 Alpha virt. eigenvalues --    1.51824   1.52509   1.53626   1.54541   1.55372
 Alpha virt. eigenvalues --    1.56705   1.57860   1.58141   1.59154   1.59311
 Alpha virt. eigenvalues --    1.59618   1.60920   1.62749   1.63852   1.64494
 Alpha virt. eigenvalues --    1.64651   1.65997   1.66191   1.66976   1.68085
 Alpha virt. eigenvalues --    1.68195   1.68545   1.70492   1.71092   1.73379
 Alpha virt. eigenvalues --    1.74538   1.75129   1.76668   1.78646   1.80432
 Alpha virt. eigenvalues --    1.81153   1.83348   1.84089   1.84587   1.85041
 Alpha virt. eigenvalues --    1.86131   1.86949   1.87118   1.88557   1.88947
 Alpha virt. eigenvalues --    1.90089   1.91715   1.92006   1.94007   1.94944
 Alpha virt. eigenvalues --    1.95773   1.96453   2.00052   2.01534   2.02277
 Alpha virt. eigenvalues --    2.03433   2.03774   2.03969   2.06369   2.08997
 Alpha virt. eigenvalues --    2.11810   2.12335   2.13876   2.14449   2.16813
 Alpha virt. eigenvalues --    2.20703   2.22275   2.22865   2.24493   2.27491
 Alpha virt. eigenvalues --    2.30547   2.31389   2.33999   2.36146   2.36451
 Alpha virt. eigenvalues --    2.37936   2.39514   2.40521   2.43945   2.46426
 Alpha virt. eigenvalues --    2.46546   2.52571   2.54400   2.55013   2.59411
 Alpha virt. eigenvalues --    2.60047   2.60156   2.60854   2.61636   2.63219
 Alpha virt. eigenvalues --    2.64544   2.65030   2.66007   2.66273   2.68363
 Alpha virt. eigenvalues --    2.68858   2.70321   2.72780   2.74052   2.75903
 Alpha virt. eigenvalues --    2.76562   2.79400   2.83563   2.86758   2.88870
 Alpha virt. eigenvalues --    2.91567   2.92064   2.93560   2.97289   2.97801
 Alpha virt. eigenvalues --    2.98538   3.01297   3.03232   3.03836   3.05648
 Alpha virt. eigenvalues --    3.06882   3.08303   3.08554   3.09570   3.09934
 Alpha virt. eigenvalues --    3.12172   3.12889   3.15453   3.17544   3.18124
 Alpha virt. eigenvalues --    3.19359   3.21802   3.24124   3.26790   3.28644
 Alpha virt. eigenvalues --    3.31141   3.31429   3.32314   3.33745   3.36151
 Alpha virt. eigenvalues --    3.39265   3.39634   3.42772   3.44547   3.45378
 Alpha virt. eigenvalues --    3.47175   3.48304   3.49634   3.49870   3.50337
 Alpha virt. eigenvalues --    3.51823   3.54636   3.58866   3.66793   3.70641
 Alpha virt. eigenvalues --    3.74938   3.78482   3.78669   3.82538   3.84696
 Alpha virt. eigenvalues --    3.84831   3.86145   3.88606   3.88871   3.90078
 Alpha virt. eigenvalues --    3.91195   3.92040   3.93048   3.96045   4.03635
 Alpha virt. eigenvalues --    4.05075   4.07595   4.07657   4.08323   4.12464
 Alpha virt. eigenvalues --    4.14163   4.14270   4.17856   4.27401   4.28110
 Alpha virt. eigenvalues --    4.29829   4.31885   4.36113   4.70991   4.76318
 Alpha virt. eigenvalues --    4.82198   4.88416   5.00272   5.02439   5.07491
 Alpha virt. eigenvalues --    5.25509   5.28084   5.28566   5.30799   5.47876
 Alpha virt. eigenvalues --    5.50569   5.52271   5.84468   5.98171   6.10781
 Alpha virt. eigenvalues --    6.49270   6.53274   6.54397   6.58432   6.61163
 Alpha virt. eigenvalues --    6.62628   6.68594   6.91078   6.96381  10.04643
 Alpha virt. eigenvalues --   23.51353  23.65276  23.68960  23.71327  23.81409
 Alpha virt. eigenvalues --   23.87043  23.87696  23.99394  24.00951  24.03159
 Alpha virt. eigenvalues --   24.04968  24.13178  24.18722  24.25081  26.00417
 Alpha virt. eigenvalues --   26.35376  26.86297  35.71486  35.81567  50.15648
 Alpha virt. eigenvalues --   50.23041  50.24220  66.93213  66.96735  67.01886
 Alpha virt. eigenvalues --  216.15627
          Condensed to atoms (all electrons):
               1          2          3          4          5          6
     1  C   23.944010   0.052271  -0.949344  -0.275065  -0.254068  -0.454244
     2  N    0.052271   8.249315   0.222939  -0.071337  -0.566327  -0.580473
     3  C   -0.949344   0.222939   9.078803   0.700497   0.221172  -1.415894
     4  O   -0.275065  -0.071337   0.700497   8.148724  -0.203058  -0.153072
     5  N   -0.254068  -0.566327   0.221172  -0.203058   8.023430   0.566177
     6  C   -0.454244  -0.580473  -1.415894  -0.153072   0.566177   8.775326
     7  C   -0.019757   0.045950   0.348651   0.021523  -0.063465  -0.940715
     8  C   -0.005201  -0.019310  -0.299418  -0.001964  -0.035968   0.472757
     9  C    0.845316  -0.020110   0.565416  -0.084441  -0.136218   0.072413
    10  C   -8.066950   0.013673  -0.869163  -0.050137  -0.005130  -0.047643
    11  C   -3.755314  -0.065890  -0.041031   0.009679  -0.024138  -0.025971
    12  C   -0.052288   0.157218  -1.021187   0.198933  -0.000782  -0.151234
    13  C   -2.533748   0.071038  -0.479243   0.192381  -0.092347  -0.412448
    14  H   -0.208126   0.083741  -0.012824  -0.004609   0.010405   0.029601
    15  H   -0.002510   0.024958  -0.030285  -0.006496   0.109386   0.022388
    16  H    0.000215   0.013829   0.058927   0.005237  -0.081017   0.348608
    17  H    0.016800   0.003553   0.055219  -0.003738  -0.064531   0.402302
    18  H   -0.005703  -0.000537  -0.019695  -0.000253   0.006304  -0.061415
    19  H    0.005482  -0.000017   0.029773  -0.000217   0.005659  -0.077922
    20  H    0.000251   0.000053   0.008597  -0.000014   0.000663  -0.026083
    21  H    0.000103  -0.000009   0.004872   0.000015  -0.001719   0.072647
    22  H   -0.000457  -0.000052  -0.010738  -0.000067   0.000360  -0.049989
    23  H   -0.058791  -0.028028  -0.000993   0.000055  -0.000601  -0.000063
    24  C   -2.353858   0.000837  -0.263260  -0.003346   0.000848  -0.009596
    25  Cl   0.100429   0.002197  -0.019024   0.000177   0.000202  -0.000539
    26  H    0.001364  -0.001873   0.001572   0.000103   0.000055  -0.000007
    27  H    0.090638  -0.029257   0.100242   0.004749   0.006501   0.012299
    28  F    0.026705   0.000583   0.000524   0.000001   0.000011   0.000006
    29  F    0.024222   0.000557   0.000186   0.000001   0.000008   0.000001
    30  F    0.196801   0.002976  -0.003516  -0.000002   0.000029  -0.000032
    31  O   -0.100233   0.019309   0.006178  -0.000706  -0.050809  -0.013067
    32  O    0.020338  -0.036642  -0.051748   0.000274  -0.014459   0.070428
    33  C    0.141296   0.003874   0.016713  -0.000913   0.036824   0.007131
    34  C   -0.040329  -0.058230  -0.058696  -0.001050  -0.069538   0.080780
    35  C   -0.014671   0.003911   0.006870   0.000069   0.011195  -0.014261
    36  H    0.000444   0.000184  -0.000450  -0.000001   0.000275   0.000246
    37  H    0.001269   0.000626   0.000719   0.000001  -0.000142  -0.000627
    38  H    0.000207  -0.000002  -0.000019   0.000000   0.000218  -0.000431
    39  H    0.000124   0.000021   0.000192   0.000000  -0.000081  -0.000089
    40  H    0.000098  -0.000031  -0.000627  -0.000001   0.000116   0.001042
               7          8          9         10         11         12
     1  C   -0.019757  -0.005201   0.845316  -8.066950  -3.755314  -0.052288
     2  N    0.045950  -0.019310  -0.020110   0.013673  -0.065890   0.157218
     3  C    0.348651  -0.299418   0.565416  -0.869163  -0.041031  -1.021187
     4  O    0.021523  -0.001964  -0.084441  -0.050137   0.009679   0.198933
     5  N   -0.063465  -0.035968  -0.136218  -0.005130  -0.024138  -0.000782
     6  C   -0.940715   0.472757   0.072413  -0.047643  -0.025971  -0.151234
     7  C    6.522922  -0.479058   0.005439   0.000200   0.000556   0.002194
     8  C   -0.479058   6.494624  -0.000132  -0.000019  -0.000442  -0.002526
     9  C    0.005439  -0.000132  20.795026   4.134102 -16.013078  -1.246755
    10  C    0.000200  -0.000019   4.134102  41.150933 -16.390147  -6.319213
    11  C    0.000556  -0.000442 -16.013078 -16.390147  50.795675  -2.119867
    12  C    0.002194  -0.002526  -1.246755  -6.319213  -2.119867  23.417944
    13  C    0.019616  -0.014978  -4.370731  -5.251375   0.095111  -4.901382
    14  H   -0.006234   0.000353   0.085221   0.057053   0.017131  -0.030605
    15  H   -0.043333   0.010086   0.000163  -0.006870  -0.001018  -0.000403
    16  H    0.008445  -0.011736   0.005962   0.000280   0.000120  -0.003014
    17  H   -0.071195  -0.022439  -0.001507   0.000439  -0.000061   0.000409
    18  H    0.467636  -0.061187   0.001500  -0.000020   0.000021  -0.000085
    19  H    0.439455  -0.071119  -0.000821   0.000025  -0.000012   0.000072
    20  H    0.037771   0.324537  -0.000027   0.000001  -0.000000   0.000004
    21  H   -0.126379   0.401190  -0.000025  -0.000000  -0.000000   0.000003
    22  H   -0.000783   0.405346   0.000061  -0.000002   0.000001  -0.000009
    23  H   -0.000019   0.000009   0.236678   0.002812   0.068050  -0.030302
    24  C    0.000074  -0.000038   0.777325  -1.599053  -5.106603  -1.669210
    25  Cl  -0.000004  -0.000003   0.351972   0.582288  -1.761828   0.344840
    26  H    0.000002  -0.000000  -0.010062   0.075803   0.054039   0.099557
    27  H   -0.000400   0.000108  -0.036024  -0.060610  -0.025183  -0.045421
    28  F    0.000000   0.000000  -0.020879   0.206935  -0.102162   0.049910
    29  F   -0.000000   0.000000  -0.022761   0.210155  -0.100242   0.050107
    30  F    0.000001  -0.000000   0.468226  -0.519275  -0.320473   0.021182
    31  O   -0.001846  -0.000112   0.196450  -0.042350  -0.026975   0.011654
    32  O   -0.017797   0.006833  -0.018286  -0.003148  -0.000151   0.000166
    33  C    0.006733  -0.010181  -0.084861  -0.049141  -0.003734  -0.009123
    34  C   -0.037060   0.009525   0.032199   0.014671   0.008373  -0.008124
    35  C    0.010711  -0.003703   0.001282   0.012324   0.002731  -0.000716
    36  H   -0.000280  -0.000028   0.001339  -0.001084  -0.000226   0.000007
    37  H    0.000551   0.000022  -0.000415  -0.001320  -0.000136   0.000046
    38  H    0.000514   0.000165  -0.000089  -0.000096  -0.000009   0.000003
    39  H   -0.000035  -0.000010  -0.000132  -0.000036  -0.000001   0.000002
    40  H   -0.000642  -0.000034   0.000065  -0.000030  -0.000006  -0.000001
              13         14         15         16         17         18
     1  C   -2.533748  -0.208126  -0.002510   0.000215   0.016800  -0.005703
     2  N    0.071038   0.083741   0.024958   0.013829   0.003553  -0.000537
     3  C   -0.479243  -0.012824  -0.030285   0.058927   0.055219  -0.019695
     4  O    0.192381  -0.004609  -0.006496   0.005237  -0.003738  -0.000253
     5  N   -0.092347   0.010405   0.109386  -0.081017  -0.064531   0.006304
     6  C   -0.412448   0.029601   0.022388   0.348608   0.402302  -0.061415
     7  C    0.019616  -0.006234  -0.043333   0.008445  -0.071195   0.467636
     8  C   -0.014978   0.000353   0.010086  -0.011736  -0.022439  -0.061187
     9  C   -4.370731   0.085221   0.000163   0.005962  -0.001507   0.001500
    10  C   -5.251375   0.057053  -0.006870   0.000280   0.000439  -0.000020
    11  C    0.095111   0.017131  -0.001018   0.000120  -0.000061   0.000021
    12  C   -4.901382  -0.030605  -0.000403  -0.003014   0.000409  -0.000085
    13  C   22.965302   0.018229  -0.021109  -0.011216   0.003791  -0.001296
    14  H    0.018229   0.318084   0.028922  -0.000076   0.000004   0.000027
    15  H   -0.021109   0.028922   0.339037   0.002275   0.001149   0.007162
    16  H   -0.011216  -0.000076   0.002275   0.475906  -0.048624   0.005464
    17  H    0.003791   0.000004   0.001149  -0.048624   0.478383  -0.008522
    18  H   -0.001296   0.000027   0.007162   0.005464  -0.008522   0.433744
    19  H    0.000722   0.000063   0.000189  -0.009628   0.006509  -0.036576
    20  H    0.000073   0.000001  -0.000065  -0.000482   0.003554  -0.008001
    21  H    0.000050   0.000000  -0.000066  -0.000274  -0.000117  -0.003772
    22  H   -0.000130  -0.000000   0.000044   0.003215  -0.000926   0.006663
    23  H    0.014812   0.012892  -0.000006  -0.000000   0.000000  -0.000001
    24  C    0.738912   0.007462  -0.000627  -0.000012   0.000024  -0.000009
    25  Cl  -0.441496  -0.000002  -0.000006  -0.000000   0.000000  -0.000000
    26  H    0.094226   0.000004  -0.000000   0.000000  -0.000000   0.000000
    27  H    0.312473  -0.000614   0.000072  -0.000021  -0.000031  -0.000000
    28  F    0.010348   0.000018  -0.000000   0.000000  -0.000000   0.000000
    29  F    0.010230   0.000014   0.000000  -0.000000   0.000000  -0.000000
    30  F   -0.034052  -0.000435  -0.000002   0.000000  -0.000000   0.000000
    31  O    0.005165   0.081281   0.013371   0.000006  -0.000012   0.000039
    32  O   -0.009191   0.009783   0.073830  -0.001190   0.000781  -0.005662
    33  C   -0.060320  -0.020608  -0.009617  -0.001232   0.000744   0.004285
    34  C   -0.028326   0.049562   0.052094  -0.000671   0.000241  -0.001507
    35  C   -0.002062  -0.003836  -0.006671   0.000106  -0.000026   0.002107
    36  H    0.000108  -0.000333  -0.000122   0.000000  -0.000000   0.000004
    37  H    0.000178  -0.000337  -0.000000   0.000000   0.000000   0.000003
    38  H    0.000021  -0.000015  -0.000297  -0.000000   0.000001  -0.000064
    39  H    0.000015  -0.000002   0.000051  -0.000000   0.000000  -0.000002
    40  H   -0.000009  -0.000015  -0.000315  -0.000000  -0.000000  -0.000033
              19         20         21         22         23         24
     1  C    0.005482   0.000251   0.000103  -0.000457  -0.058791  -2.353858
     2  N   -0.000017   0.000053  -0.000009  -0.000052  -0.028028   0.000837
     3  C    0.029773   0.008597   0.004872  -0.010738  -0.000993  -0.263260
     4  O   -0.000217  -0.000014   0.000015  -0.000067   0.000055  -0.003346
     5  N    0.005659   0.000663  -0.001719   0.000360  -0.000601   0.000848
     6  C   -0.077922  -0.026083   0.072647  -0.049989  -0.000063  -0.009596
     7  C    0.439455   0.037771  -0.126379  -0.000783  -0.000019   0.000074
     8  C   -0.071119   0.324537   0.401190   0.405346   0.000009  -0.000038
     9  C   -0.000821  -0.000027  -0.000025   0.000061   0.236678   0.777325
    10  C    0.000025   0.000001  -0.000000  -0.000002   0.002812  -1.599053
    11  C   -0.000012  -0.000000  -0.000000   0.000001   0.068050  -5.106603
    12  C    0.000072   0.000004   0.000003  -0.000009  -0.030302  -1.669210
    13  C    0.000722   0.000073   0.000050  -0.000130   0.014812   0.738912
    14  H    0.000063   0.000001   0.000000  -0.000000   0.012892   0.007462
    15  H    0.000189  -0.000065  -0.000066   0.000044  -0.000006  -0.000627
    16  H   -0.009628  -0.000482  -0.000274   0.003215  -0.000000  -0.000012
    17  H    0.006509   0.003554  -0.000117  -0.000926   0.000000   0.000024
    18  H   -0.036576  -0.008001  -0.003772   0.006663  -0.000001  -0.000009
    19  H    0.446825   0.006545  -0.003973  -0.008551   0.000000   0.000005
    20  H    0.006545   0.460345  -0.026841  -0.037892   0.000000   0.000000
    21  H   -0.003973  -0.026841   0.447278  -0.026196   0.000000   0.000000
    22  H   -0.008551  -0.037892  -0.026196   0.465957  -0.000000  -0.000000
    23  H    0.000000   0.000000   0.000000  -0.000000   0.317289   0.052724
    24  C    0.000005   0.000000   0.000000  -0.000000   0.052724  14.734583
    25  Cl   0.000000  -0.000000   0.000000  -0.000000  -0.001009  -0.250718
    26  H   -0.000000  -0.000000  -0.000000   0.000000   0.000036   0.022924
    27  H    0.000000   0.000000   0.000000  -0.000000  -0.000080  -0.002695
    28  F   -0.000000  -0.000000   0.000000  -0.000000   0.000326  -0.012600
    29  F    0.000000   0.000000   0.000000  -0.000000   0.000188  -0.012163
    30  F   -0.000000  -0.000000  -0.000000   0.000000   0.011123   0.320108
    31  O   -0.000048   0.000001   0.000001  -0.000002   0.007230   0.000336
    32  O   -0.000391   0.000134   0.000077  -0.000114   0.001062  -0.000161
    33  C    0.000826   0.000229  -0.000090  -0.000036   0.006920  -0.015221
    34  C    0.001248   0.000012   0.000092  -0.000047   0.000311  -0.005034
    35  C   -0.000013   0.000005  -0.000057   0.000025   0.000370  -0.002076
    36  H    0.000001   0.000000  -0.000000   0.000000  -0.000146   0.000337
    37  H   -0.000002   0.000000  -0.000000   0.000000   0.000016   0.000003
    38  H   -0.000004  -0.000000   0.000000  -0.000000   0.000000   0.000010
    39  H    0.000000  -0.000000   0.000000  -0.000000  -0.000001  -0.000005
    40  H    0.000004   0.000000   0.000001  -0.000000  -0.000001   0.000010
              25         26         27         28         29         30
     1  C    0.100429   0.001364   0.090638   0.026705   0.024222   0.196801
     2  N    0.002197  -0.001873  -0.029257   0.000583   0.000557   0.002976
     3  C   -0.019024   0.001572   0.100242   0.000524   0.000186  -0.003516
     4  O    0.000177   0.000103   0.004749   0.000001   0.000001  -0.000002
     5  N    0.000202   0.000055   0.006501   0.000011   0.000008   0.000029
     6  C   -0.000539  -0.000007   0.012299   0.000006   0.000001  -0.000032
     7  C   -0.000004   0.000002  -0.000400   0.000000  -0.000000   0.000001
     8  C   -0.000003  -0.000000   0.000108   0.000000   0.000000  -0.000000
     9  C    0.351972  -0.010062  -0.036024  -0.020879  -0.022761   0.468226
    10  C    0.582288   0.075803  -0.060610   0.206935   0.210155  -0.519275
    11  C   -1.761828   0.054039  -0.025183  -0.102162  -0.100242  -0.320473
    12  C    0.344840   0.099557  -0.045421   0.049910   0.050107   0.021182
    13  C   -0.441496   0.094226   0.312473   0.010348   0.010230  -0.034052
    14  H   -0.000002   0.000004  -0.000614   0.000018   0.000014  -0.000435
    15  H   -0.000006  -0.000000   0.000072  -0.000000   0.000000  -0.000002
    16  H   -0.000000   0.000000  -0.000021   0.000000  -0.000000   0.000000
    17  H    0.000000  -0.000000  -0.000031  -0.000000   0.000000  -0.000000
    18  H   -0.000000   0.000000  -0.000000   0.000000  -0.000000   0.000000
    19  H    0.000000  -0.000000   0.000000  -0.000000   0.000000  -0.000000
    20  H   -0.000000  -0.000000   0.000000  -0.000000   0.000000  -0.000000
    21  H    0.000000  -0.000000   0.000000   0.000000   0.000000  -0.000000
    22  H   -0.000000   0.000000  -0.000000  -0.000000  -0.000000   0.000000
    23  H   -0.001009   0.000036  -0.000080   0.000326   0.000188   0.011123
    24  C   -0.250718   0.022924  -0.002695  -0.012600  -0.012163   0.320108
    25  Cl  17.734812  -0.018397   0.000130  -0.017336  -0.017042   0.011468
    26  H   -0.018397   0.409759  -0.003865   0.000002   0.000002   0.000023
    27  H    0.000130  -0.003865   0.369515  -0.000000  -0.000001  -0.000008
    28  F   -0.017336   0.000002  -0.000000   8.994775  -0.048691  -0.037748
    29  F   -0.017042   0.000002  -0.000001  -0.048691   8.994138  -0.038517
    30  F    0.011468   0.000023  -0.000008  -0.037748  -0.038517   9.053661
    31  O   -0.000141  -0.000005   0.000035   0.000012   0.000026   0.000870
    32  O   -0.000001   0.000000  -0.000001  -0.000000   0.000000  -0.000008
    33  C   -0.000718  -0.000011   0.000409   0.000183   0.000159   0.002566
    34  C    0.000014  -0.000001   0.000053  -0.000008   0.000000  -0.001546
    35  C   -0.000004   0.000000  -0.000001   0.000000  -0.000001  -0.000052
    36  H   -0.000000  -0.000000   0.000000  -0.000000   0.000000   0.000009
    37  H   -0.000000  -0.000000   0.000000   0.000000   0.000000   0.000002
    38  H    0.000000  -0.000000   0.000000   0.000000   0.000000  -0.000000
    39  H    0.000000  -0.000000  -0.000000   0.000000   0.000000  -0.000000
    40  H    0.000000  -0.000000   0.000000   0.000000   0.000000   0.000000
              31         32         33         34         35         36
     1  C   -0.100233   0.020338   0.141296  -0.040329  -0.014671   0.000444
     2  N    0.019309  -0.036642   0.003874  -0.058230   0.003911   0.000184
     3  C    0.006178  -0.051748   0.016713  -0.058696   0.006870  -0.000450
     4  O   -0.000706   0.000274  -0.000913  -0.001050   0.000069  -0.000001
     5  N   -0.050809  -0.014459   0.036824  -0.069538   0.011195   0.000275
     6  C   -0.013067   0.070428   0.007131   0.080780  -0.014261   0.000246
     7  C   -0.001846  -0.017797   0.006733  -0.037060   0.010711  -0.000280
     8  C   -0.000112   0.006833  -0.010181   0.009525  -0.003703  -0.000028
     9  C    0.196450  -0.018286  -0.084861   0.032199   0.001282   0.001339
    10  C   -0.042350  -0.003148  -0.049141   0.014671   0.012324  -0.001084
    11  C   -0.026975  -0.000151  -0.003734   0.008373   0.002731  -0.000226
    12  C    0.011654   0.000166  -0.009123  -0.008124  -0.000716   0.000007
    13  C    0.005165  -0.009191  -0.060320  -0.028326  -0.002062   0.000108
    14  H    0.081281   0.009783  -0.020608   0.049562  -0.003836  -0.000333
    15  H    0.013371   0.073830  -0.009617   0.052094  -0.006671  -0.000122
    16  H    0.000006  -0.001190  -0.001232  -0.000671   0.000106   0.000000
    17  H   -0.000012   0.000781   0.000744   0.000241  -0.000026  -0.000000
    18  H    0.000039  -0.005662   0.004285  -0.001507   0.002107   0.000004
    19  H   -0.000048  -0.000391   0.000826   0.001248  -0.000013   0.000001
    20  H    0.000001   0.000134   0.000229   0.000012   0.000005   0.000000
    21  H    0.000001   0.000077  -0.000090   0.000092  -0.000057  -0.000000
    22  H   -0.000002  -0.000114  -0.000036  -0.000047   0.000025   0.000000
    23  H    0.007230   0.001062   0.006920   0.000311   0.000370  -0.000146
    24  C    0.000336  -0.000161  -0.015221  -0.005034  -0.002076   0.000337
    25  Cl  -0.000141  -0.000001  -0.000718   0.000014  -0.000004  -0.000000
    26  H   -0.000005   0.000000  -0.000011  -0.000001   0.000000  -0.000000
    27  H    0.000035  -0.000001   0.000409   0.000053  -0.000001   0.000000
    28  F    0.000012  -0.000000   0.000183  -0.000008   0.000000  -0.000000
    29  F    0.000026   0.000000   0.000159   0.000000  -0.000001   0.000000
    30  F    0.000870  -0.000008   0.002566  -0.001546  -0.000052   0.000009
    31  O    8.479843  -0.140587   0.279078  -0.223688   0.020751  -0.005158
    32  O   -0.140587   8.329029   0.376090  -0.143045   0.011908   0.000159
    33  C    0.279078   0.376090   6.451236  -1.482594   0.377747  -0.024947
    34  C   -0.223688  -0.143045  -1.482594   8.039468  -0.580036   0.404913
    35  C    0.020751   0.011908   0.377747  -0.580036   6.102126  -0.043719
    36  H   -0.005158   0.000159  -0.024947   0.404913  -0.043719   0.451434
    37  H   -0.004700   0.001737  -0.013436   0.395759  -0.044291  -0.033614
    38  H    0.000232  -0.008286  -0.000433  -0.033795   0.391022  -0.007061
    39  H   -0.000726   0.003968   0.058680  -0.115251   0.401058  -0.002978
    40  H   -0.000459  -0.007407  -0.014167  -0.022276   0.391076   0.005908
              37         38         39         40
     1  C    0.001269   0.000207   0.000124   0.000098
     2  N    0.000626  -0.000002   0.000021  -0.000031
     3  C    0.000719  -0.000019   0.000192  -0.000627
     4  O    0.000001   0.000000   0.000000  -0.000001
     5  N   -0.000142   0.000218  -0.000081   0.000116
     6  C   -0.000627  -0.000431  -0.000089   0.001042
     7  C    0.000551   0.000514  -0.000035  -0.000642
     8  C    0.000022   0.000165  -0.000010  -0.000034
     9  C   -0.000415  -0.000089  -0.000132   0.000065
    10  C   -0.001320  -0.000096  -0.000036  -0.000030
    11  C   -0.000136  -0.000009  -0.000001  -0.000006
    12  C    0.000046   0.000003   0.000002  -0.000001
    13  C    0.000178   0.000021   0.000015  -0.000009
    14  H   -0.000337  -0.000015  -0.000002  -0.000015
    15  H   -0.000000  -0.000297   0.000051  -0.000315
    16  H    0.000000  -0.000000  -0.000000  -0.000000
    17  H    0.000000   0.000001   0.000000  -0.000000
    18  H    0.000003  -0.000064  -0.000002  -0.000033
    19  H   -0.000002  -0.000004   0.000000   0.000004
    20  H    0.000000  -0.000000  -0.000000   0.000000
    21  H   -0.000000   0.000000   0.000000   0.000001
    22  H    0.000000  -0.000000  -0.000000  -0.000000
    23  H    0.000016   0.000000  -0.000001  -0.000001
    24  C    0.000003   0.000010  -0.000005   0.000010
    25  Cl  -0.000000   0.000000   0.000000   0.000000
    26  H   -0.000000  -0.000000  -0.000000  -0.000000
    27  H    0.000000   0.000000  -0.000000   0.000000
    28  F    0.000000   0.000000   0.000000   0.000000
    29  F    0.000000   0.000000   0.000000   0.000000
    30  F    0.000002  -0.000000  -0.000000   0.000000
    31  O   -0.004700   0.000232  -0.000726  -0.000459
    32  O    0.001737  -0.008286   0.003968  -0.007407
    33  C   -0.013436  -0.000433   0.058680  -0.014167
    34  C    0.395759  -0.033795  -0.115251  -0.022276
[...]
 00172,0.00000227,-0.00000311,-0.00000208,0.00000575,-0.00001102,0.0000
 0265,-0.00000093,-0.00000882,-0.00000653,0.00000157,-0.00005648,-0.000
 01970,-0.00002612,-0.00000044,-0.00013783,-0.00004108,0.00001546,-0.00
 000537,-0.00000029,0.00000179,-0.00000156,-0.00000182,-0.00000967,0.00
 000677,-0.00000331,-0.00000770,0.00002608,0.00002260,0.00001113,0.0000
 2625,0.00001494,-0.00001219,0.00008179,0.00000765,0.00287478,0.0003306
 7,0.00396455,-0.00097239,-0.00502326,0.00503490,-0.02489190,-0.0073443
 9,-0.02477589,-0.05946750,-0.07128841,-0.05319188,0.01570776,0.0055996
 8,0.01332325,0.06121584,0.07733878,-0.00014226,0.00005507,0.00000613,0
 .00010932,-0.00009550,0.00003022,-0.00008391,0.00004873,0.00000048,0.0
 0001490,-0.00004888,0.00000313,0.00004462,-0.00003600,0.00005498,0.000
 00389,-0.00000061,-0.00000615,-0.00000093,0.00000387,-0.00000780,0.000
 00371,-0.00000361,0.00000327,0.00003196,0.00001075,-0.00000233,-0.0000
 0226,0.00001775,0.00000110,0.00001387,-0.00000114,-0.00000390,-0.00001
 541,0.00000766,0.00000185,0.00003196,-0.00002686,-0.00000072,-0.000011
 31,0.00013572,-0.00006758,-0.00000280,0.00001876,-0.00008998,-0.000000
 53,-0.00000290,-0.00000162,0.00000069,-0.00000143,0.00000453,0.0000016
 8,-0.00000220,-0.00000790,0.00000431,0.00000664,0.00000788,-0.00000186
 ,-0.00000016,0.00000373,0.00000108,0.00000114,-0.00000083,-0.00000243,
 -0.00000342,-0.00000200,-0.00003067,-0.00003683,-0.00000608,0.00001465
 ,-0.00021711,0.00001630,0.00001113,-0.00000122,-0.00000095,0.00000139,
 0.00000020,-0.00000060,-0.00000545,0.00000511,-0.00000089,-0.00000507,
 0.00004026,0.00001360,0.00000033,0.00003739,-0.00001159,-0.00001932,0.
 00013390,-0.00001539,0.00097683,-0.00066811,0.00013858,0.00062543,0.00
 074349,-0.00157378,0.00439644,0.00413864,0.00426467,-0.11879988,-0.050
 21499,-0.14228699,0.00505222,0.00246886,0.00383834,0.12994310,0.053339
 76,0.15338024,0.00007141,-0.00001443,-0.00000483,0.00002754,0.00011709
 ,0.00000479,-0.00016889,0.00000146,0.00003879,0.00004525,-0.00000655,-
 0.00001416,0.00003641,-0.00018763,-0.00000317,0.00000869,-0.00001025,-
 0.00000251,0.00000130,0.00002470,0.00003859,-0.00000036,-0.00000673,-0
 .00001041,-0.00002444,-0.00001491,0.00000863,0.00001000,-0.00000759,0.
 00000374,-0.00000288,0.00000332,-0.00000347,0.00000071,-0.00000012,0.0
 0000229,-0.00001062,0.00000458,-0.00000748,-0.00004241,-0.00023242,-0.
 00001945,-0.00001026,0.00025728,-0.00003107,-0.00000372,-0.00000876,0.
 00000186,-0.00000156,0.00000344,-0.00000371,0.00000740,-0.00000080,-0.
 00000813,-0.00000351,-0.00000472,-0.00001138,0.00000222,0.00000468,-0.
 00000421,0.00000142,0.00000208,0.00000506,-0.00000336,-0.00000679,0.00
 000002,0.00003350,0.00000409,-0.00001320,0.00000770,0.00010064,-0.0000
 2081,-0.00000966,0.00000364,0.00000047,-0.00000144,0.00000050,0.000001
 33,0.00000046,-0.00000056,0.00000238,-0.00000348,-0.00001793,0.0000008
 2,-0.00000245,-0.00001704,0.00000689,0.00000768,-0.00006355,0.00001365
 ,-0.00021521,0.00181866,-0.00118721,-0.00033237,-0.00252174,-0.0008225
 3,-0.00437365,-0.00147605,0.00720693,-0.07595444,-0.00803320,0.0861830
 3,-0.00951448,-0.00294556,0.02592093,0.00851043,0.00359650,-0.02295608
 ,0.08423118,-0.00012135,0.00006204,0.00000149,0.00016558,0.00005262,0.
 00004001,-0.00034554,0.00015124,0.00003103,0.00007530,-0.00017393,0.00
 000374,0.00010283,-0.00053867,0.00009593,0.00011054,0.00000796,-0.0000
 2850,-0.00002091,0.00002476,0.00003626,0.00000678,-0.00001378,-0.00001
 263,0.00003205,0.00000083,-0.00001565,0.00000253,-0.00000160,-0.000010
 79,0.00000695,0.00000020,0.00000386,-0.00001205,0.00000389,-0.00000350
 ,0.00002460,-0.00003018,0.00000146,-0.00005905,0.00004531,-0.00012852,
 0.00000286,0.00085191,-0.00022527,-0.00002492,-0.00002326,0.00000502,-
 0.00001378,-0.00000633,0.00001305,0.00003977,-0.00001020,-0.00003145,0
 .00000613,0.00000823,0.00000133,-0.00000181,-0.00000265,0.00000341,-0.
 00001208,0.00000248,-0.00000066,-0.00000991,-0.00000702,0.00000279,-0.
 00002968,0.00000991,0.00002233,0.00000430,-0.00004314,0.00004973,0.000
 01080,-0.00000377,-0.00000130,0.00000140,-0.00000107,0.00000157,-0.000
 00692,0.00000556,0.00000195,0.00000496,0.00000599,-0.00001661,-0.00000
 649,0.00000587,-0.00001495,-0.00000888,0.00002906,-0.00001723,0.000131
 45,-0.00025846,-0.00350716,-0.00332533,-0.00616582,-0.00251290,-0.0094
 6970,-0.00039572,0.03439662,-0.00760799,-0.04861006,0.02992701,0.00695
 006,0.00121118,-0.01938250,0.00398840,0.00070920,-0.01041354,0.0073338
 6,0.05399050,0.00014307,-0.00006937,-0.00001255,-0.00015738,0.00003967
 ,0.00001488,0.00025841,-0.00010533,-0.00003501,-0.00005543,0.00010449,
 -0.00000120,-0.00007765,0.00027079,0.00000281,-0.00003662,0.00000200,0
 .00001139,0.00000243,-0.00002573,-0.00002679,-0.00000476,0.00000941,0.
 00000663,-0.00003144,-0.00000255,0.00002149,0.00000037,-0.00001357,0.0
 0000815,-0.00001198,0.00000009,0.00000160,0.00001699,-0.00000860,0.000
 00116,-0.00003312,0.00003314,0.00000300,0.00002801,-0.00004230,0.00002
 648,-0.00002869,-0.00037164,0.00001559,0.00000969,0.00001623,-0.000001
 09,0.00000124,-0.00000174,-0.00000341,-0.00001911,0.00000786,0.0000190
 5,-0.00000084,-0.00000338,0.00000060,-0.00000007,-0.00000236,-0.000001
 16,0.00000162,-0.00000366,-0.00000208,0.00000737,0.00001025,0.00000111
 ,0.00001843,0.00002414,-0.00003403,-0.00001850,0.00016847,-0.00008847,
 -0.00001204,0.00000194,0.00000152,-0.00000133,-0.00000027,-0.00000199,
 0.00000708,-0.00000700,-0.00000351,-0.00000558,-0.00003011,0.00001760,
 0.00001313,-0.00002545,0.00003444,0.00001785,-0.00010735,0.00003483,-0
 .00121738,0.00061855,0.00206325,-0.00036027,0.00184707,0.00031525,0.00
 321418,-0.00242754,-0.00594679,0.08492621,0.02722833,-0.27791942,0.000
 38293,-0.00010915,-0.00163936,0.00641147,0.00272936,-0.01947469,-0.094
 25299,-0.02866443,0.30025319,0.00002444,0.00000267,0.00000411,-0.00001
 403,0.00006644,-0.00002957,-0.00000712,-0.00001967,0.00001934,0.000002
 28,0.00002522,-0.00001314,-0.00001252,0.00001619,-0.00002428,0.0000136
 3,0.00000414,0.00001804,-0.00000862,-0.00002018,-0.00002291,-0.0000007
 9,0.00000195,0.00000686,-0.00001180,-0.00001333,-0.00000853,0.00000282
 ,0.00000227,-0.00000246,0.00000479,-0.00000019,-0.00000083,-0.00000339
 ,0.00000260,-0.00000170,-0.00000130,0.00000418,-0.00000354,-0.00000094
 ,-0.00010938,0.00003233,-0.00000068,-0.00002540,0.00002419,-0.00000366
 ,0.00000519,-0.00000287,0.00000218,0.00000277,-0.00000448,0.00001043,-
 0.00000082,0.00001367,0.00000003,0.00000215,0.00000024,0.00000122,-0.0
 0000266,-0.00000128,-0.00000783,-0.00000260,-0.00000494,0.00000173,0.0
 0000743,0.00000154,0.00001188,-0.00001119,0.00001808,0.00003069,-0.000
 03014,0.00004165,-0.00000699,0.00000438,-0.00000051,-0.00000063,0.0000
 0132,0.00000122,0.00000087,0.00000041,0.00000259,-0.00000358,0.0000048
 9,-0.00000709,-0.00001688,0.00000105,-0.00002135,-0.00001098,0.0000239
 1,-0.00001387,0.00029806,0.00027235,-0.00043706,0.00073280,0.00016319,
 -0.00056890,-0.00063542,-0.00134691,0.00062173,-0.01006150,-0.00256004
 ,0.02766936,-0.07743661,-0.00964681,0.08458911,0.00073522,-0.00101420,
 -0.00022326,-0.00415183,0.00370901,0.00022268,0.08514553,0.00011148,-0
 .00004208,-0.00000665,-0.00010640,0.00005679,0.00001526,0.00015779,-0.
 00011324,-0.00000050,-0.00002961,0.00010009,-0.00001087,-0.00003961,0.
 00019915,-0.00000621,-0.00002276,0.00000017,0.00001333,-0.00000609,-0.
 00004187,-0.00003611,-0.00000597,0.00001627,0.00001001,-0.00003119,-0.
 00001129,0.00001205,0.00000305,-0.00000499,0.00000097,0.00000547,0.000
 00041,-0.00000222,0.00000436,-0.00000255,0.00000271,-0.00001921,0.0000
 2168,-0.00000487,0.00001554,-0.00010874,0.00000496,-0.00004797,-0.0002
 8093,0.00000578,0.00000331,0.00001712,0.00000076,0.00000011,-0.0000037
 8,-0.00000510,-0.00002491,0.00000338,0.00002109,0.00000056,0.00000132,
 0.00000461,-0.00000108,-0.00000324,-0.00000284,0.00000125,-0.00000514,
 -0.00000110,0.00000991,0.00001176,0.00000161,0.00001922,-0.00000462,-0
 .00000771,0.00003213,0.00003798,-0.00001578,-0.00001789,0.00000766,0.0
 0000085,-0.00000152,0.00000152,-0.00000049,0.00000513,-0.00000453,-0.0
 0000132,-0.00001173,-0.00000686,0.00000969,-0.00001183,-0.00000856,-0.
 00000116,-0.00000500,-0.00001953,0.00000581,-0.00075010,0.00023122,0.0
 0040487,-0.00076847,-0.00024955,0.00030335,0.00139856,0.00041899,-0.00
 141686,0.00599350,0.00174560,-0.01889604,-0.01017853,-0.04997581,0.026
 94600,-0.00069537,0.00073204,0.00046464,0.00330442,-0.00203964,-0.0004
 0082,0.00762640,0.05108616,0.00001737,-0.00002079,-0.00000452,-0.00006
 790,-0.00007029,0.00004046,0.00013488,-0.00001979,-0.00002925,-0.00003
 704,0.00000592,0.00001149,-0.00005006,0.00006080,0.00002627,0.00003707
 ,0.00001333,-0.00000076,-0.00001709,-0.00004172,-0.00004683,0.00000021
 ,0.00000894,0.00001283,0.00000100,0.00000709,0.00000764,-0.00000502,-0
 .00000249,0.00000380,-0.00001014,0.00000028,0.00000074,0.00000827,-0.0
 0000505,0.00000085,-0.00000653,0.00000862,0.00000195,0.00001594,0.0000
 8968,-0.00003829,-0.00001200,-0.00005977,-0.00002423,-0.00000681,0.000
 01004,-0.00000068,-0.00000585,-0.00000797,0.00000703,0.00000305,-0.000
 00691,0.00001308,0.00000550,0.00000871,0.00001204,-0.00000291,-0.00000
 907,0.00000483,-0.00001137,-0.00000444,-0.00000941,0.00000449,0.000013
 87,0.00000258,-0.00000214,0.00000586,-0.00001064,-0.00001804,0.0000518
 3,-0.00003148,0.00000204,-0.00000344,0.00000070,0.00000067,-0.00000139
 ,-0.00000124,0.00000237,-0.00000203,-0.00000220,0.00000160,-0.00000921
 ,0.00000532,0.00000963,-0.00000720,0.00001411,0.00000923,-0.00003363,0
 .00001072,-0.00069471,-0.00054367,0.00023062,-0.00167193,0.00017024,0.
 00106136,0.00225996,0.00161828,-0.00074881,0.00114699,-0.00052424,-0.0
 0294374,0.08536567,0.02463233,-0.28696946,0.00040224,-0.00026363,0.000
 67902,0.00065188,-0.00023166,0.00157925,-0.09441072,-0.02815116,0.3088
 1833,0.00011950,-0.00000900,-0.00001373,0.00004516,0.00033788,-0.00007
 318,-0.00020253,-0.00001228,0.00003230,0.00006150,0.00005741,-0.000019
 99,0.00006091,-0.00002242,0.00000305,-0.00005036,-0.00001689,0.0000035
 8,0.00001351,0.00002015,0.00000452,0.00000621,-0.00000843,-0.00000022,
 -0.00003966,-0.00003515,0.00001031,0.00001124,-0.00000272,-0.00000213,
 0.00000599,0.00000686,-0.00000080,-0.00000507,0.00000409,-0.00000122,-
 0.00001920,0.00001457,0.00000066,-0.00006386,-0.00050373,0.00010327,-0
 .00001378,-0.00000672,0.00000814,0.00000831,-0.00000298,-0.00000147,0.
 00001102,0.00000214,-0.00000175,-0.00000608,0.00000439,-0.00001918,-0.
 00000122,0.00000872,0.00000769,-0.00000106,0.00000111,0.00000302,0.000
 00992,0.00000292,0.00000015,-0.00000404,-0.00000675,-0.00000150,0.0000
 4543,-0.00000981,0.00000032,0.00003937,0.00003862,-0.00000558,-0.00001
 721,0.00000856,0.00000037,-0.00000300,0.00000203,0.00000021,0.00000067
 ,-0.00000032,0.00000008,-0.00001247,-0.00000695,0.00000790,-0.00001592
 ,-0.00001002,-0.00000619,-0.00000914,-0.00001920,0.00000318,-0.0004600
 9,0.00338777,-0.00028366,0.00207205,-0.00056043,-0.00033650,-0.0064982
 9,-0.00156378,0.00207181,0.00690193,0.02982070,-0.00581225,-0.05911895
 ,-0.05159363,0.00854088,0.00103893,-0.00086611,-0.00052660,0.00108346,
 -0.00092821,0.00022595,-0.00345657,-0.00984767,0.00016785,0.06273755,-
 0.00032922,0.00007326,0.00002693,0.00013813,-0.00047958,0.00006472,-0.
 00002321,0.00025247,-0.00004961,-0.00002465,-0.00026965,0.00005528,-0.
 00000835,-0.00031222,0.00003861,0.00009750,0.00002180,-0.00004247,-0.0
 0000758,0.00002798,0.00002608,0.00000979,-0.00001220,-0.00000870,0.000
 10367,0.00006786,-0.00002794,-0.00002313,0.00001075,-0.00000047,-0.000
 03487,-0.00000958,0.00000585,0.00000844,-0.00000235,-0.00000095,0.0000
 5047,-0.00005395,0.00000470,0.00001806,0.00080706,-0.00013709,0.000103
 86,0.00051259,-0.00005737,-0.00001607,-0.00002582,0.00000174,-0.000013
 56,-0.00000600,0.00002217,0.00003514,-0.00000493,-0.00003631,0.0000092
 1,0.00001136,0.00001277,-0.00000357,-0.00000222,0.00000976,-0.00000872
 ,0.00000763,-0.00000149,-0.00001172,-0.00001481,-0.00000080,-0.0000857
 5,0.00003737,0.00000358,-0.00014771,-0.00003291,0.00002525,0.00006171,
 -0.00002959,-0.00000175,0.00000645,-0.00000670,0.00000027,-0.00000955,
 0.00000791,0.00000024,0.00004985,0.00000607,-0.00003701,0.00005475,0.0
 0001577,0.00002043,0.00003718,0.00000396,-0.00000587,0.00160062,-0.003
 32360,-0.00000976,0.00038144,-0.00110948,0.00007932,0.00201325,0.00278
 307,-0.00073374,-0.00567452,-0.01632383,0.00330716,-0.05097279,-0.2937
 1540,0.04281590,0.00023857,0.00057983,0.00047135,-0.00008357,0.0003460
 8,-0.00061243,-0.00052411,-0.00182632,0.00071797,0.05452629,0.32016040
 ,0.00001414,-0.00000659,0.00000436,-0.00002864,-0.00002153,0.00000964,
 0.00005078,-0.00002734,-0.00000304,-0.00001156,0.00001873,-0.00000248,
 -0.00000749,0.00004864,0.00001525,-0.00000598,0.00000114,0.00000160,-0
 .00000338,-0.00001585,-0.00001201,-0.00000040,0.00000403,0.00000478,-0
 .00000486,-0.00000161,-0.00000797,0.00000089,-0.00000115,0.00000154,0.
 00000136,-0.00000144,-0.00000149,0.00000095,-0.00000070,0.00000166,-0.
 00000145,0.00000301,-0.00000378,0.00001326,0.00002143,-0.00000934,-0.0
 0001706,-0.00007345,-0.00001681,0.00000069,0.00000392,0.00000095,0.000
 00063,-0.00000338,0.00000029,-0.00000674,0.00000136,-0.00000507,0.0000
 0217,0.00000834,0.00000740,-0.00000195,-0.00000266,0.00000066,0.000001
 01,-0.00000110,-0.00000125,0.00000196,0.00000267,0.00000074,0.00000121
 ,-0.00000089,0.00000457,0.00001201,0.00000248,0.00001682,-0.00000377,0
 .00000163,-0.00000013,-0.00000004,0.00000033,0.00000047,0.00000114,-0.
 00000098,0.00000042,-0.00000095,-0.00000080,-0.00000471,-0.00000754,-0
 .00000212,-0.00000830,-0.00000277,0.00000092,-0.00000478,-0.00008738,-
 0.00042808,0.00013460,-0.00048131,0.00039952,0.00061529,0.00162124,0.0
 0017820,0.00024144,-0.00135134,-0.00569664,-0.00022404,0.00845296,0.04
 291878,-0.05773993,-0.00006558,0.00045709,-0.00000914,-0.00048428,-0.0
 0010444,0.00012488,0.00534697,0.03042952,-0.00295479,-0.01055487,-0.04
 735164,0.05568267,-0.00000091,0.00001420,-0.00001453,0.00004474,0.0000
 9900,0.00000190,-0.00010878,-0.00000431,-0.00000421,0.00002808,0.00001
 620,0.00000234,0.00004000,-0.00001277,0.00004152,-0.00000908,-0.000000
 53,-0.00000475,-0.00000701,-0.00000797,-0.00003244,0.00000348,-0.00000
 200,0.00000922,-0.00000386,-0.00000892,0.00002021,0.00000670,0.0000031
 1,0.00000282,0.00001512,0.00000421,-0.00000307,-0.00001112,0.00000429,
 0.00000080,0.00000392,-0.00000250,0.00000505,-0.00001301,-0.00013960,0
 .00000902,-0.00001271,-0.00000582,-0.00003902,0.00000060,0.00000388,-0
 .00000185,0.00000343,-0.00000299,0.00000407,0.00000492,0.00000590,0.00
 000161,0.00000696,0.00000876,0.00001161,-0.00000348,-0.00000284,0.0000
 0449,0.00000009,-0.00000221,-0.00000371,-0.00000023,0.00000401,-0.0000
 0051,0.00000553,-0.00002149,-0.00001360,0.00002832,-0.00008347,-0.0000
 2858,-0.00000721,0.00000529,0.00000007,-0.00000099,0.00000103,-0.00000
 176,-0.00000178,0.00000117,-0.00000293,-0.00001479,0.00001601,0.000022
 49,-0.00000368,0.00001451,0.00000327,-0.00001373,0.00005172,0.00000287
 ,0.00069856,0.00054507,0.00003478,0.00203629,0.00004279,0.00020374,-0.
 00170768,-0.00199430,0.00045415,-0.02098289,-0.00766534,-0.01787303,-0
 .19103231,-0.05733637,-0.12268981,-0.00364009,0.00379802,0.00154654,0.
 00074424,-0.00070555,0.00041609,0.00883506,0.00393073,0.00678236,-0.00
 427418,-0.00154176,-0.00239400,0.20934347,0.00009468,-0.00003349,0.000
 00143,-0.00008449,0.00006087,0.00000167,0.00012504,-0.00009563,0.00000
 402,-0.00002207,0.00008708,-0.00001679,-0.00003648,0.00016066,-0.00002
 162,-0.00001766,-0.00000237,0.00001934,0.00000080,-0.00001820,-0.00000
 142,-0.00001325,0.00001491,-0.00000214,-0.00002953,-0.00001194,-0.0000
 0217,0.00000407,-0.00000251,0.00000839,0.00000279,0.00000073,-0.000005
 68,0.00000436,-0.00000158,0.00000412,-0.00001741,0.00001798,-0.0000067
 1,0.00001024,-0.00010615,0.00001364,-0.00003304,-0.00023110,0.00001037
 ,0.00000322,0.00001142,-0.00000028,-0.00000067,0.00000392,-0.00001255,
 -0.00001362,0.00000587,0.00003180,-0.00000869,-0.00001640,-0.00002001,
 0.00000567,0.00000367,-0.00000788,0.00000329,-0.00000452,0.00000299,0.
 00000879,0.00000796,-0.00000010,0.00001785,-0.00000189,-0.00000125,0.0
 0002466,0.00003112,-0.00000728,-0.00001452,0.00000604,0.00000045,-0.00
 000133,0.00000122,0.00000006,0.00000425,-0.00000346,0.00000060,-0.0000
 0855,-0.00000576,0.00000540,-0.00000942,-0.00000662,-0.00000237,-0.000
 00288,-0.00001599,0.00000246,-0.00063234,0.00025022,-0.00013839,-0.000
 56595,-0.00016617,-0.00012667,0.00126284,0.00036125,0.00062130,0.01435
 578,0.00590786,0.01315515,-0.05903683,-0.07071247,-0.05023279,0.003403
 08,-0.00207576,-0.00037518,-0.00092004,0.00080052,-0.00007700,0.003377
 54,0.00006396,0.00259573,-0.02221103,-0.00817208,-0.02075932,0.0609708
 6,0.07388685,-0.00004722,0.00002552,-0.00000154,0.00009512,0.00002745,
 -0.00001097,-0.00016033,0.00004958,0.00000561,0.00004188,-0.00003569,0
 .00000517,0.00007404,-0.00009269,0.00002224,-0.00004984,-0.00001367,-0
 .00002225,0.00002014,0.00003393,0.00003598,0.00000391,-0.00000887,-0.0
 0001340,0.00001011,0.00000356,0.00000418,0.00000419,0.00000089,-0.0000
 0057,0.00000396,0.00000234,-0.00000099,-0.00000664,0.00000257,0.000000
 66,0.00001014,-0.00001307,0.00000104,-0.00001929,-0.00001970,0.0000003
 6,0.00000489,0.00010430,-0.00002572,0.00000894,-0.00001284,0.00000376,
 0.00000798,-0.00000433,0.00000723,-0.00000979,0.00001186,-0.00005627,-
 0.00000294,0.00001822,0.00001549,-0.00000305,0.00000047,0.00000796,0.0
 0002148,0.00000575,0.00000427,-0.00000742,-0.00001717,-0.00000128,-0.0
 0000681,-0.00000018,-0.00000109,-0.00000577,-0.00003956,-0.00000058,0.
 00000456,-0.00000115,-0.00000031,-0.00000001,-0.00000044,-0.00000048,-
 0.00000383,0.00000229,-0.00000082,0.00000104,0.00000751,0.00000060,0.0
 0000421,0.00000839,0.00000199,-0.00000142,0.00002183,-0.00000241,0.000
 51684,0.00029062,-0.00031211,0.00139185,-0.00025300,0.00011198,-0.0019
 0473,-0.00081545,0.00056850,0.00490356,0.00244692,0.00382898,-0.123095
 15,-0.04870905,-0.15300160,0.00126441,-0.00076613,0.00112286,-0.000230
 99,0.00068507,0.00063342,-0.02283042,-0.00969006,-0.01872869,0.0064655
 5,0.00140528,0.00413903,0.13352682,0.05533870,0.16165978\\0.00000082,0
 .00000294,-0.00000045,0.00000548,-0.00000126,-0.00000862,-0.00000228,-
 0.00000457,-0.00000296,0.00000314,0.00000129,-0.00000631,0.00000069,-0
 .00000083,0.00000379,0.00000160,-0.00000095,-0.00000454,-0.00000010,-0
 .00000227,-0.00000270,-0.00000023,-0.00000261,-0.00000377,-0.00000041,
 0.00000173,0.00000025,0.00000059,0.00000095,-0.00000079,0.00000093,0.0
 0000209,-0.00000252,0.00000050,0.00000024,-0.00000480,-0.00000104,0.00
 000147,-0.00000449,0.00000308,-0.00000504,0.00000284,-0.00000514,0.000
 00213,-0.00000591,0.00000043,-0.00000152,-0.00000538,-0.00000064,-0.00
 000423,-0.00000394,-0.00000050,-0.00000226,-0.00000135,0.00000101,0.00
 000078,-0.00000141,-0.00000068,-0.00000448,-0.00000390,-0.00000028,-0.
 00000212,-0.00000256,0.00000040,-0.00000159,-0.00000572,0.00000007,0.0
 0000138,0.00000211,0.00000003,0.00000325,0.00000202,0.00000082,0.00000
 188,-0.00000363,0.00000105,0.00000038,-0.00000661,-0.00000044,-0.00000
 103,-0.00000616,0.00000108,0.00000458,0.00000180,-0.00000042,0.0000007
 1,0.00000202,0.00000031,0.00000260,0.00000414,-0.00001718,0.00000380,-
 0.00000284,0.00000267,-0.00000738,-0.00000889,0.00001216,0.00000185,0.
 00003785,-0.00000125,0.00000347,0.00000149,-0.00000260,0.00000149,0.00
 000509,-0.00000149,-0.00000253,0.00000609,-0.00000002,0.00000609,0.000
 00411,-0.00000151,-0.00000163,0.00000818,-0.00000076,-0.00000020,0.000
 01063,0.00000014,0.00000139,0.00000784\\\@


 BRING ME INTO THE COMPANY OF THOSE WHO SEEK TRUTH,
 AND DELIVER ME FROM THOSE WHO HAVE FOUND IT.
 Job cpu time:       0 days 11 hours 55 minutes 11.3 seconds.
 File lengths (MBytes):  RWF=   1419 Int=      0 D2E=      0 Chk=     35 Scr=      1
 Normal termination of Gaussian 09 at Thu Nov 14 23:36:39 2019.
pbs_rusage has been removed.
Please contact help@nci.org.au if you require this functionality.
