 Entering Gaussian System, Link 0=/apps/gaussian/g09e01/g09/g09
 Initial command:
 /apps/gaussian/g09e01/g09/l1.exe "/jobfs/local/3594992.r-man2/Gau-21737.inp" -scrdir="/jobfs/local/3594992.r-man2/"
 Entering Link 1 = /apps/gaussian/g09e01/g09/l1.exe PID=     21738.
  
 Copyright (c) 1988,1990,1992,1993,1995,1998,2003,2009,2015,
            Gaussian, Inc.  All Rights Reserved.
  
 This is part of the Gaussian(R) 09 program.  It is based on
 the Gaussian(R) 03 system (copyright 2003, Gaussian, Inc.),
 the Gaussian(R) 98 system (copyright 1998, Gaussian, Inc.),
 the Gaussian(R) 94 system (copyright 1995, Gaussian, Inc.),
 the Gaussian 92(TM) system (copyright 1992, Gaussian, Inc.),
 the Gaussian 90(TM) system (copyright 1990, Gaussian, Inc.),
 the Gaussian 88(TM) system (copyright 1988, Gaussian, Inc.),
 the Gaussian 86(TM) system (copyright 1986, Carnegie Mellon
 University), and the Gaussian 82(TM) system (copyright 1983,
 Carnegie Mellon University). Gaussian is a federally registered
 trademark of Gaussian, Inc.
  
 This software contains proprietary and confidential information,
 including trade secrets, belonging to Gaussian, Inc.
  
 This software is provided under written license and may be
 used, copied, transmitted, or stored only in accord with that
 written license.
  
 The following legend is applicable only to US Government
 contracts under FAR:
  
                    RESTRICTED RIGHTS LEGEND
  
 Use, reproduction and disclosure by the US Government is
 subject to restrictions as set forth in subparagraphs (a)
 and (c) of the Commercial Computer Software - Restricted
 Rights clause in FAR 52.227-19.
  
 Gaussian, Inc.
 340 Quinnipiac St., Bldg. 40, Wallingford CT 06492
  
  
 ---------------------------------------------------------------
 Warning -- This program may not be used in any manner that
 competes with the business of Gaussian, Inc. or will provide
 assistance to any competitor of Gaussian, Inc.  The licensee
 of this program is prohibited from giving any competitor of
 Gaussian, Inc. access to this program.  By using this program,
 the user acknowledges that Gaussian, Inc. is engaged in the
 business of creating and licensing software in the field of
 computational chemistry and represents and warrants to the
 licensee that it is not a competitor of Gaussian, Inc. and that
 it will not use this program in any manner prohibited above.
 ---------------------------------------------------------------
  

 Cite this work as:
 Gaussian 09, Revision E.01,
 M. J. Frisch, G. W. Trucks, H. B. Schlegel, G. E. Scuseria, 
 M. A. Robb, J. R. Cheeseman, G. Scalmani, V. Barone, B. Mennucci, 
 G. A. Petersson, H. Nakatsuji, M. Caricato, X. Li, H. P. Hratchian, 
 A. F. Izmaylov, J. Bloino, G. Zheng, J. L. Sonnenberg, M. Hada, 
 M. Ehara, K. Toyota, R. Fukuda, J. Hasegawa, M. Ishida, T. Nakajima, 
 Y. Honda, O. Kitao, H. Nakai, T. Vreven, J. A. Montgomery, Jr., 
 J. E. Peralta, F. Ogliaro, M. Bearpark, J. J. Heyd, E. Brothers, 
 K. N. Kudin, V. N. Staroverov, T. Keith, R. Kobayashi, J. Normand, 
 K. Raghavachari, A. Rendell, J. C. Burant, S. S. Iyengar, J. Tomasi, 
 M. Cossi, N. Rega, J. M. Millam, M. Klene, J. E. Knox, J. B. Cross, 
 V. Bakken, C. Adamo, J. Jaramillo, R. Gomperts, R. E. Stratmann, 
 O. Yazyev, A. J. Austin, R. Cammi, C. Pomelli, J. W. Ochterski, 
 R. L. Martin, K. Morokuma, V. G. Zakrzewski, G. A. Voth, 
 P. Salvador, J. J. Dannenberg, S. Dapprich, A. D. Daniels, 
 O. Farkas, J. B. Foresman, J. V. Ortiz, J. Cioslowski, 
 and D. J. Fox, Gaussian, Inc., Wallingford CT, 2013.
 
 ******************************************
 Gaussian 09:  ES64L-G09RevE.01 30-Nov-2015
                14-Nov-2019 
 ******************************************
 %chk=29_carboxy.M062X_6-311pGd_opt_Pentadecane_GD3.chk
 %mem=196608000
 %nproc=8
 Will use up to    8 processors via shared memory.
 ----------------------------------------------------------------------
 # M062X/6-311+G* SCF=Tight INT(grid=ultrafine) OPT IOP(2/17=4) Empiric
 alDispersion=GD3 SCRF=(SMD,Solvent=n-Pentadecane) maxdisk=2684354560
 ----------------------------------------------------------------------
 1/14=-1,18=20,19=15,26=4,38=1/1,3;
 2/9=110,12=2,17=4,18=5,40=1/2;
 3/5=4,6=6,7=11,11=2,16=1,25=1,30=1,70=32201,71=1,72=151,74=-55,75=-5,124=31/1,2,3;
 4//1;
 5/5=2,32=2,38=5,53=151/2;
 6/7=2,8=2,9=2,10=2,28=1/1;
 7//1,2,3,16;
 1/14=-1,18=20,19=15,26=4/3(2);
 2/9=110,17=4/2;
 99//99;
 2/9=110,17=4/2;
 3/5=4,6=6,7=11,11=2,16=1,25=1,30=1,70=32205,71=1,72=151,74=-55,75=-5,124=31/1,2,3;
 4/5=5,16=3,69=1/1;
 5/5=2,32=2,38=5,53=151/2;
 7//1,2,3,16;
 1/14=-1,18=20,19=15,26=4/3(-5);
 2/9=110,17=4/2;
 6/7=2,8=2,9=2,10=2,19=2,28=1/1;
 99/9=1/99;
 ---------------------------------------------
 29_carboxy.M062X_6-311pGd_opt_Pentadecane_GD3
 ---------------------------------------------
 Symbolic Z-matrix:
 Charge = -1 Multiplicity = 1
 C                    -6.1264    1.29365   0.59073 
 N                    -4.84362   0.78278   0.58552 
 C                    -3.68603   1.42161   0.16801 
 O                    -3.65775   2.5743   -0.25489 
 N                    -2.58555   0.64293   0.28614 
 C                    -1.29598   1.11594  -0.17183 
 C                    -0.19259   0.20096   0.34291 
 C                     1.18072   0.64513  -0.14711 
 C                    -6.4796    2.58162   0.16017 
 C                    -7.80712   2.99826   0.20779 
 C                    -8.80126   2.14605   0.68215 
 C                    -8.46013   0.86937   1.10932 
 C                    -7.14422   0.44684   1.0653 
 H                    -4.76226  -0.19008   0.9355 
 H                    -2.67729  -0.35162   0.53674 
 H                    -1.14262   2.13835   0.18512 
 H                    -1.265     1.15898  -1.26914 
 H                    -0.39725  -0.82522   0.02303 
 H                    -0.22251   0.19262   1.43687 
 H                     1.23534   0.62892  -1.23943 
 H                     1.96973  -0.00805   0.2327 
 H                     1.40777   1.66427   0.17948 
 H                    -5.71349   3.24616  -0.20741 
 C                    -8.14634   4.38467  -0.26442 
 Cl                   -10.48088   2.63331   0.75885 
 H                    -9.23294   0.2054    1.47793 
 H                    -6.87596  -0.55107   1.39759 
 F                    -7.06878   5.06094  -0.68231 
 F                    -9.01261   4.37686  -1.29481 
 F                    -8.71162   5.13194   0.70189 
 O                    -4.90118  -1.83075   1.52672 
 O                    -2.76583  -2.12023   0.93653 
 C                    -3.86342  -2.52813   1.37612 
 C                    -3.98468  -4.00368   1.77799 
 C                    -2.73145  -4.83284   1.54096 
 H                    -4.8381   -4.41686   1.23131 
 H                    -4.27422  -4.02412   2.83362 
 H                    -2.44697  -4.81821   0.4871 
 H                    -2.8845   -5.8743    1.83954 
 H                    -1.88603  -4.43631   2.10601 
 
 Add virtual bond connecting atoms O31        and H14        Dist= 3.31D+00.
 Add virtual bond connecting atoms O32        and H15        Dist= 3.43D+00.

 GradGradGradGradGradGradGradGradGradGradGradGradGradGradGradGradGradGrad
 Berny optimization.
 Initialization pass.
                           ----------------------------
                           !    Initial Parameters    !
                           ! (Angstroms and Degrees)  !
 --------------------------                            --------------------------
 ! Name  Definition              Value          Derivative Info.                !
 --------------------------------------------------------------------------------
 ! R1    R(1,2)                  1.3808         estimate D2E/DX2                !
 ! R2    R(1,9)                  1.4032         estimate D2E/DX2                !
 ! R3    R(1,13)                 1.4065         estimate D2E/DX2                !
 ! R4    R(2,3)                  1.3865         estimate D2E/DX2                !
 ! R5    R(2,14)                 1.0371         estimate D2E/DX2                !
 ! R6    R(3,4)                  1.2281         estimate D2E/DX2                !
 ! R7    R(3,5)                  1.3533         estimate D2E/DX2                !
 ! R8    R(5,6)                  1.4479         estimate D2E/DX2                !
 ! R9    R(5,15)                 1.0297         estimate D2E/DX2                !
 ! R10   R(6,7)                  1.523          estimate D2E/DX2                !
 ! R11   R(6,16)                 1.0937         estimate D2E/DX2                !
 ! R12   R(6,17)                 1.0986         estimate D2E/DX2                !
 ! R13   R(7,8)                  1.5243         estimate D2E/DX2                !
 ! R14   R(7,18)                 1.0942         estimate D2E/DX2                !
 ! R15   R(7,19)                 1.0944         estimate D2E/DX2                !
 ! R16   R(8,20)                 1.0938         estimate D2E/DX2                !
 ! R17   R(8,21)                 1.0924         estimate D2E/DX2                !
 ! R18   R(8,22)                 1.094          estimate D2E/DX2                !
 ! R19   R(9,10)                 1.3922         estimate D2E/DX2                !
 ! R20   R(9,23)                 1.0787         estimate D2E/DX2                !
 ! R21   R(10,11)                1.3927         estimate D2E/DX2                !
 ! R22   R(10,24)                1.5034         estimate D2E/DX2                !
 ! R23   R(11,12)                1.3888         estimate D2E/DX2                !
 ! R24   R(11,25)                1.7506         estimate D2E/DX2                !
 ! R25   R(12,13)                1.3828         estimate D2E/DX2                !
 ! R26   R(12,26)                1.0835         estimate D2E/DX2                !
 ! R27   R(13,27)                1.0854         estimate D2E/DX2                !
 ! R28   R(14,31)                1.7495         estimate D2E/DX2                !
 ! R29   R(15,32)                1.8154         estimate D2E/DX2                !
 ! R30   R(24,28)                1.3391         estimate D2E/DX2                !
 ! R31   R(24,29)                1.3462         estimate D2E/DX2                !
 ! R32   R(24,30)                1.346          estimate D2E/DX2                !
 ! R33   R(31,33)                1.2594         estimate D2E/DX2                !
 ! R34   R(32,33)                1.2507         estimate D2E/DX2                !
 ! R35   R(33,34)                1.5341         estimate D2E/DX2                !
 ! R36   R(34,35)                1.5213         estimate D2E/DX2                !
 ! R37   R(34,36)                1.0945         estimate D2E/DX2                !
 ! R38   R(34,37)                1.0948         estimate D2E/DX2                !
 ! R39   R(35,38)                1.0917         estimate D2E/DX2                !
 ! R40   R(35,39)                1.0942         estimate D2E/DX2                !
 ! R41   R(35,40)                1.0914         estimate D2E/DX2                !
 ! A1    A(2,1,9)              124.9099         estimate D2E/DX2                !
 ! A2    A(2,1,13)             116.7954         estimate D2E/DX2                !
 ! A3    A(9,1,13)             118.2946         estimate D2E/DX2                !
 ! A4    A(1,2,3)              127.3227         estimate D2E/DX2                !
 ! A5    A(1,2,14)             114.7512         estimate D2E/DX2                !
 ! A6    A(3,2,14)             117.9259         estimate D2E/DX2                !
 ! A7    A(2,3,4)              123.735          estimate D2E/DX2                !
 ! A8    A(2,3,5)              112.8009         estimate D2E/DX2                !
 ! A9    A(4,3,5)              123.462          estimate D2E/DX2                !
 ! A10   A(3,5,6)              120.5756         estimate D2E/DX2                !
 ! A11   A(3,5,15)             120.301          estimate D2E/DX2                !
 ! A12   A(6,5,15)             118.1541         estimate D2E/DX2                !
 ! A13   A(5,6,7)              110.0035         estimate D2E/DX2                !
 ! A14   A(5,6,16)             109.089          estimate D2E/DX2                !
 ! A15   A(5,6,17)             110.7229         estimate D2E/DX2                !
 ! A16   A(7,6,16)             110.4693         estimate D2E/DX2                !
 ! A17   A(7,6,17)             109.9187         estimate D2E/DX2                !
 ! A18   A(16,6,17)            106.5826         estimate D2E/DX2                !
 ! A19   A(6,7,8)              111.6543         estimate D2E/DX2                !
 ! A20   A(6,7,18)             109.2152         estimate D2E/DX2                !
 ! A21   A(6,7,19)             108.8207         estimate D2E/DX2                !
 ! A22   A(8,7,18)             110.3541         estimate D2E/DX2                !
 ! A23   A(8,7,19)             110.3771         estimate D2E/DX2                !
 ! A24   A(18,7,19)            106.2585         estimate D2E/DX2                !
 ! A25   A(7,8,20)             111.2056         estimate D2E/DX2                !
 ! A26   A(7,8,21)             111.39           estimate D2E/DX2                !
 ! A27   A(7,8,22)             111.2526         estimate D2E/DX2                !
 ! A28   A(20,8,21)            107.5937         estimate D2E/DX2                !
 ! A29   A(20,8,22)            107.5514         estimate D2E/DX2                !
 ! A30   A(21,8,22)            107.6562         estimate D2E/DX2                !
 ! A31   A(1,9,10)             120.2795         estimate D2E/DX2                !
 ! A32   A(1,9,23)             119.4223         estimate D2E/DX2                !
 ! A33   A(10,9,23)            120.2982         estimate D2E/DX2                !
 ! A34   A(9,10,11)            120.6098         estimate D2E/DX2                !
 ! A35   A(9,10,24)            118.7116         estimate D2E/DX2                !
 ! A36   A(11,10,24)           120.6786         estimate D2E/DX2                !
 ! A37   A(10,11,12)           119.4686         estimate D2E/DX2                !
 ! A38   A(10,11,25)           121.9717         estimate D2E/DX2                !
 ! A39   A(12,11,25)           118.5597         estimate D2E/DX2                !
 ! A40   A(11,12,13)           120.3218         estimate D2E/DX2                !
 ! A41   A(11,12,26)           119.5231         estimate D2E/DX2                !
 ! A42   A(13,12,26)           120.1551         estimate D2E/DX2                !
 ! A43   A(1,13,12)            121.0257         estimate D2E/DX2                !
 ! A44   A(1,13,27)            118.5523         estimate D2E/DX2                !
 ! A45   A(12,13,27)           120.422          estimate D2E/DX2                !
 ! A46   A(10,24,28)           112.4691         estimate D2E/DX2                !
 ! A47   A(10,24,29)           112.3499         estimate D2E/DX2                !
 ! A48   A(10,24,30)           112.411          estimate D2E/DX2                !
 ! A49   A(28,24,29)           106.3735         estimate D2E/DX2                !
 ! A50   A(28,24,30)           106.3565         estimate D2E/DX2                !
 ! A51   A(29,24,30)           106.4078         estimate D2E/DX2                !
 ! A52   A(14,31,33)           114.4235         estimate D2E/DX2                !
 ! A53   A(15,32,33)           115.9717         estimate D2E/DX2                !
 ! A54   A(31,33,32)           125.7734         estimate D2E/DX2                !
 ! A55   A(31,33,34)           115.8592         estimate D2E/DX2                !
 ! A56   A(32,33,34)           118.3673         estimate D2E/DX2                !
 ! A57   A(33,34,35)           114.7276         estimate D2E/DX2                !
 ! A58   A(33,34,36)           107.0911         estimate D2E/DX2                !
 ! A59   A(33,34,37)           106.9448         estimate D2E/DX2                !
 ! A60   A(35,34,36)           111.0248         estimate D2E/DX2                !
 ! A61   A(35,34,37)           110.973          estimate D2E/DX2                !
 ! A62   A(36,34,37)           105.5658         estimate D2E/DX2                !
 ! A63   A(34,35,38)           110.9641         estimate D2E/DX2                !
 ! A64   A(34,35,39)           111.1634         estimate D2E/DX2                !
 ! A65   A(34,35,40)           111.0646         estimate D2E/DX2                !
 ! A66   A(38,35,39)           108.2185         estimate D2E/DX2                !
 ! A67   A(38,35,40)           107.0411         estimate D2E/DX2                !
 ! A68   A(39,35,40)           108.2329         estimate D2E/DX2                !
 ! A69   L(2,14,31,7,-1)       189.0175         estimate D2E/DX2                !
 ! A70   L(5,15,32,1,-1)       182.4688         estimate D2E/DX2                !
 ! A71   L(2,14,31,7,-2)       180.8161         estimate D2E/DX2                !
 ! A72   L(5,15,32,1,-2)       178.8147         estimate D2E/DX2                !
 ! D1    D(9,1,2,3)              0.0623         estimate D2E/DX2                !
 ! D2    D(9,1,2,14)          -179.7864         estimate D2E/DX2                !
 ! D3    D(13,1,2,3)          -179.9805         estimate D2E/DX2                !
 ! D4    D(13,1,2,14)            0.1708         estimate D2E/DX2                !
 ! D5    D(2,1,9,10)          -179.9982         estimate D2E/DX2                !
 ! D6    D(2,1,9,23)            -0.0349         estimate D2E/DX2                !
 ! D7    D(13,1,9,10)            0.0451         estimate D2E/DX2                !
 ! D8    D(13,1,9,23)         -179.9915         estimate D2E/DX2                !
 ! D9    D(2,1,13,12)          179.9762         estimate D2E/DX2                !
 ! D10   D(2,1,13,27)           -0.0789         estimate D2E/DX2                !
 ! D11   D(9,1,13,12)           -0.0637         estimate D2E/DX2                !
 ! D12   D(9,1,13,27)          179.8813         estimate D2E/DX2                !
 ! D13   D(1,2,3,4)              0.7333         estimate D2E/DX2                !
 ! D14   D(1,2,3,5)           -179.78           estimate D2E/DX2                !
 ! D15   D(14,2,3,4)          -179.4222         estimate D2E/DX2                !
 ! D16   D(14,2,3,5)             0.0645         estimate D2E/DX2                !
 ! D17   D(1,2,31,33)          168.0449         estimate D2E/DX2                !
 ! D18   D(3,2,31,33)          -11.0168         estimate D2E/DX2                !
 ! D19   D(2,3,5,6)            176.5214         estimate D2E/DX2                !
 ! D20   D(2,3,5,15)             7.9925         estimate D2E/DX2                !
 ! D21   D(4,3,5,6)             -3.9902         estimate D2E/DX2                !
 ! D22   D(4,3,5,15)          -172.5192         estimate D2E/DX2                !
 ! D23   D(3,5,6,7)            167.6564         estimate D2E/DX2                !
 ! D24   D(3,5,6,16)            46.338          estimate D2E/DX2                !
 ! D25   D(3,5,6,17)           -70.651          estimate D2E/DX2                !
 ! D26   D(15,5,6,7)           -23.5735         estimate D2E/DX2                !
 ! D27   D(15,5,6,16)         -144.8918         estimate D2E/DX2                !
 ! D28   D(15,5,6,17)           98.1192         estimate D2E/DX2                !
 ! D29   D(3,5,32,33)          -14.2904         estimate D2E/DX2                !
 ! D30   D(6,5,32,33)          177.6409         estimate D2E/DX2                !
 ! D31   D(5,6,7,8)            178.5644         estimate D2E/DX2                !
 ! D32   D(5,6,7,18)            56.2418         estimate D2E/DX2                !
 ! D33   D(5,6,7,19)           -59.3546         estimate D2E/DX2                !
 ! D34   D(16,6,7,8)           -60.9466         estimate D2E/DX2                !
 ! D35   D(16,6,7,18)          176.7308         estimate D2E/DX2                !
 ! D36   D(16,6,7,19)           61.1344         estimate D2E/DX2                !
 ! D37   D(17,6,7,8)            56.3938         estimate D2E/DX2                !
 ! D38   D(17,6,7,18)          -65.9288         estimate D2E/DX2                !
 ! D39   D(17,6,7,19)          178.4748         estimate D2E/DX2                !
 ! D40   D(6,7,8,20)           -60.5592         estimate D2E/DX2                !
 ! D41   D(6,7,8,21)           179.4293         estimate D2E/DX2                !
 ! D42   D(6,7,8,22)            59.3065         estimate D2E/DX2                !
 ! D43   D(18,7,8,20)           61.1077         estimate D2E/DX2                !
 ! D44   D(18,7,8,21)          -58.9039         estimate D2E/DX2                !
 ! D45   D(18,7,8,22)         -179.0266         estimate D2E/DX2                !
 ! D46   D(19,7,8,20)          178.2596         estimate D2E/DX2                !
 ! D47   D(19,7,8,21)           58.248          estimate D2E/DX2                !
 ! D48   D(19,7,8,22)          -61.8748         estimate D2E/DX2                !
 ! D49   D(1,9,10,11)            0.0155         estimate D2E/DX2                !
 ! D50   D(1,9,10,24)         -179.9018         estimate D2E/DX2                !
 ! D51   D(23,9,10,11)        -179.9476         estimate D2E/DX2                !
 ! D52   D(23,9,10,24)           0.1352         estimate D2E/DX2                !
 ! D53   D(9,10,11,12)          -0.059          estimate D2E/DX2                !
 ! D54   D(9,10,11,25)         179.9493         estimate D2E/DX2                !
 ! D55   D(24,10,11,12)        179.8566         estimate D2E/DX2                !
 ! D56   D(24,10,11,25)         -0.1351         estimate D2E/DX2                !
 ! D57   D(9,10,24,28)          -0.2001         estimate D2E/DX2                !
 ! D58   D(9,10,24,29)         119.7917         estimate D2E/DX2                !
 ! D59   D(9,10,24,30)        -120.2135         estimate D2E/DX2                !
 ! D60   D(11,10,24,28)        179.8827         estimate D2E/DX2                !
 ! D61   D(11,10,24,29)        -60.1255         estimate D2E/DX2                !
 ! D62   D(11,10,24,30)         59.8693         estimate D2E/DX2                !
 ! D63   D(10,11,12,13)          0.0407         estimate D2E/DX2                !
 ! D64   D(10,11,12,26)       -179.9599         estimate D2E/DX2                !
 ! D65   D(25,11,12,13)       -179.9673         estimate D2E/DX2                !
 ! D66   D(25,11,12,26)          0.0322         estimate D2E/DX2                !
 ! D67   D(11,12,13,1)           0.0211         estimate D2E/DX2                !
 ! D68   D(11,12,13,27)       -179.9228         estimate D2E/DX2                !
 ! D69   D(26,12,13,1)        -179.9783         estimate D2E/DX2                !
 ! D70   D(26,12,13,27)          0.0778         estimate D2E/DX2                !
 ! D71   D(14,31,33,32)          4.9148         estimate D2E/DX2                !
 ! D72   D(14,31,33,34)       -175.2103         estimate D2E/DX2                !
 ! D73   D(15,32,33,31)          1.9737         estimate D2E/DX2                !
 ! D74   D(15,32,33,34)       -177.8985         estimate D2E/DX2                !
 ! D75   D(31,33,34,35)        177.9971         estimate D2E/DX2                !
 ! D76   D(31,33,34,36)         54.2974         estimate D2E/DX2                !
 ! D77   D(31,33,34,37)        -58.4807         estimate D2E/DX2                !
 ! D78   D(32,33,34,35)         -2.1182         estimate D2E/DX2                !
 ! D79   D(32,33,34,36)       -125.8179         estimate D2E/DX2                !
 ! D80   D(32,33,34,37)        121.4039         estimate D2E/DX2                !
 ! D81   D(33,34,35,38)        -59.0637         estimate D2E/DX2                !
 ! D82   D(33,34,35,39)       -179.5512         estimate D2E/DX2                !
 ! D83   D(33,34,35,40)         59.8752         estimate D2E/DX2                !
 ! D84   D(36,34,35,38)         62.5135         estimate D2E/DX2                !
 ! D85   D(36,34,35,39)        -57.9739         estimate D2E/DX2                !
 ! D86   D(36,34,35,40)       -178.5475         estimate D2E/DX2                !
 ! D87   D(37,34,35,38)        179.5925         estimate D2E/DX2                !
 ! D88   D(37,34,35,39)         59.1051         estimate D2E/DX2                !
 ! D89   D(37,34,35,40)        -61.4686         estimate D2E/DX2                !
 --------------------------------------------------------------------------------
 Trust Radius=3.00D-01 FncErr=1.00D-07 GrdErr=1.00D-06
 Number of steps in this run=    212 maximum allowed number of steps=    240.
 GradGradGradGradGradGradGradGradGradGradGradGradGradGradGradGradGradGrad

                          Input orientation:                          
 ---------------------------------------------------------------------
 Center     Atomic      Atomic             Coordinates (Angstroms)
 Number     Number       Type             X           Y           Z
 ---------------------------------------------------------------------
      1          6           0       -6.126403    1.293651    0.590726
      2          7           0       -4.843622    0.782782    0.585521
      3          6           0       -3.686032    1.421610    0.168007
      4          8           0       -3.657745    2.574300   -0.254885
      5          7           0       -2.585548    0.642926    0.286144
      6          6           0       -1.295981    1.115938   -0.171831
      7          6           0       -0.192594    0.200958    0.342913
      8          6           0        1.180717    0.645134   -0.147108
      9          6           0       -6.479600    2.581620    0.160175
     10          6           0       -7.807118    2.998262    0.207787
     11          6           0       -8.801256    2.146053    0.682154
     12          6           0       -8.460129    0.869369    1.109322
     13          6           0       -7.144221    0.446840    1.065305
     14          1           0       -4.762265   -0.190076    0.935501
     15          1           0       -2.677286   -0.351624    0.536735
     16          1           0       -1.142622    2.138350    0.185119
     17          1           0       -1.264998    1.158983   -1.269141
     18          1           0       -0.397247   -0.825222    0.023033
     19          1           0       -0.222511    0.192624    1.436867
     20          1           0        1.235341    0.628917   -1.239428
     21          1           0        1.969730   -0.008048    0.232704
     22          1           0        1.407770    1.664273    0.179475
     23          1           0       -5.713490    3.246161   -0.207407
     24          6           0       -8.146338    4.384672   -0.264424
     25         17           0      -10.480878    2.633310    0.758848
     26          1           0       -9.232938    0.205403    1.477925
     27          1           0       -6.875964   -0.551067    1.397586
     28          9           0       -7.068781    5.060944   -0.682312
     29          9           0       -9.012608    4.376859   -1.294811
     30          9           0       -8.711620    5.131944    0.701886
     31          8           0       -4.901180   -1.830750    1.526717
     32          8           0       -2.765828   -2.120230    0.936525
     33          6           0       -3.863416   -2.528128    1.376121
     34          6           0       -3.984683   -4.003681    1.777992
     35          6           0       -2.731449   -4.832843    1.540956
     36          1           0       -4.838105   -4.416857    1.231312
     37          1           0       -4.274223   -4.024124    2.833621
     38          1           0       -2.446974   -4.818212    0.487101
     39          1           0       -2.884505   -5.874301    1.839542
     40          1           0       -1.886033   -4.436312    2.106005
 ---------------------------------------------------------------------
                    Distance matrix (angstroms):
                    1          2          3          4          5
     1  C    0.000000
     2  N    1.380776   0.000000
     3  C    2.480015   1.386518   0.000000
     4  O    2.906784   2.306973   1.228143   0.000000
     5  N    3.613014   2.282123   1.353282   2.274320   0.000000
     6  C    4.893470   3.642846   2.433366   2.776985   1.447917
     7  C    6.038666   4.693553   3.704685   4.242333   2.434088
     8  C    7.372854   6.070284   4.938366   5.209992   3.791103
     9  C    1.403206   2.468433   3.024848   2.852225   4.351787
    10  C    2.424282   3.719321   4.412569   4.196559   5.728748
    11  C    2.808876   4.186970   5.191790   5.245678   6.407125
    12  C    2.428010   3.655268   4.897248   5.275484   5.936295
    13  C    1.406509   2.373985   3.703294   4.292377   4.628935
    14  H    2.044795   1.037091   2.084431   3.206050   2.419432
    15  H    3.821813   2.445868   2.073135   3.185749   1.029729
    16  H    5.071105   3.961727   2.642526   2.590270   2.080513
    17  H    5.206775   4.048191   2.827681   2.959237   2.104538
    18  H    6.134748   4.761546   3.985647   4.718564   2.648272
    19  H    6.064995   4.735794   3.887981   4.509462   2.666623
    20  H    7.614894   6.348850   5.179686   5.356877   4.114214
    21  H    8.207922   6.868163   5.834017   6.210857   4.601867
    22  H    7.554486   6.326279   5.099593   5.164907   4.123241
    23  H    2.149374   2.730136   2.753272   2.163270   4.099323
    24  C    3.790228   4.960237   5.372249   4.839938   6.725041
    25  Cl   4.558991   5.935752   6.927282   6.898280   8.156060
    26  H    3.409100   4.516176   5.827796   6.300562   6.767537
    27  H    2.148453   2.563010   3.947022   4.780745   4.590054
    28  F    4.086710   4.986121   5.040911   4.242788   6.368373
    29  F    4.625105   5.816655   6.264642   5.745016   7.599262
    30  F    4.629060   5.821525   6.269620   5.744440   7.606108
    31  O    3.484126   2.778437   3.728340   4.911690   3.608357
    32  O    4.802877   3.587187   3.739254   4.924793   2.844385
    33  C    4.510427   3.542313   4.134178   5.360714   3.588395
    34  C    5.835948   5.006995   5.667012   6.892700   5.076824
    35  C    7.068421   6.075309   6.474132   7.677815   5.619598
    36  H    5.888969   5.239592   6.045294   7.244191   5.618608
    37  H    6.061343   5.337089   6.091591   7.311506   5.578765
    38  H    7.134690   6.093007   6.369651   7.527665   5.466590
    39  H    7.965487   7.051771   7.527735   8.738615   6.706465
    40  H    7.287612   6.188550   6.427369   7.606672   5.440576
                    6          7          8          9         10
     6  C    0.000000
     7  C    1.523028   0.000000
     8  C    2.521171   1.524269   0.000000
     9  C    5.397069   6.725131   7.907266   0.000000
    10  C    6.788384   8.113208   9.297545   1.392179   0.000000
    11  C    7.623620   8.832188  10.128190   2.419147   1.392693
    12  C    7.281975   8.329843   9.724958   2.784812   2.402368
    13  C    6.014990   6.993384   8.415097   2.412109   2.772098
    14  H    3.866132   4.624495   6.098250   3.351517   4.468355
    15  H    2.136307   2.552765   4.042939   4.816981   6.135562
    16  H    1.093736   2.163549   2.781722   5.355412   6.719782
    17  H    1.098592   2.160227   2.739438   5.590967   6.954395
    18  H    2.147976   1.094190   2.163531   6.972833   8.340226
    19  H    2.143072   1.094395   2.163976   6.818241   8.179763
    20  H    2.790080   2.173925   1.093805   8.080362   9.459085
    21  H    3.477336   2.175196   1.092450   8.837580  10.228651
    22  H    2.781072   2.174665   1.094008   7.940561   9.310988
    23  H    4.904436   6.329013   7.368790   1.078728   2.148748
    24  C    7.590822   9.007461  10.049470   2.491846   1.503391
    25  Cl   9.355795  10.580081  11.864501   4.046147   2.754242
    26  H    8.157576   9.111317  10.548853   3.868300   3.383235
    27  H    6.031433   6.807739   8.290181   3.391463   3.857514
    28  F    7.010626   8.482482   9.372302   2.684020   2.364757
    29  F    8.452278   9.895096  10.915441   3.428701   2.368867
    30  F    8.478406   9.849735  10.895438   3.432130   2.369568
    31  O    4.956359   5.263080   6.776515   4.881379   5.788213
    32  O    3.723129   3.515938   4.939303   6.041707   7.221124
    33  C    4.718802   4.689388   6.150861   5.867919   6.889034
    34  C    6.102576   5.841094   7.211023   7.225520   8.130422
    35  C    6.354699   5.763700   6.939945   8.421963   9.426875
    36  H    6.717683   6.610161   7.984360   7.267773   8.052741
    37  H    6.657545   6.380802   7.774515   7.459683   8.287959
    38  H    6.080552   5.504097   6.588665   8.433651   9.481900
    39  H    7.445299   6.811392   7.935732   9.340642  10.277020
    40  H    6.030272   5.242185   6.348430   8.610371   9.692027
                   11         12         13         14         15
    11  C    0.000000
    12  C    1.388799   0.000000
    13  C    2.404141   1.382781   0.000000
    14  H    4.672808   3.850563   2.469054   0.000000
    15  H    6.615327   5.938009   4.568417   2.128908   0.000000
    16  H    7.674749   7.484007   6.297231   4.368804   2.945980
    17  H    7.847105   7.583592   6.365693   4.348710   2.745484
    18  H    8.938137   8.310339   6.944504   4.504374   2.384694
    19  H    8.830648   8.271857   6.936336   4.583361   2.670649
    20  H   10.330898   9.978806   8.692640   6.432133   4.407365
    21  H   10.993467  10.503346   9.163201   6.771028   4.669608
    22  H   10.232743   9.943436   8.683513   6.486873   4.569372
    23  H    3.396448   3.863540   3.391605   3.744168   4.766166
    24  C    2.517210   3.787215   4.275388   5.815504   7.279072
    25  Cl   1.750551   2.705133   4.000981   6.380066   8.357943
    26  H    2.141430   1.083491   2.142729   4.520790   6.646254
    27  H    3.390140   2.147164   1.085445   2.193528   4.290657
    28  F    3.655110   4.766036   4.934553   5.959072   7.075818
    29  F    2.988236   4.288073   4.950360   6.625451   8.114765
    30  F    2.987301   4.289381   4.953687   6.631431   8.155365
    31  O    5.633724   4.486756   3.229791   1.749470   2.848435
    32  O    7.395422   6.433710   5.077082   2.776915   1.815389
    33  C    6.834605   5.722232   4.439676   2.543337   2.616991
    34  C    7.887932   6.650064   5.504338   3.982212   4.072779
    35  C    9.288976   8.094399   6.897380   5.103535   4.592680
    36  H    7.686347   6.409222   5.385283   4.237798   4.655930
    37  H    7.949461   6.666431   5.599406   4.305923   4.616617
    38  H    9.429524   8.300227   7.079493   5.194350   4.472797
    39  H   10.033622   8.780541   7.661687   6.054230   5.678046
    40  H    9.652730   8.506607   7.250984   5.260543   4.446725
                   16         17         18         19         20
    16  H    0.000000
    17  H    1.757558   0.000000
    18  H    3.060166   2.521859   0.000000
    19  H    2.489845   3.056650   1.750849   0.000000
    20  H    3.156332   2.556080   2.524613   3.078675   0.000000
    21  H    3.781009   3.752461   2.512830   2.509223   1.764150
    22  H    2.594087   3.081801   3.078985   2.530731   1.764931
    23  H    4.719550   5.027194   6.700127   6.494504   7.496751
    24  C    7.368859   7.665988   9.342057   9.124401  10.152449
    25  Cl   9.368947   9.550855  10.685620  10.566492  12.053235
    26  H    8.417888   8.481967   9.013786   9.010530  10.823504
    27  H    6.447810   6.443497   6.628600   6.695003   8.610428
    28  F    6.664334   7.018089   8.924899   8.663883   9.429299
    29  F    8.314913   8.389329  10.150015  10.111167  10.911947
    30  F    8.155879   8.667269  10.250730   9.848962  11.089994
    31  O    5.628534   5.475139   4.853614   5.098241   7.166478
    32  O    4.618973   4.227374   2.849858   3.473917   5.319956
    33  C    5.531476   5.229147   4.092073   4.545588   6.542579
    34  C    6.952633   6.582918   5.104134   5.646175   7.603581
    35  C    7.277376   6.778576   4.879920   5.617911   7.300464
    36  H    7.597490   7.078795   5.837893   6.526353   8.273519
    37  H    7.402539   7.263105   5.758761   6.012343   8.282259
    38  H    7.084228   6.341002   4.512284   5.564061   6.797908
    39  H    8.365038   7.858358   5.914335   6.637466   8.291262
    40  H    6.889749   6.563887   4.426649   4.964081   6.825792
                   21         22         23         24         25
    21  H    0.000000
    22  H    1.765018   0.000000
    23  H    8.355564   7.305094   0.000000
    24  C   11.039835   9.943772   2.686672   0.000000
    25  Cl  12.738573  11.942138   4.902777   3.092641   0.000000
    26  H   11.273682  10.818454   4.947026   4.656476   2.822970
    27  H    8.938576   8.660935   4.283257   5.360751   4.852180
    28  F   10.403202   9.172348   2.314257   1.339068   4.428629
    29  F   11.923609  10.868115   3.653095   1.346173   3.068109
    30  F   11.863005  10.709795   3.656743   1.345999   3.062138
    31  O    7.225380   7.337104   5.426054   7.236761   7.186827
    32  O    5.232799   5.684585   6.228599   8.526776   9.063648
    33  C    6.456299   6.840584   6.266798   8.295879   8.415003
    34  C    7.335396   7.984956   7.713028   9.584117   9.342850
    35  C    6.862307   7.822997   8.787471  10.841725  10.789290
    36  H    8.171990   8.780516   7.845894   9.520953   9.042619
    37  H    7.866422   8.466841   8.011017   9.762121   9.335346
    38  H    6.535263   7.548264   8.728492  10.850834  10.960959
    39  H    7.781931   8.832302   9.766063  11.720072  11.456537
    40  H    6.163253   7.195679   8.889415  11.073396  11.210074
                   26         27         28         29         30
    26  H    0.000000
    27  H    2.476696   0.000000
    28  F    5.738160   5.988141   0.000000
    29  F    5.013747   6.008220   2.149788   0.000000
    30  F    5.014460   6.012507   2.149410   2.155816   0.000000
    31  O    4.786693   2.356700   7.554717   7.962366   7.979906
    32  O    6.893852   4.423581   8.526740   9.285111   9.380912
    33  C    6.026137   3.603426   8.491498   9.018143   9.090455
    34  C    6.734286   4.519376   9.885959  10.244784  10.342223
    35  C    8.225403   5.960802  11.029161  11.502744  11.651757
    36  H    6.382841   4.373196   9.923033  10.056700  10.318139
    37  H    6.657001   4.570928  10.134585  10.491557  10.395594
    38  H    8.501044   6.217191  10.969336  11.438185  11.759996
    39  H    8.797510   6.668125  11.976957  12.347635  12.505477
    40  H    8.713037   6.363678  11.172890  11.833241  11.836879
                   31         32         33         34         35
    31  O    0.000000
    32  O    2.234246   0.000000
    33  C    1.259353   1.250729   0.000000
    34  C    2.371653   2.396052   1.534100   0.000000
    35  C    3.704119   2.779350   2.572980   1.521279   0.000000
    36  H    2.603688   3.107366   2.130325   1.094487   2.169544
    37  H    2.629062   3.082051   2.128632   1.094807   2.169138
    38  H    4.003606   2.753680   2.835691   2.166659   1.091673
    39  H    4.529365   3.862975   3.517087   2.171037   1.094173
    40  H    4.026865   2.739700   2.843227   2.167740   1.091443
                   36         37         38         39         40
    36  H    0.000000
    37  H    1.743444   0.000000
    38  H    2.536226   3.078241   0.000000
    39  H    2.512099   2.518465   1.770835   0.000000
    40  H    3.078993   2.530371   1.755379   1.770809   0.000000
 Stoichiometry    C14H17ClF3N2O3(1-)
 Framework group  C1[X(C14H17ClF3N2O3)]
 Deg. of freedom   114
 Full point group                 C1      NOp   1
 Largest Abelian subgroup         C1      NOp   1
 Largest concise Abelian subgroup C1      NOp   1
                         Standard orientation:                         
 ---------------------------------------------------------------------
 Center     Atomic      Atomic             Coordinates (Angstroms)
 Number     Number       Type             X           Y           Z
 ---------------------------------------------------------------------
      1          6           0       -0.676947    0.281963   -0.076341
      2          7           0        0.656832   -0.075110   -0.084861
      3          6           0        1.184861   -1.355186   -0.013989
      4          8           0        0.500309   -2.372480    0.055559
      5          7           0        2.537831   -1.366613   -0.040701
      6          6           0        3.266789   -2.609760    0.099549
      7          6           0        4.730385   -2.399536   -0.265563
      8          6           0        5.541509   -3.679016   -0.097025
      9          6           0       -1.749022   -0.619324    0.009240
     10          6           0       -3.060482   -0.152168    0.009892
     11          6           0       -3.327343    1.212116   -0.074424
     12          6           0       -2.271868    2.110817   -0.158511
     13          6           0       -0.966051    1.655927   -0.159459
     14          1           0        1.318915    0.720476   -0.150027
     15          1           0        3.066068   -0.484535    0.016262
     16          1           0        2.815053   -3.364584   -0.550400
     17          1           0        3.188440   -2.992636    1.126277
     18          1           0        5.145625   -1.600948    0.356596
     19          1           0        4.788960   -2.044578   -1.299137
     20          1           0        5.517390   -4.029187    0.938932
     21          1           0        6.588286   -3.525974   -0.369572
     22          1           0        5.148939   -4.483206   -0.726328
     23          1           0       -1.548102   -1.677201    0.073910
     24          6           0       -4.182094   -1.148702    0.105246
     25         17           0       -4.962037    1.838369   -0.077855
     26          1           0       -2.478453    3.172445   -0.223484
     27          1           0       -0.139860    2.356963   -0.223855
     28          9           0       -3.740603   -2.410931    0.175724
     29          9           0       -4.949030   -0.953565    1.194242
     30          9           0       -5.008092   -1.094751   -0.956135
     31          8           0        2.212987    2.222281   -0.226600
     32          8           0        4.062299    1.027013    0.151860
     33          6           0        3.448519    2.104190   -0.013325
     34          6           0        4.246331    3.413401    0.040753
     35          6           0        5.726826    3.244228    0.347031
     36          1           0        3.762326    4.054556    0.784097
     37          1           0        4.100028    3.916163   -0.920719
     38          1           0        5.872589    2.749335    1.309104
     39          1           0        6.236614    4.211847    0.379373
     40          1           0        6.215466    2.625873   -0.408030
 ---------------------------------------------------------------------
 Rotational constants (GHZ):      0.3415801      0.1012540      0.0795442
 Standard basis: 6-311+G(d) (5D, 7F)
 There are   588 symmetry adapted cartesian basis functions of A   symmetry.
 There are   565 symmetry adapted basis functions of A   symmetry.
   565 basis functions,   930 primitive gaussians,   588 cartesian basis functions
    92 alpha electrons       92 beta electrons
       nuclear repulsion energy      2099.5718392137 Hartrees.
 NAtoms=   40 NActive=   40 NUniq=   40 SFac= 1.00D+00 NAtFMM=   60 NAOKFM=F Big=F
 Integral buffers will be    131072 words long.
 Raffenetti 2 integral format.
 Two-electron integral symmetry is turned on.
 Nuclear repulsion after empirical dispersion term =     2099.5694481282 Hartrees.
 ------------------------------------------------------------------------------
 Polarizable Continuum Model (PCM)
 =================================
 Model                : PCM (using non-symmetric T matrix).
 Atomic radii         : SMD-Coulomb.
 Polarization charges : Total charges.
 Charge compensation  : None.
 Solution method      : On-the-fly selection.
 Cavity type          : VdW (van der Waals Surface) (Alpha=1.000).
 Cavity algorithm     : GePol (No added spheres)
                        Default sphere list used, NSphG=   40.
                        Lebedev-Laikov grids with approx.  5.0 points / Ang**2.
                        Smoothing algorithm: York/Karplus (Gamma=1.0000).
                        Polarization charges: spherical gaussians, with
                                              point-specific exponents (IZeta= 3).
                        Self-potential: point-specific (ISelfS= 7).
                        Self-field    : sphere-specific E.n sum rule (ISelfD= 2).
 1st derivatives      : Analytical E(r).r(x)/FMM algorithm (CHGder, D1EAlg=3).
                        Cavity 1st derivative terms included.
 Solvent              : n-Pentadecane, Eps=   2.033300 Eps(inf)=   2.049192
 ------------------------------------------------------------------------------
 ------------------------------------------------------------------------------
 Atomic radii for non-electrostatic terms: SMD-CDS.
 ------------------------------------------------------------------------------
 Nuclear repulsion after PCM non-electrostatic terms =     2099.5598316786 Hartrees.
 One-electron integrals computed using PRISM.
 NBasis=   565 RedAO= T EigKep=  1.62D-06  NBF=   565
 NBsUse=   562 1.00D-06 EigRej=  9.90D-07 NBFU=   562
 ExpMin= 4.38D-02 ExpMax= 1.06D+05 ExpMxC= 3.62D+03 IAcc=3 IRadAn=         5 AccDes= 0.00D+00
 Harris functional with IExCor= 1009 and IRadAn=       5 diagonalized for initial guess.
 HarFok:  IExCor= 1009 AccDes= 0.00D+00 IRadAn=         5 IDoV= 1 UseB2=F ITyADJ=14
 ICtDFT=  3500011 ScaDFX=  1.000000  1.000000  1.000000  1.000000
 FoFCou: FMM=F IPFlag=           0 FMFlag=      100000 FMFlg1=           0
         NFxFlg=           0 DoJE=T BraDBF=F KetDBF=T FulRan=T
         wScrn=  0.000000 ICntrl=     500 IOpCl=  0 I1Cent=   200000004 NGrid=           0
         NMat0=    1 NMatS0=      1 NMatT0=    0 NMatD0=    1 NMtDS0=    0 NMtDT0=    0
 Petite list used in FoFCou.
 Requested convergence on RMS density matrix=1.00D-08 within 128 cycles.
 Requested convergence on MAX density matrix=1.00D-06.
 Requested convergence on             energy=1.00D-06.
 No special actions if energy rises.
 Inv3:  Mode=1 IEnd=    29128368.
 Iteration    1 A*A^-1 deviation from unit magnitude is 6.00D-15 for   3074.
 Iteration    1 A*A^-1 deviation from orthogonality  is 3.36D-15 for   3074   1432.
 Iteration    1 A^-1*A deviation from unit magnitude is 4.88D-15 for   3074.
 Iteration    1 A^-1*A deviation from orthogonality  is 1.64D-15 for   3050    427.
 Error on total polarization charges =  0.02428
 SCF Done:  E(RM062X) =  -1638.71447722     A.U. after   16 cycles
            NFock= 16  Conv=0.41D-08     -V/T= 2.0030
 SMD-CDS (non-electrostatic) energy       (kcal/mol) =      -6.03
 (included in total energy above)

 **********************************************************************

            Population analysis using the SCF density.

 **********************************************************************

 Orbital symmetries:
       Occupied  (A) (A) (A) (A) (A) (A) (A) (A) (A) (A) (A) (A)
                 (A) (A) (A) (A) (A) (A) (A) (A) (A) (A) (A) (A)
                 (A) (A) (A) (A) (A) (A) (A) (A) (A) (A) (A) (A)
                 (A) (A) (A) (A) (A) (A) (A) (A) (A) (A) (A) (A)
                 (A) (A) (A) (A) (A) (A) (A) (A) (A) (A) (A) (A)
                 (A) (A) (A) (A) (A) (A) (A) (A) (A) (A) (A) (A)
                 (A) (A) (A) (A) (A) (A) (A) (A) (A) (A) (A) (A)
                 (A) (A) (A) (A) (A) (A) (A) (A)
       Virtual   (A) (A) (A) (A) (A) (A) (A) (A) (A) (A) (A) (A)
                 (A) (A) (A) (A) (A) (A) (A) (A) (A) (A) (A) (A)
                 (A) (A) (A) (A) (A) (A) (A) (A) (A) (A) (A) (A)
                 (A) (A) (A) (A) (A) (A) (A) (A) (A) (A) (A) (A)
                 (A) (A) (A) (A) (A) (A) (A) (A) (A) (A) (A) (A)
                 (A) (A) (A) (A) (A) (A) (A) (A) (A) (A) (A) (A)
                 (A) (A) (A) (A) (A) (A) (A) (A) (A) (A) (A) (A)
                 (A) (A) (A) (A) (A) (A) (A) (A) (A) (A) (A) (A)
                 (A) (A) (A) (A) (A) (A) (A) (A) (A) (A) (A) (A)
                 (A) (A) (A) (A) (A) (A) (A) (A) (A) (A) (A) (A)
                 (A) (A) (A) (A) (A) (A) (A) (A) (A) (A) (A) (A)
                 (A) (A) (A) (A) (A) (A) (A) (A) (A) (A) (A) (A)
                 (A) (A) (A) (A) (A) (A) (A) (A) (A) (A) (A) (A)
                 (A) (A) (A) (A) (A) (A) (A) (A) (A) (A) (A) (A)
                 (A) (A) (A) (A) (A) (A) (A) (A) (A) (A) (A) (A)
                 (A) (A) (A) (A) (A) (A) (A) (A) (A) (A) (A) (A)
                 (A) (A) (A) (A) (A) (A) (A) (A) (A) (A) (A) (A)
                 (A) (A) (A) (A) (A) (A) (A) (A) (A) (A) (A) (A)
                 (A) (A) (A) (A) (A) (A) (A) (A) (A) (A) (A) (A)
                 (A) (A) (A) (A) (A) (A) (A) (A) (A) (A) (A) (A)
                 (A) (A) (A) (A) (A) (A) (A) (A) (A) (A) (A) (A)
                 (A) (A) (A) (A) (A) (A) (A) (A) (A) (A) (A) (A)
                 (A) (A) (A) (A) (A) (A) (A) (A) (A) (A) (A) (A)
                 (A) (A) (A) (A) (A) (A) (A) (A) (A) (A) (A) (A)
                 (A) (A) (A) (A) (A) (A) (A) (A) (A) (A) (A) (A)
                 (A) (A) (A) (A) (A) (A) (A) (A) (A) (A) (A) (A)
                 (A) (A) (A) (A) (A) (A) (A) (A) (A) (A) (A) (A)
                 (A) (A) (A) (A) (A) (A) (A) (A) (A) (A) (A) (A)
                 (A) (A) (A) (A) (A) (A) (A) (A) (A) (A) (A) (A)
                 (A) (A) (A) (A) (A) (A) (A) (A) (A) (A) (A) (A)
                 (A) (A) (A) (A) (A) (A) (A) (A) (A) (A) (A) (A)
                 (A) (A) (A) (A) (A) (A) (A) (A) (A) (A) (A) (A)
                 (A) (A) (A) (A) (A) (A) (A) (A) (A) (A) (A) (A)
                 (A) (A) (A) (A) (A) (A) (A) (A) (A) (A) (A) (A)
                 (A) (A) (A) (A) (A) (A) (A) (A) (A) (A) (A) (A)
                 (A) (A) (A) (A) (A) (A) (A) (A) (A) (A) (A) (A)
                 (A) (A) (A) (A) (A) (A) (A) (A) (A) (A) (A) (A)
                 (A) (A) (A) (A) (A) (A) (A) (A) (A) (A) (A) (A)
                 (A) (A) (A) (A) (A) (A) (A) (A) (A) (A) (A) (A)
                 (A) (A)
 The electronic state is 1-A.
 Alpha  occ. eigenvalues -- -102.63851 -25.23675 -25.23323 -25.23321 -19.52170
 Alpha  occ. eigenvalues --  -19.50011 -19.49755 -14.70520 -14.68653 -10.76205
 Alpha  occ. eigenvalues --  -10.60524 -10.56647 -10.56153 -10.54988 -10.53474
 Alpha  occ. eigenvalues --  -10.51378 -10.50899 -10.50470 -10.50167 -10.48091
 Alpha  occ. eigenvalues --  -10.48053 -10.46828 -10.46514  -9.78126  -7.50636
 Alpha  occ. eigenvalues --   -7.49963  -7.49962  -1.42889  -1.33482  -1.33144
 Alpha  occ. eigenvalues --   -1.10992  -1.09045  -0.99593  -0.99063  -0.96583
 Alpha  occ. eigenvalues --   -0.95226  -0.89176  -0.84766  -0.82933  -0.80097
 Alpha  occ. eigenvalues --   -0.78751  -0.76349  -0.72292  -0.68991  -0.67018
 Alpha  occ. eigenvalues --   -0.66463  -0.65217  -0.64735  -0.63125  -0.61969
 Alpha  occ. eigenvalues --   -0.59508  -0.56741  -0.53724  -0.53499  -0.53338
 Alpha  occ. eigenvalues --   -0.52343  -0.51143  -0.50029  -0.49813  -0.49193
 Alpha  occ. eigenvalues --   -0.48221  -0.47801  -0.47151  -0.46802  -0.46289
 Alpha  occ. eigenvalues --   -0.46173  -0.45929  -0.44606  -0.43533  -0.43233
 Alpha  occ. eigenvalues --   -0.43117  -0.41603  -0.40616  -0.40186  -0.39656
 Alpha  occ. eigenvalues --   -0.38785  -0.38129  -0.37360  -0.37109  -0.36045
 Alpha  occ. eigenvalues --   -0.35123  -0.34371  -0.33969  -0.33937  -0.31392
 Alpha  occ. eigenvalues --   -0.28494  -0.28102  -0.25830  -0.25305  -0.24943
 Alpha  occ. eigenvalues --   -0.24765  -0.20935
 Alpha virt. eigenvalues --    0.04443   0.05556   0.05847   0.05919   0.06491
 Alpha virt. eigenvalues --    0.07170   0.07387   0.07890   0.08112   0.08404
 Alpha virt. eigenvalues --    0.09104   0.09457   0.09645   0.09730   0.10505
 Alpha virt. eigenvalues --    0.10923   0.11068   0.11399   0.11764   0.11828
 Alpha virt. eigenvalues --    0.12455   0.12676   0.12930   0.13522   0.13900
 Alpha virt. eigenvalues --    0.14173   0.14432   0.14998   0.15304   0.15381
 Alpha virt. eigenvalues --    0.15930   0.16246   0.16645   0.16901   0.17237
 Alpha virt. eigenvalues --    0.17752   0.17974   0.18233   0.19051   0.19527
 Alpha virt. eigenvalues --    0.19967   0.20515   0.20798   0.21173   0.21948
 Alpha virt. eigenvalues --    0.22363   0.22669   0.23036   0.23374   0.24056
 Alpha virt. eigenvalues --    0.24158   0.24915   0.25088   0.25400   0.25791
 Alpha virt. eigenvalues --    0.26046   0.26274   0.26362   0.26668   0.27066
 Alpha virt. eigenvalues --    0.27475   0.27804   0.28000   0.28348   0.28716
 Alpha virt. eigenvalues --    0.29015   0.29156   0.29537   0.29811   0.30158
 Alpha virt. eigenvalues --    0.30479   0.30645   0.31151   0.31573   0.31832
 Alpha virt. eigenvalues --    0.31906   0.32519   0.32568   0.33057   0.33321
 Alpha virt. eigenvalues --    0.33594   0.33986   0.34215   0.34588   0.35004
 Alpha virt. eigenvalues --    0.35447   0.35713   0.35951   0.36171   0.36715
 Alpha virt. eigenvalues --    0.37315   0.37475   0.37611   0.38100   0.38410
 Alpha virt. eigenvalues --    0.38783   0.38870   0.39292   0.39783   0.40542
 Alpha virt. eigenvalues --    0.40981   0.41107   0.41458   0.42201   0.42447
 Alpha virt. eigenvalues --    0.42816   0.43324   0.43755   0.44219   0.44333
 Alpha virt. eigenvalues --    0.44707   0.45454   0.45890   0.46711   0.47628
 Alpha virt. eigenvalues --    0.47910   0.48345   0.48688   0.49070   0.49553
 Alpha virt. eigenvalues --    0.49766   0.50777   0.51956   0.52673   0.53258
 Alpha virt. eigenvalues --    0.53465   0.54693   0.54978   0.55204   0.55390
 Alpha virt. eigenvalues --    0.56574   0.57442   0.57966   0.58513   0.58974
 Alpha virt. eigenvalues --    0.59441   0.59883   0.60779   0.61487   0.61924
 Alpha virt. eigenvalues --    0.62283   0.63140   0.64760   0.65317   0.65841
 Alpha virt. eigenvalues --    0.65952   0.67179   0.68409   0.68711   0.68774
 Alpha virt. eigenvalues --    0.69360   0.70525   0.70813   0.71142   0.72180
 Alpha virt. eigenvalues --    0.72585   0.72928   0.73845   0.74909   0.75087
 Alpha virt. eigenvalues --    0.75811   0.76299   0.76658   0.77342   0.77652
 Alpha virt. eigenvalues --    0.78387   0.78566   0.78829   0.79278   0.79772
 Alpha virt. eigenvalues --    0.80638   0.81472   0.82071   0.82826   0.83115
 Alpha virt. eigenvalues --    0.83825   0.84118   0.84434   0.84464   0.85482
 Alpha virt. eigenvalues --    0.85895   0.86365   0.87573   0.88272   0.89051
 Alpha virt. eigenvalues --    0.91355   0.93862   0.94349   0.95329   0.96711
 Alpha virt. eigenvalues --    0.97605   0.98707   0.99624   0.99718   1.00205
 Alpha virt. eigenvalues --    1.01365   1.01705   1.02030   1.03220   1.03557
 Alpha virt. eigenvalues --    1.04724   1.05160   1.06149   1.07498   1.08306
 Alpha virt. eigenvalues --    1.08949   1.10481   1.11015   1.13087   1.14125
 Alpha virt. eigenvalues --    1.14354   1.15988   1.16121   1.17114   1.19399
 Alpha virt. eigenvalues --    1.19895   1.20432   1.22001   1.23419   1.24628
 Alpha virt. eigenvalues --    1.25663   1.27242   1.27833   1.29293   1.30268
 Alpha virt. eigenvalues --    1.30782   1.30908   1.32276   1.32807   1.34040
 Alpha virt. eigenvalues --    1.35130   1.37729   1.38153   1.39089   1.39309
 Alpha virt. eigenvalues --    1.40723   1.43129   1.44360   1.44672   1.45916
 Alpha virt. eigenvalues --    1.47745   1.49818   1.50790   1.51272   1.52312
 Alpha virt. eigenvalues --    1.52855   1.54022   1.54609   1.55175   1.56141
 Alpha virt. eigenvalues --    1.56668   1.57970   1.58538   1.58984   1.60224
 Alpha virt. eigenvalues --    1.62080   1.62575   1.62766   1.63520   1.64678
 Alpha virt. eigenvalues --    1.65103   1.66161   1.66786   1.67723   1.68022
 Alpha virt. eigenvalues --    1.68785   1.69346   1.71122   1.73326   1.74020
 Alpha virt. eigenvalues --    1.74990   1.76551   1.78563   1.80201   1.81675
 Alpha virt. eigenvalues --    1.82979   1.83997   1.84185   1.85507   1.86204
 Alpha virt. eigenvalues --    1.86301   1.87731   1.88047   1.88725   1.90019
 Alpha virt. eigenvalues --    1.91717   1.92215   1.93833   1.94733   1.95797
 Alpha virt. eigenvalues --    1.96656   1.98866   2.01309   2.02292   2.03564
 Alpha virt. eigenvalues --    2.03953   2.04971   2.06379   2.07685   2.11469
 Alpha virt. eigenvalues --    2.12719   2.13340   2.14970   2.16473   2.19641
 Alpha virt. eigenvalues --    2.22139   2.22821   2.24354   2.26490   2.30192
 Alpha virt. eigenvalues --    2.32159   2.33509   2.35950   2.36830   2.37627
 Alpha virt. eigenvalues --    2.40031   2.40337   2.43648   2.46365   2.46747
 Alpha virt. eigenvalues --    2.53155   2.53921   2.54958   2.59336   2.59593
 Alpha virt. eigenvalues --    2.60052   2.60760   2.61382   2.63072   2.64768
 Alpha virt. eigenvalues --    2.64918   2.65901   2.66114   2.68149   2.68937
 Alpha virt. eigenvalues --    2.70533   2.72727   2.73600   2.75935   2.76520
 Alpha virt. eigenvalues --    2.79339   2.82850   2.86863   2.88761   2.92070
 Alpha virt. eigenvalues --    2.92292   2.93639   2.95646   2.97061   3.00477
 Alpha virt. eigenvalues --    3.01173   3.03020   3.03661   3.05479   3.07043
 Alpha virt. eigenvalues --    3.07978   3.08186   3.08989   3.09859   3.11976
 Alpha virt. eigenvalues --    3.12997   3.15863   3.17303   3.17957   3.19455
 Alpha virt. eigenvalues --    3.21773   3.23895   3.26613   3.28787   3.30846
 Alpha virt. eigenvalues --    3.31378   3.32097   3.33706   3.36116   3.38988
 Alpha virt. eigenvalues --    3.39399   3.43594   3.44430   3.45643   3.46986
 Alpha virt. eigenvalues --    3.48254   3.48763   3.49539   3.49774   3.52059
 Alpha virt. eigenvalues --    3.54481   3.58861   3.66104   3.70324   3.74516
 Alpha virt. eigenvalues --    3.78159   3.78812   3.82875   3.84570   3.84769
 Alpha virt. eigenvalues --    3.86044   3.88531   3.88812   3.90231   3.91128
 Alpha virt. eigenvalues --    3.92699   3.93009   3.95461   4.02246   4.04926
 Alpha virt. eigenvalues --    4.07360   4.07681   4.08221   4.12740   4.13798
 Alpha virt. eigenvalues --    4.15315   4.17394   4.27294   4.27850   4.29167
 Alpha virt. eigenvalues --    4.31681   4.35779   4.70889   4.76089   4.81935
 Alpha virt. eigenvalues --    4.88349   5.00140   5.02292   5.06422   5.25742
 Alpha virt. eigenvalues --    5.27369   5.28454   5.31168   5.47436   5.50883
 Alpha virt. eigenvalues --    5.52498   5.83841   5.98342   6.10547   6.49394
 Alpha virt. eigenvalues --    6.53303   6.54303   6.58134   6.60402   6.62276
 Alpha virt. eigenvalues --    6.68342   6.90984   6.95726  10.04592  23.51610
 Alpha virt. eigenvalues --   23.65327  23.68630  23.71275  23.81378  23.86754
 Alpha virt. eigenvalues --   23.87535  23.99294  24.01030  24.03166  24.04807
 Alpha virt. eigenvalues --   24.13373  24.18484  24.25268  26.00413  26.34602
 Alpha virt. eigenvalues --   26.84830  35.71460  35.81564  50.15247  50.23000
 Alpha virt. eigenvalues --   50.23982  66.93155  66.96613  67.01712 216.15555
          Condensed to atoms (all electrons):
               1          2          3          4          5          6
     1  C   15.292243   0.067500  -0.608977  -0.063986  -0.092256  -0.302356
     2  N    0.067500   8.351338   0.259557  -0.083560  -0.685864  -0.723920
     3  C   -0.608977   0.259557   8.610175   0.720838   0.233294  -1.800546
     4  O   -0.063986  -0.083560   0.720838   8.143585  -0.196767  -0.129981
     5  N   -0.092256  -0.685864   0.233294  -0.196767   8.149979   0.706325
     6  C   -0.302356  -0.723920  -1.800546  -0.129981   0.706325   9.214370
     7  C   -0.020488   0.074651   0.456443   0.023517  -0.097361  -1.162335
     8  C   -0.004999  -0.024967  -0.332735  -0.002096  -0.038175   0.542910
     9  C   -2.995065   0.225482  -0.683320   0.086410  -0.315413  -0.353508
    10  C   -3.083706  -0.030987   0.163601  -0.014389   0.039611   0.038861
    11  C    5.610838  -0.092495  -0.421024  -0.037997  -0.060209  -0.064542
    12  C   -4.404796   0.021460  -0.413233  -0.003261  -0.058708  -0.048157
    13  C   -0.357288   0.078191  -0.410477  -0.024412  -0.173902  -0.194501
    14  H   -0.051959   0.075048  -0.023375  -0.003714   0.018920   0.031333
    15  H   -0.020424   0.033122  -0.014638  -0.007890   0.109822  -0.008610
    16  H    0.002081   0.012917   0.070073   0.004928  -0.079859   0.329997
    17  H    0.009962   0.004536   0.043418  -0.004247  -0.060890   0.412526
    18  H   -0.003125  -0.001283  -0.014520  -0.000255   0.006383  -0.065062
    19  H    0.003116   0.000166   0.023751  -0.000252   0.006191  -0.072137
    20  H    0.000130   0.000074   0.006939  -0.000014   0.000772  -0.027385
    21  H    0.000069  -0.000005   0.003821   0.000016  -0.001661   0.076027
    22  H   -0.000297  -0.000060  -0.007418  -0.000077   0.000349  -0.053506
    23  H    0.023743  -0.031462   0.097661   0.012094   0.010226   0.012407
    24  C   -2.409787   0.032608   0.068936   0.004031   0.008389   0.007000
    25  Cl  -0.052140  -0.000602  -0.050932   0.000168  -0.000472  -0.001376
    26  H    0.051258  -0.002811   0.004261  -0.000015  -0.000063   0.000045
    27  H    0.084446  -0.029373  -0.003862   0.000003   0.000045  -0.000115
    28  F    0.031909   0.001522   0.012297  -0.001099  -0.000087   0.000255
    29  F    0.013904   0.000409   0.001568   0.000031   0.000014   0.000025
    30  F    0.014800   0.000372   0.001660   0.000045   0.000016   0.000008
    31  O   -0.155570   0.009120   0.003965  -0.000607  -0.051909  -0.018020
    32  O    0.011300  -0.037519  -0.045278   0.000128  -0.013661   0.069236
    33  C    0.170325   0.009049   0.014641  -0.001296   0.037368   0.007233
    34  C   -0.053808  -0.062430  -0.052997  -0.001290  -0.056399   0.065751
    35  C    0.004711   0.002272   0.004066   0.000076   0.010284  -0.010954
    36  H    0.000429   0.000316  -0.000384  -0.000000   0.000228   0.000149
    37  H   -0.000230   0.000530   0.000462   0.000000  -0.000090  -0.000486
    38  H   -0.000119   0.000009  -0.000180  -0.000000   0.000175  -0.000165
    39  H   -0.000003   0.000025   0.000183   0.000000  -0.000078  -0.000105
    40  H    0.000087   0.000009  -0.000432  -0.000000   0.000137   0.000843
               7          8          9         10         11         12
     1  C   -0.020488  -0.004999  -2.995065  -3.083706   5.610838  -4.404796
     2  N    0.074651  -0.024967   0.225482  -0.030987  -0.092495   0.021460
     3  C    0.456443  -0.332735  -0.683320   0.163601  -0.421024  -0.413233
     4  O    0.023517  -0.002096   0.086410  -0.014389  -0.037997  -0.003261
     5  N   -0.097361  -0.038175  -0.315413   0.039611  -0.060209  -0.058708
     6  C   -1.162335   0.542910  -0.353508   0.038861  -0.064542  -0.048157
     7  C    6.656993  -0.534341   0.029973  -0.003567   0.001682   0.001392
     8  C   -0.534341   6.531211  -0.011774   0.000488  -0.000501  -0.000876
     9  C    0.029973  -0.011774  11.433434   4.939600  -6.799091   0.516169
    10  C   -0.003567   0.000488   4.939600  34.110732 -16.436824  -4.365138
    11  C    0.001682  -0.000501  -6.799091 -16.436824  35.946797  -2.828324
    12  C    0.001392  -0.000876   0.516169  -4.365138  -2.828324  13.537732
    13  C    0.015724  -0.006480  -1.298658  -5.493694  -3.600255   2.843784
    14  H   -0.006560   0.000364  -0.001880   0.008530   0.019451   0.015489
    15  H   -0.033945   0.009214  -0.002093  -0.003411   0.002483  -0.003323
    16  H    0.006793  -0.012265  -0.002237   0.000214   0.000144  -0.000017
    17  H   -0.063802  -0.022690   0.000655   0.000196   0.000134   0.000027
    18  H    0.466729  -0.060908  -0.000250  -0.000008  -0.000001   0.000002
    19  H    0.439757  -0.068815   0.000148   0.000005   0.000015  -0.000019
    20  H    0.039793   0.325667   0.000032   0.000000   0.000000  -0.000000
    21  H   -0.132934   0.405307   0.000011  -0.000000  -0.000000   0.000000
    22  H    0.004471   0.399880  -0.000004  -0.000003  -0.000000   0.000001
    23  H   -0.000641   0.000125   0.287392  -0.085484   0.004793  -0.026911
    24  C   -0.000419  -0.000059   1.277310  -3.020583  -4.718112   0.952039
    25  Cl   0.000012  -0.000005  -0.150703   0.426328  -0.972201   0.167693
    26  H   -0.000000   0.000000  -0.002290   0.078921   0.105123   0.292301
    27  H    0.000008   0.000005  -0.023767   0.004260  -0.029111  -0.104381
    28  F    0.000003  -0.000001  -0.006498  -0.246139   0.035769  -0.001038
    29  F   -0.000000   0.000000  -0.021162   0.093826  -0.106952   0.046957
    30  F   -0.000001   0.000000  -0.022059   0.088977  -0.101320   0.049296
    31  O   -0.000912  -0.000313   0.024846   0.004708  -0.010990   0.023031
    32  O   -0.017331   0.007434  -0.003778  -0.000945   0.000198  -0.005508
    33  C    0.006426  -0.009931  -0.048759  -0.031084  -0.005154  -0.112485
    34  C   -0.032421   0.007225  -0.001025  -0.002504   0.012672   0.017089
    35  C    0.009066  -0.003010  -0.000769  -0.000138  -0.001240  -0.002428
    36  H   -0.000248  -0.000022   0.000001   0.000061  -0.000112  -0.000143
    37  H    0.000517   0.000023   0.000023  -0.000040   0.000033  -0.000193
    38  H    0.000415   0.000162  -0.000006  -0.000002   0.000003  -0.000017
    39  H   -0.000017  -0.000007   0.000004  -0.000001   0.000001   0.000004
    40  H   -0.000556  -0.000043  -0.000007   0.000003  -0.000001  -0.000005
              13         14         15         16         17         18
     1  C   -0.357288  -0.051959  -0.020424   0.002081   0.009962  -0.003125
     2  N    0.078191   0.075048   0.033122   0.012917   0.004536  -0.001283
     3  C   -0.410477  -0.023375  -0.014638   0.070073   0.043418  -0.014520
     4  O   -0.024412  -0.003714  -0.007890   0.004928  -0.004247  -0.000255
     5  N   -0.173902   0.018920   0.109822  -0.079859  -0.060890   0.006383
     6  C   -0.194501   0.031333  -0.008610   0.329997   0.412526  -0.065062
     7  C    0.015724  -0.006560  -0.033945   0.006793  -0.063802   0.466729
     8  C   -0.006480   0.000364   0.009214  -0.012265  -0.022690  -0.060908
     9  C   -1.298658  -0.001880  -0.002093  -0.002237   0.000655  -0.000250
    10  C   -5.493694   0.008530  -0.003411   0.000214   0.000196  -0.000008
    11  C   -3.600255   0.019451   0.002483   0.000144   0.000134  -0.000001
    12  C    2.843784   0.015489  -0.003323  -0.000017   0.000027   0.000002
    13  C   14.774562  -0.026351   0.001736   0.000326   0.000234   0.000182
    14  H   -0.026351   0.316423   0.028619  -0.000119  -0.000031   0.000064
    15  H    0.001736   0.028619   0.332439   0.002699   0.001571   0.006521
    16  H    0.000326  -0.000119   0.002699   0.476735  -0.049332   0.005593
    17  H    0.000234  -0.000031   0.001571  -0.049332   0.474981  -0.008702
    18  H    0.000182   0.000064   0.006521   0.005593  -0.008702   0.437351
    19  H   -0.000152   0.000063   0.000249  -0.009686   0.006431  -0.037127
    20  H    0.000005   0.000000  -0.000054  -0.000591   0.003479  -0.008073
    21  H   -0.000002   0.000000  -0.000069  -0.000266  -0.000129  -0.003656
    22  H    0.000011  -0.000000   0.000040   0.003402  -0.000830   0.006596
    23  H   -0.020113  -0.000262   0.000029  -0.000027  -0.000023  -0.000000
    24  C   -0.187852  -0.000408  -0.000575  -0.000129   0.000012  -0.000002
    25  Cl  -0.004229   0.000023  -0.000005   0.000000   0.000000  -0.000000
    26  H   -0.197948  -0.000005   0.000001   0.000000  -0.000000   0.000000
    27  H    0.383214   0.012267  -0.000082  -0.000000   0.000000  -0.000001
    28  F   -0.008357   0.000006  -0.000000   0.000000   0.000000   0.000000
    29  F    0.025901   0.000000  -0.000000  -0.000000   0.000000  -0.000000
    30  F    0.027036  -0.000000  -0.000000   0.000000  -0.000000   0.000000
    31  O    0.175474   0.081314   0.010837   0.000019  -0.000024   0.000041
    32  O   -0.016984   0.011870   0.074936  -0.001157   0.000671  -0.004695
    33  C   -0.061800  -0.010869  -0.006383  -0.001184   0.000968   0.003525
    34  C    0.021160   0.046087   0.041779  -0.000640   0.000366  -0.001712
    35  C   -0.003056  -0.003314  -0.005386   0.000090  -0.000022   0.001955
    36  H    0.000818  -0.000388  -0.000081   0.000000  -0.000000   0.000004
    37  H   -0.000144  -0.000220  -0.000011   0.000000   0.000000   0.000002
    38  H    0.000043  -0.000015  -0.000296  -0.000000   0.000001  -0.000054
    39  H   -0.000021  -0.000001   0.000052  -0.000000   0.000000  -0.000002
    40  H    0.000047  -0.000023  -0.000317  -0.000000  -0.000000  -0.000038
              19         20         21         22         23         24
     1  C    0.003116   0.000130   0.000069  -0.000297   0.023743  -2.409787
     2  N    0.000166   0.000074  -0.000005  -0.000060  -0.031462   0.032608
     3  C    0.023751   0.006939   0.003821  -0.007418   0.097661   0.068936
     4  O   -0.000252  -0.000014   0.000016  -0.000077   0.012094   0.004031
     5  N    0.006191   0.000772  -0.001661   0.000349   0.010226   0.008389
     6  C   -0.072137  -0.027385   0.076027  -0.053506   0.012407   0.007000
     7  C    0.439757   0.039793  -0.132934   0.004471  -0.000641  -0.000419
     8  C   -0.068815   0.325667   0.405307   0.399880   0.000125  -0.000059
     9  C    0.000148   0.000032   0.000011  -0.000004   0.287392   1.277310
    10  C    0.000005   0.000000  -0.000000  -0.000003  -0.085484  -3.020583
    11  C    0.000015   0.000000  -0.000000  -0.000000   0.004793  -4.718112
    12  C   -0.000019  -0.000000   0.000000   0.000001  -0.026911   0.952039
    13  C   -0.000152   0.000005  -0.000002   0.000011  -0.020113  -0.187852
    14  H    0.000063   0.000000   0.000000  -0.000000  -0.000262  -0.000408
    15  H    0.000249  -0.000054  -0.000069   0.000040   0.000029  -0.000575
    16  H   -0.009686  -0.000591  -0.000266   0.003402  -0.000027  -0.000129
    17  H    0.006431   0.003479  -0.000129  -0.000830  -0.000023   0.000012
    18  H   -0.037127  -0.008073  -0.003656   0.006596  -0.000000  -0.000002
    19  H    0.445722   0.006562  -0.004011  -0.008541   0.000000  -0.000000
    20  H    0.006562   0.460820  -0.026869  -0.037996   0.000000   0.000000
    21  H   -0.004011  -0.026869   0.447466  -0.026248   0.000000   0.000000
    22  H   -0.008541  -0.037996  -0.026248   0.465402  -0.000000  -0.000001
    23  H    0.000000   0.000000   0.000000  -0.000000   0.340596   0.029549
    24  C   -0.000000   0.000000   0.000000  -0.000001   0.029549  13.259888
    25  Cl   0.000000  -0.000000   0.000000  -0.000000  -0.002452  -0.502529
    26  H   -0.000000   0.000000  -0.000000   0.000000   0.000058   0.008704
    27  H   -0.000000   0.000000   0.000000  -0.000000  -0.000029   0.002834
    28  F   -0.000000   0.000000  -0.000000   0.000000   0.013244   0.332513
    29  F    0.000000   0.000000   0.000000  -0.000000   0.000524   0.102644
    30  F    0.000000   0.000000   0.000000  -0.000000   0.000489   0.097583
    31  O   -0.000070   0.000001   0.000000  -0.000001   0.000018  -0.000431
    32  O   -0.000524   0.000109   0.000052  -0.000093  -0.000002  -0.000049
    33  C    0.000926   0.000217  -0.000080  -0.000041   0.000470  -0.005319
    34  C    0.001307   0.000013   0.000101  -0.000041   0.000069   0.000101
    35  C    0.000005   0.000008  -0.000041   0.000019   0.000001  -0.000023
    36  H    0.000000   0.000000  -0.000000   0.000000   0.000000   0.000002
    37  H   -0.000002   0.000000  -0.000000   0.000000  -0.000000  -0.000001
    38  H   -0.000004  -0.000000   0.000000  -0.000000   0.000000  -0.000000
    39  H    0.000000  -0.000000  -0.000000  -0.000000  -0.000000  -0.000000
    40  H    0.000004   0.000000   0.000001  -0.000000   0.000000   0.000000
              25         26         27         28         29         30
     1  C   -0.052140   0.051258   0.084446   0.031909   0.013904   0.014800
     2  N   -0.000602  -0.002811  -0.029373   0.001522   0.000409   0.000372
     3  C   -0.050932   0.004261  -0.003862   0.012297   0.001568   0.001660
     4  O    0.000168  -0.000015   0.000003  -0.001099   0.000031   0.000045
     5  N   -0.000472  -0.000063   0.000045  -0.000087   0.000014   0.000016
     6  C   -0.001376   0.000045  -0.000115   0.000255   0.000025   0.000008
     7  C    0.000012  -0.000000   0.000008   0.000003  -0.000000  -0.000001
     8  C   -0.000005   0.000000   0.000005  -0.000001   0.000000   0.000000
     9  C   -0.150703  -0.002290  -0.023767  -0.006498  -0.021162  -0.022059
    10  C    0.426328   0.078921   0.004260  -0.246139   0.093826   0.088977
    11  C   -0.972201   0.105123  -0.029111   0.035769  -0.106952  -0.101320
    12  C    0.167693   0.292301  -0.104381  -0.001038   0.046957   0.049296
    13  C   -0.004229  -0.197948   0.383214  -0.008357   0.025901   0.027036
    14  H    0.000023  -0.000005   0.012267   0.000006   0.000000  -0.000000
    15  H   -0.000005   0.000001  -0.000082  -0.000000  -0.000000  -0.000000
    16  H    0.000000   0.000000  -0.000000   0.000000  -0.000000   0.000000
    17  H    0.000000  -0.000000   0.000000   0.000000   0.000000  -0.000000
    18  H   -0.000000   0.000000  -0.000001   0.000000  -0.000000   0.000000
    19  H    0.000000  -0.000000  -0.000000  -0.000000   0.000000   0.000000
    20  H   -0.000000   0.000000   0.000000   0.000000   0.000000   0.000000
    21  H    0.000000  -0.000000   0.000000  -0.000000   0.000000   0.000000
    22  H   -0.000000   0.000000  -0.000000   0.000000  -0.000000  -0.000000
    23  H   -0.002452   0.000058  -0.000029   0.013244   0.000524   0.000489
    24  C   -0.502529   0.008704   0.002834   0.332513   0.102644   0.097583
    25  Cl  17.790244  -0.016328   0.000117   0.006845  -0.020414  -0.020226
    26  H   -0.016328   0.403117  -0.002734   0.000029  -0.000026  -0.000027
    27  H    0.000117  -0.002734   0.344212  -0.000009  -0.000000  -0.000002
    28  F    0.006845   0.000029  -0.000009   9.033676  -0.035253  -0.035245
    29  F   -0.020414  -0.000026  -0.000000  -0.035253   9.001559  -0.046212
    30  F   -0.020226  -0.000027  -0.000002  -0.035245  -0.046212   9.002179
    31  O   -0.000187   0.000018   0.005469   0.000000  -0.000000  -0.000000
    32  O   -0.000004  -0.000002   0.001001   0.000000  -0.000000  -0.000000
    33  C   -0.000425  -0.000469   0.011070  -0.000014   0.000005   0.000004
    34  C    0.000032   0.000212  -0.003415  -0.000001   0.000000   0.000000
    35  C   -0.000009  -0.000007   0.000297  -0.000000   0.000000  -0.000000
    36  H   -0.000000   0.000000  -0.000135   0.000000   0.000000   0.000000
    37  H   -0.000000  -0.000000   0.000050  -0.000000   0.000000  -0.000000
    38  H    0.000000  -0.000000   0.000001  -0.000000  -0.000000  -0.000000
    39  H   -0.000000   0.000000  -0.000001   0.000000  -0.000000  -0.000000
    40  H    0.000000   0.000000  -0.000001   0.000000   0.000000   0.000000
              31         32         33         34         35         36
     1  C   -0.155570   0.011300   0.170325  -0.053808   0.004711   0.000429
     2  N    0.009120  -0.037519   0.009049  -0.062430   0.002272   0.000316
     3  C    0.003965  -0.045278   0.014641  -0.052997   0.004066  -0.000384
     4  O   -0.000607   0.000128  -0.001296  -0.001290   0.000076  -0.000000
     5  N   -0.051909  -0.013661   0.037368  -0.056399   0.010284   0.000228
     6  C   -0.018020   0.069236   0.007233   0.065751  -0.010954   0.000149
     7  C   -0.000912  -0.017331   0.006426  -0.032421   0.009066  -0.000248
     8  C   -0.000313   0.007434  -0.009931   0.007225  -0.003010  -0.000022
     9  C    0.024846  -0.003778  -0.048759  -0.001025  -0.000769   0.000001
    10  C    0.004708  -0.000945  -0.031084  -0.002504  -0.000138   0.000061
    11  C   -0.010990   0.000198  -0.005154   0.012672  -0.001240  -0.000112
    12  C    0.023031  -0.005508  -0.112485   0.017089  -0.002428  -0.000143
    13  C    0.175474  -0.016984  -0.061800   0.021160  -0.003056   0.000818
    14  H    0.081314   0.011870  -0.010869   0.046087  -0.003314  -0.000388
    15  H    0.010837   0.074936  -0.006383   0.041779  -0.005386  -0.000081
    16  H    0.000019  -0.001157  -0.001184  -0.000640   0.000090   0.000000
    17  H   -0.000024   0.000671   0.000968   0.000366  -0.000022  -0.000000
    18  H    0.000041  -0.004695   0.003525  -0.001712   0.001955   0.000004
    19  H   -0.000070  -0.000524   0.000926   0.001307   0.000005   0.000000
    20  H    0.000001   0.000109   0.000217   0.000013   0.000008   0.000000
    21  H    0.000000   0.000052  -0.000080   0.000101  -0.000041  -0.000000
    22  H   -0.000001  -0.000093  -0.000041  -0.000041   0.000019   0.000000
    23  H    0.000018  -0.000002   0.000470   0.000069   0.000001   0.000000
    24  C   -0.000431  -0.000049  -0.005319   0.000101  -0.000023   0.000002
    25  Cl  -0.000187  -0.000004  -0.000425   0.000032  -0.000009  -0.000000
    26  H    0.000018  -0.000002  -0.000469   0.000212  -0.000007   0.000000
    27  H    0.005469   0.001001   0.011070  -0.003415   0.000297  -0.000135
    28  F    0.000000   0.000000  -0.000014  -0.000001  -0.000000   0.000000
    29  F   -0.000000  -0.000000   0.000005   0.000000   0.000000   0.000000
    30  F   -0.000000  -0.000000   0.000004   0.000000  -0.000000   0.000000
    31  O    8.478248  -0.142710   0.310109  -0.258187   0.026567  -0.004471
    32  O   -0.142710   8.338011   0.373253  -0.151026   0.014499   0.001089
    33  C    0.310109   0.373253   6.234402  -1.223756   0.334516  -0.023322
    34  C   -0.258187  -0.151026  -1.223756   7.758336  -0.525434   0.399461
    35  C    0.026567   0.014499   0.334516  -0.525434   6.055430  -0.040626
    36  H   -0.004471   0.001089  -0.023322   0.399461  -0.040626   0.454298
    37  H   -0.004140   0.000746  -0.024202   0.407541  -0.044793  -0.034497
    38  H   -0.000010  -0.007786  -0.011002  -0.026788   0.394853  -0.007218
    39  H   -0.000596   0.004107   0.054228  -0.108487   0.398981  -0.003334
    40  H   -0.000524  -0.008000  -0.002871  -0.035121   0.394961   0.005896
              37         38         39         40
     1  C   -0.000230  -0.000119  -0.000003   0.000087
     2  N    0.000530   0.000009   0.000025   0.000009
     3  C    0.000462  -0.000180   0.000183  -0.000432
     4  O    0.000000  -0.000000   0.000000  -0.000000
     5  N   -0.000090   0.000175  -0.000078   0.000137
     6  C   -0.000486  -0.000165  -0.000105   0.000843
     7  C    0.000517   0.000415  -0.000017  -0.000556
     8  C    0.000023   0.000162  -0.000007  -0.000043
     9  C    0.000023  -0.000006   0.000004  -0.000007
    10  C   -0.000040  -0.000002  -0.000001   0.000003
    11  C    0.000033   0.000003   0.000001  -0.000001
    12  C   -0.000193  -0.000017   0.000004  -0.000005
    13  C   -0.000144   0.000043  -0.000021   0.000047
    14  H   -0.000220  -0.000015  -0.000001  -0.000023
    15  H   -0.000011  -0.000296   0.000052  -0.000317
    16  H    0.000000  -0.000000  -0.000000  -0.000000
    17  H    0.000000   0.000001   0.000000  -0.000000
    18  H    0.000002  -0.000054  -0.000002  -0.000038
    19  H   -0.000002  -0.000004   0.000000   0.000004
    20  H    0.000000  -0.000000  -0.000000   0.000000
    21  H   -0.000000   0.000000  -0.000000   0.000001
    22  H    0.000000  -0.000000  -0.000000  -0.000000
    23  H   -0.000000   0.000000  -0.000000   0.000000
    24  C   -0.000001  -0.000000  -0.000000   0.000000
    25  Cl  -0.000000   0.000000  -0.000000   0.000000
    26  H   -0.000000  -0.000000   0.000000   0.000000
    27  H    0.000050   0.000001  -0.000001  -0.000001
    28  F   -0.000000  -0.000000   0.000000   0.000000
    29  F    0.000000  -0.000000  -0.000000   0.000000
    30  F   -0.000000  -0.000000  -0.000000   0.000000
    31  O   -0.004140  -0.000010  -0.000596  -0.000524
    32  O    0.000746  -0.007786   0.004107  -0.008000
    33  C   -0.024202  -0.011002   0.054228  -0.002871
    34  C    0.407541  -0.026788  -0.108487  -0.035121
[...]
 3,0.00003842,-0.00001247,-0.00002197,0.00001058,0.00000279,0.00000318,
 -0.00000329,-0.00000184,0.00000693,-0.00001155,0.00000224,-0.00000079,
 -0.00000885,-0.00000804,0.00000270,-0.00001298,0.00000597,-0.00000397,
 -0.00001840,-0.00000125,-0.00001223,0.00001915,-0.00000305,-0.00000123
 ,0.00001103,-0.00000646,-0.00000755,-0.00005341,-0.00002643,-0.0000182
 6,0.00000781,0.00000168,0.00000028,0.00000792,-0.00000010,0.00000859,0
 .00000366,-0.00000104,0.00000077,0.00262537,0.00058049,0.00319103,-0.0
 0067479,-0.00495440,0.00540161,-0.02589793,-0.00993825,-0.02104025,-0.
 07903627,-0.08615735,-0.05538037,0.01639789,0.00728638,0.01106825,0.08
 309618,0.09345169,-0.00012597,0.00004153,0.00000145,0.00008321,-0.0000
 8646,0.00004631,-0.00001487,0.00003112,0.00000058,0.00000037,-0.000029
 00,0.00000011,0.00002330,0.00005505,0.00003587,-0.00000538,0.00000200,
 0.00000284,-0.00000025,-0.00000148,-0.00000997,0.00000318,-0.00000105,
 0.00000462,0.00002896,-0.00002001,0.00000068,-0.00001030,0.00000571,0.
 00000150,0.00000440,-0.00000090,-0.00000155,-0.00001718,-0.00000264,0.
 00000454,0.00003401,0.00000513,-0.00001010,-0.00001397,0.00011771,-0.0
 0009573,-0.00001101,-0.00010714,-0.00007151,0.00000208,-0.00000047,-0.
 00000258,0.00000213,0.00000053,0.00000164,-0.00000133,-0.00000280,-0.0
 0000236,0.00000257,0.00000594,0.00000467,-0.00000071,0.00000063,0.0000
 0209,0.00000086,0.00000089,-0.00000087,-0.00000137,-0.00000282,-0.0000
 0153,-0.00000435,0.00000377,-0.00000014,-0.00001354,-0.00000292,0.0000
 0697,0.00001291,-0.00000171,-0.00000153,0.00001122,-0.00000628,0.00000
 021,-0.00002507,-0.00002544,0.00000722,0.00000717,0.00000394,-0.000003
 33,0.00000336,0.00000059,-0.00000029,0.00000403,-0.00000143,-0.0000036
 8,0.00080056,-0.00126028,-0.00042649,0.00055129,0.00134742,-0.00217136
 ,0.00765190,0.00600163,0.00556494,-0.10411470,-0.05274529,-0.11209735,
 0.00544375,0.00315389,0.00327062,0.11390295,0.05639408,0.12111632,0.00
 008572,-0.00002109,-0.00000439,0.00000870,0.00012080,-0.00001575,-0.00
 013424,-0.00001336,0.00004082,0.00003697,0.00001057,-0.00001804,0.0000
 3404,-0.00013124,0.00001675,0.00000124,-0.00000959,0.00000171,0.000002
 75,0.00002376,0.00002836,-0.00000133,-0.00000758,-0.00000735,-0.000015
 41,0.00000662,-0.00000508,-0.00000062,0.00000293,-0.00000457,0.0000034
 1,0.00000319,0.00000001,0.00001237,0.00000485,-0.00000572,-0.00002372,
 -0.00001177,0.00001851,-0.00003238,-0.00023722,0.00003021,-0.00002197,
 0.00017216,-0.00005944,-0.00000076,-0.00000548,0.00000153,-0.00000101,
 0.00000312,-0.00000445,0.00000416,0.00000014,-0.00000489,-0.00000283,-
 0.00000695,-0.00000901,0.00000150,0.00000394,-0.00000431,0.00000156,0.
 00000231,0.00000416,-0.00000186,-0.00000471,0.00000060,0.00000100,-0.0
 0000058,0.00000204,0.00000891,-0.00001219,0.00000672,-0.00001197,0.000
 00268,0.00000085,-0.00000582,0.00000345,-0.00000114,0.00003598,-0.0000
 0090,-0.00001607,-0.00000173,0.00000249,-0.00000097,-0.00000468,0.0000
 0312,-0.00000444,-0.00000350,0.00000480,0.00000126,-0.00058115,0.00194
 605,-0.00074101,-0.00023281,-0.00211278,-0.00060687,-0.00314228,-0.001
 13686,0.00574729,-0.06163845,-0.00008764,0.06570757,-0.00737468,-0.000
 58562,0.02752781,0.00661332,0.00160962,-0.02512026,0.06873597,-0.00010
 469,0.00004266,-0.00000527,0.00013897,0.00006883,0.00003386,-0.0002874
 6,0.00013296,0.00001170,0.00007014,-0.00015167,0.00002556,0.00010182,-
 0.00043725,0.00016914,0.00010066,0.00000869,-0.00002988,-0.00001841,0.
 00001458,0.00002245,0.00000579,-0.00001038,-0.00000788,0.00001845,-0.0
 0002368,0.00000304,-0.00000475,-0.00000057,-0.00000010,0.00000097,-0.0
 0000363,-0.00000280,-0.00000475,-0.00000086,0.00000120,0.00002429,0.00
 000239,-0.00002114,-0.00006943,0.00002293,-0.00013162,-0.00003105,0.00
 069698,-0.00035481,-0.00002131,-0.00002042,0.00000767,-0.00001321,-0.0
 0000615,0.00001513,0.00003105,-0.00000880,-0.00002669,0.00000791,0.000
 00846,0.00000199,-0.00000187,-0.00000264,0.00000401,-0.00001127,0.0000
 0127,-0.00000057,-0.00000723,-0.00000525,0.00000344,-0.00000635,0.0000
 0484,0.00000138,-0.00000749,0.00001698,0.00000456,0.00001258,-0.000002
 90,-0.00000085,0.00000426,0.00000117,0.00000341,-0.00003022,0.00001720
 ,0.00001288,0.00000166,-0.00000415,0.,0.00000302,-0.00000375,0.0000019
 5,0.00000367,-0.00000769,-0.00000500,0.00011907,-0.00111050,-0.0037763
 9,-0.00308677,-0.00598546,-0.00196466,-0.00632703,0.00240063,0.0346757
 3,0.00030202,-0.04474688,0.00953699,0.00497811,-0.00052443,-0.01931135
 ,0.00365000,-0.00012170,-0.01344180,-0.00169967,0.05051844,0.00015574,
 -0.00006679,-0.00000698,-0.00017232,0.00002636,0.00000918,0.00028576,-
 0.00011226,-0.00003161,-0.00006797,0.00011523,-0.00001617,-0.00009414,
 0.00030964,-0.00005242,-0.00004760,0.00000100,0.00001469,0.00000340,-0
 .00002953,-0.00002601,-0.00000500,0.00001079,0.00000659,-0.00003520,0.
 00003379,-0.00000101,0.00001568,-0.00000690,0.00000704,-0.00000857,0.0
 0000018,-0.00000044,0.00001723,0.00000365,0.00000533,-0.00004293,0.000
 00272,0.00002194,0.00004301,-0.00003270,0.00004693,-0.00001480,-0.0004
 3712,0.00011475,0.00001118,0.00001856,-0.00000370,0.00000323,-0.000000
 69,-0.00000544,-0.00001913,0.00001053,0.00002083,-0.00000151,-0.000002
 85,0.00000042,0.00000021,-0.00000238,-0.00000184,0.00000290,-0.0000039
 2,-0.00000152,0.00000701,0.00001066,-0.00000077,0.00000836,-0.00000804
 ,-0.00000395,0.00001526,-0.00000147,-0.00002113,-0.00001608,0.00000250
 ,0.00000232,-0.00001239,0.00000219,-0.00000733,0.00001726,0.00000964,-
 0.00003351,-0.00000873,-0.00000361,0.00000565,-0.00000211,-0.00000014,
 0.00000378,-0.00000534,0.00000474,0.00000861,-0.00084034,0.00051372,0.
 00264344,-0.00009038,0.00258035,0.00037769,0.00363250,-0.00293001,-0.0
 0982548,0.06463131,0.00621285,-0.29486381,0.00044997,-0.00012092,-0.00
 227714,0.00367874,0.00079955,-0.01672884,-0.07261156,-0.00591742,0.318
 28445,0.00002380,0.00000150,0.00000316,-0.00002237,0.00004959,-0.00003
 465,0.00000946,-0.00001569,0.00001950,-0.00000385,0.00002201,-0.000016
 13,-0.00002090,0.00001689,-0.00002536,0.00001790,0.00000862,0.00001529
 ,-0.00000873,-0.00002833,-0.00002142,-0.00000172,0.00000458,0.00000632
 ,-0.00000280,0.00000490,-0.00000424,-0.00000253,0.00000505,-0.00000227
 ,0.00000228,0.00000113,-0.00000057,0.00000105,0.00000011,-0.00000529,-
 0.00000749,-0.00001563,-0.00000473,0.00000544,-0.00009051,0.00004656,0
 .00000208,-0.00002697,0.00002719,-0.00000492,0.00000524,-0.00000337,0.
 00000141,0.00000122,-0.00000327,0.00001002,0.00000176,0.00001204,0.000
 00022,0.00000301,0.00000175,0.00000109,-0.00000375,0.00000033,-0.00000
 796,-0.00000438,-0.00000508,0.00000205,0.00000890,0.00000057,0.0000012
 6,0.00000109,0.00000286,0.00000633,-0.00000802,0.00001454,-0.00000588,
 0.00000197,-0.00000050,0.00000158,-0.00000022,0.00000467,0.00001208,-0
 .00000568,0.00001663,-0.00000015,0.00000257,-0.00000299,-0.00000489,0.
 00000225,-0.00000741,-0.00000131,0.00000183,-0.00000251,0.00016901,0.0
 0015407,-0.00045468,0.00043341,0.00025529,-0.00052202,-0.00030063,-0.0
 0120402,0.00067688,-0.00765871,-0.00017187,0.02888153,-0.06398151,-0.0
 0173734,0.06506229,0.00081802,-0.00106272,-0.00016574,-0.00431663,0.00
 365995,0.00043003,0.07044899,0.00010678,-0.00003931,-0.00000382,-0.000
 10712,0.00003879,0.00001533,0.00016498,-0.00009960,0.00000508,-0.00003
 745,0.00008772,-0.00002204,-0.00004897,0.00018036,-0.00002656,-0.00001
 795,0.00000170,0.00001100,-0.00000545,-0.00004735,-0.00003142,-0.00000
 657,0.00001616,0.00000852,-0.00001957,0.00002183,-0.00000474,0.0000042
 2,0.00000061,-0.00000370,0.00000445,0.00000093,0.,0.00000911,0.0000008
 2,-0.00000261,-0.00002804,-0.00000719,0.00001519,0.00002277,-0.0000803
 3,0.00001080,-0.00003301,-0.00025420,0.00004724,0.00000170,0.00001687,
 -0.00000154,-0.00000020,-0.00000451,-0.00000326,-0.00001828,0.00000852
 ,0.00001949,0.00000104,0.00000299,0.00000524,-0.00000127,-0.00000393,-
 0.00000166,0.00000094,-0.00000545,-0.00000115,0.00000921,0.00001269,-0
 .00000054,0.00000551,-0.00000429,-0.00000098,0.00001701,-0.00002238,0.
 00000194,-0.00001792,0.00000469,0.00000144,-0.00000364,0.00000021,-0.0
 0000021,0.00001667,-0.00000476,-0.00000792,-0.00000414,0.00000449,0.00
 000009,-0.00000664,0.00000533,-0.00000524,-0.00000623,0.00000988,0.000
 00483,-0.00069651,0.00016718,0.00041115,-0.00104284,-0.00073837,0.0009
 2569,0.00135807,0.00049086,-0.00152746,0.00418201,-0.00005448,-0.01881
 986,-0.00177849,-0.04717876,0.00582038,-0.00062608,0.00069167,0.000519
 81,0.00330629,-0.00185563,-0.00039038,-0.00123336,0.04834226,0.0000011
 1,-0.00001290,0.00000037,-0.00004636,-0.00007930,0.00005721,0.00010800
 ,0.00000013,-0.00003651,-0.00003078,-0.00001290,0.00001852,-0.00004265
 ,0.00002602,0.00002933,0.00003676,0.00001176,-0.00000881,-0.00001393,-
 0.00004050,-0.00003241,0.00000084,0.00000946,0.00000911,-0.00000424,0.
 00000264,0.00000209,0.00000761,-0.00000856,0.00000684,-0.00000688,-0.0
 0000132,-0.00000052,-0.00000066,-0.00000094,0.00000494,0.00000016,0.00
 001356,0.00000133,0.00000793,0.00011207,-0.00006314,-0.00000177,-0.000
 00977,-0.00003222,-0.00000733,0.00000583,-0.00000006,-0.00000489,-0.00
 000674,0.00000919,0.00000479,-0.00000344,0.00000671,0.00000529,0.00001
 146,0.00000942,-0.00000212,-0.00000762,0.00000556,-0.00000907,-0.00000
 475,-0.00000691,0.00000244,0.00001039,0.00000067,0.00000198,-0.0000019
 4,-0.00000303,-0.00000215,0.00002310,-0.00001936,0.00000449,-0.0000025
 3,0.00000057,-0.00000295,0.00000128,-0.00000325,-0.00000805,0.00000499
 ,-0.00000980,-0.00000428,-0.00000833,0.00000530,0.00000436,-0.00000606
 ,0.00000820,0.00000153,-0.00000619,0.00000251,-0.00054830,-0.00060997,
 0.00029501,-0.00149121,0.00040474,0.00074391,0.00194335,0.00166215,-0.
 00085519,0.00108879,-0.00070897,-0.00353864,0.06591644,0.00379257,-0.3
 0316438,0.00048118,-0.00016314,0.00061238,0.00085615,-0.00019982,0.001
 54016,-0.07322860,-0.00545910,0.32711293,0.00012113,-0.00001137,-0.000
 01337,0.00002721,0.00031516,-0.00012942,-0.00019117,-0.00002336,0.0000
 4284,0.00005518,0.00006309,-0.00003348,0.00005872,-0.00000366,0.000002
 71,-0.00005144,-0.00001793,0.00001041,0.00001230,0.00002273,0.00000149
 ,0.00000641,-0.00000755,0.00000068,-0.00001977,0.00001535,-0.00000231,
 -0.00000635,0.00001304,-0.00000318,0.00000823,0.00000426,-0.00000332,0
 .00001473,0.00000986,-0.00000605,-0.00003638,-0.00004027,0.00001824,-0
 .00004333,-0.00047153,0.00018702,-0.00001387,-0.00003169,0.00000979,0.
 00000910,-0.00000192,-0.00000186,0.00001104,0.00000282,-0.00000355,-0.
 00000637,0.00000084,-0.00001742,-0.00000232,0.00000831,0.00000607,-0.0
 0000072,0.00000153,0.00000245,0.00000975,0.00000306,-0.00000047,-0.000
 00344,-0.00000649,-0.00000042,0.00000041,-0.00000132,0.00000078,0.0000
 1051,-0.00003109,0.00001276,-0.00001966,0.00000635,0.00000048,-0.00000
 327,0.00000047,0.00000139,0.00004788,-0.00000734,-0.00000080,0.0000004
 6,0.00000862,-0.00000387,-0.00000778,0.00000766,-0.00000948,-0.0000053
 0,0.00001137,0.00000194,-0.00071213,0.00334540,-0.00065221,0.00207298,
 -0.00045684,-0.00039912,-0.00615164,-0.00168660,0.00280672,0.00531984,
 0.02943098,-0.00922649,-0.05435338,-0.03795457,0.01033350,0.00098457,-
 0.00088333,-0.00054039,0.00110487,-0.00089298,0.00023043,-0.00268444,-
 0.00721838,0.00083644,0.05738791,-0.00030890,0.00006907,0.00002396,0.0
 0014373,-0.00042145,0.00012892,-0.00003322,0.00023180,-0.00008286,-0.0
 0000576,-0.00024737,0.00009302,0.00000350,-0.00028565,0.00008665,0.000
 09111,0.00001992,-0.00004685,-0.00000796,0.00002755,0.00002023,0.00001
 093,-0.00001067,-0.00000661,0.00004837,-0.00005343,0.00001351,0.000008
 29,-0.00002963,0.00000880,-0.00002974,-0.00000479,0.00000646,-0.000034
 25,-0.00001345,0.00001055,0.00008339,0.00006921,-0.00004504,-0.0000130
 6,0.00071735,-0.00025002,0.00007837,0.00047807,-0.00013840,-0.00001523
 ,-0.00002557,0.00000574,-0.00001232,-0.00000508,0.00002366,0.00002868,
 -0.00001024,-0.00003573,0.00000924,0.00001356,0.00001081,-0.00000317,-
 0.00000137,0.00001014,-0.00000896,0.00000656,-0.00000211,-0.00001027,-
 0.00001459,0.00000170,-0.00000859,0.00000835,-0.00000123,-0.00004982,0
 .00010991,-0.00003300,0.00006345,-0.00001922,-0.00000291,0.00000461,0.
 00000251,-0.00000175,-0.00008577,0.00003048,0.00000407,0.00000344,-0.0
 0002809,0.00000968,0.00002701,-0.00002694,0.00002902,0.00002138,-0.000
 04184,-0.00001039,0.00174001,-0.00311406,0.00030763,0.00049274,-0.0010
 5449,0.00022127,0.00175084,0.00267516,-0.00117746,-0.00472534,-0.01573
 877,0.00502124,-0.03737798,-0.28611026,0.06862986,0.00030116,0.0006545
 8,0.00037972,-0.00017938,0.00024131,-0.00061039,-0.00010068,0.00090158
 ,0.00036489,0.03940654,0.31154358,0.00003624,-0.00001429,-0.00000095,-
 0.00004712,-0.00000790,0.00001376,0.00007439,-0.00004659,0.00000243,-0
 .00001787,0.00003533,-0.00001075,-0.00001717,0.00007500,0.00000208,-0.
 00000951,-0.00000027,0.00000435,-0.00000228,-0.00002163,-0.00001139,-0
 .00000255,0.00000609,0.00000424,-0.00000565,0.00000835,-0.00000193,0.0
 0000094,0.00000214,-0.00000143,0.00000347,-0.00000006,-0.00000038,0.00
 000404,-0.00000119,-0.00000097,-0.00000950,-0.00000486,-0.00000167,0.0
 0001831,-0.00000542,-0.00000807,-0.00001822,-0.00010944,0.00000544,0.0
 0000103,0.00000686,0.00000003,0.00000067,-0.00000348,-0.00000067,-0.00
 000770,0.00000293,-0.00000091,0.00000112,0.00000641,0.00000504,-0.0000
 0152,-0.00000266,0.00000024,0.00000125,-0.00000228,-0.00000094,0.00000
 345,0.00000529,0.00000012,0.00000224,-0.00000111,0.00000061,0.00000927
 ,-0.00001292,0.00000602,-0.00000861,0.00000212,0.00000019,-0.00000008,
 0.00000027,0.00000211,0.00000493,-0.00000192,0.00000299,-0.00000146,0.
 00000299,-0.00000107,-0.00000441,0.00000333,-0.00000460,-0.00000302,0.
 00000472,0.00000093,-0.00013100,-0.00040651,0.00020317,-0.00060176,0.0
 0049061,0.00064185,0.00189649,0.00008141,0.00003370,-0.00123277,-0.006
 65146,0.00072125,0.01022474,0.06878901,-0.07000378,-0.00019716,0.00045
 680,-0.00003198,-0.00055773,-0.00005843,0.00022213,0.00424995,0.030936
 09,-0.00649237,-0.01275315,-0.07607774,0.06949584,-0.00001480,0.000017
 15,-0.00001027,0.00005472,0.00009768,-0.00002135,-0.00013004,-0.000001
 34,0.00000330,0.00003285,0.00001078,-0.00000051,0.00005028,-0.00001866
 ,0.00004297,-0.00001332,-0.00000285,-0.00000423,-0.00000544,-0.0000067
 2,-0.00002472,0.00000500,-0.00000155,0.00000740,0.00000826,-0.00000385
 ,0.00000246,-0.00001035,0.00001151,-0.00000039,0.00001130,-0.00000054,
 -0.00000226,0.00000143,0.00000565,0.00000269,0.00000541,-0.00000982,0.
 00001686,-0.00001055,-0.00012817,0.00003331,-0.00001075,0.00000576,-0.
 00003856,0.00000125,0.00000152,-0.00000136,0.00000472,-0.00000158,0.00
 000389,0.00000482,0.00000691,-0.00000560,0.00000581,0.00001195,0.00001
 003,-0.00000305,-0.00000180,0.00000475,0.00000208,-0.00000152,-0.00000
 267,-0.00000162,0.00000084,-0.00000074,-0.00000339,-0.00000054,-0.0000
 0306,0.00000062,-0.00003331,0.,-0.00000582,0.00000382,0.00000030,0.000
 00427,-0.00000510,-0.00000377,0.00000561,-0.00001897,-0.00001009,0.000
 00447,0.00001021,-0.00000247,-0.00000175,0.00000770,-0.00000214,-0.000
 00345,0.00001233,0.00000412,0.00077591,0.00062549,-0.00010136,0.001998
 71,0.00013091,0.00019143,-0.00186080,-0.00208000,0.00075086,-0.0221356
 6,-0.01002480,-0.01518247,-0.20717848,-0.07713653,-0.10977983,-0.00362
 558,0.00381628,0.00161218,0.00085736,-0.00060845,0.00045692,0.00706990
 ,0.00374736,0.00414655,-0.00295047,-0.00130637,-0.00090226,0.22706054,
 0.00007155,-0.00002439,-0.00000210,-0.00005837,0.00004747,-0.00000397,
 0.00009026,-0.00006725,0.00000805,-0.00001879,0.00006390,-0.00002273,-
 0.00002184,0.00012798,-0.00003269,-0.00002273,-0.00000124,0.00001506,0
 .00000262,-0.00001219,0.00000058,-0.00001060,0.00000994,-0.00000289,-0
 .00001313,0.00001377,-0.00000348,0.00000315,0.00000233,0.00000154,0.00
 000180,0.00000054,-0.00000134,0.00000555,0.00000318,-0.00000041,-0.000
 02049,-0.00000760,0.00000568,0.00000973,-0.00008772,0.00002247,-0.0000
 2934,-0.00020170,0.00004098,0.00000449,0.00000887,-0.00000158,0.000000
 71,0.00000221,-0.00001004,-0.00001324,0.00000951,0.00002034,-0.0000062
 4,-0.00001250,-0.00001166,0.00000371,0.00000275,-0.00000597,0.00000578
 ,-0.00000218,0.00000312,0.00000611,0.00000443,-0.00000155,0.00000328,-
 0.00000244,0.00000053,0.00000900,-0.00001648,0.00000293,-0.00001095,0.
 00000283,0.00000061,-0.00000262,0.00000034,0.00000024,0.00001559,-0.00
 000155,-0.00000095,-0.00000158,0.00000375,-0.00000121,-0.00000426,0.00
 000399,-0.00000406,-0.00000365,0.00000652,0.00000215,-0.00059276,0.000
 21422,-0.00014377,-0.00027477,-0.00036030,-0.00010342,0.00099744,0.000
 30634,0.00058002,0.01491147,0.00763706,0.01102074,-0.07894646,-0.08466
 340,-0.05386121,0.00344283,-0.00195379,-0.00033116,-0.00096825,0.00083
 410,0.00000886,0.00149564,-0.00060761,0.00089773,-0.02292922,-0.010543
 59,-0.01748561,0.08286858,0.08925994,-0.00005971,0.00002481,-0.0000001
 8,0.00009590,0.00001160,-0.00001510,-0.00015852,0.00005214,0.00000178,
 0.00004261,-0.00004245,0.00001245,0.00007471,-0.00009588,0.00003202,-0
 .00004379,-0.00001798,-0.00001889,0.00001914,0.00004893,0.00003491,0.0
 0000587,-0.00001264,-0.00001281,0.00001298,-0.00001402,0.00000377,-0.0
 0000498,0.00000165,-0.00000199,0.00000120,-0.00000015,0.00000117,-0.00
 000412,0.00000017,-0.00000072,0.00001679,0.00000507,-0.00000052,-0.000
 02109,0.00000789,-0.00000458,0.00000461,0.00011900,-0.00004271,0.00000
 911,-0.00001324,0.00000496,0.00000671,-0.00000241,0.00000702,-0.000008
 76,-0.00000149,-0.00005412,-0.00000282,0.00001604,0.00001127,-0.000002
 55,0.00000228,0.00000688,0.00001891,0.00000796,0.00000351,-0.00000724,
 -0.00001838,0.00000151,-0.00000478,0.00000175,-0.00000095,-0.00000988,
 -0.00000271,-0.00000068,0.00000798,-0.00000144,-0.00000047,0.00000256,
 -0.00000066,-0.00000095,-0.00000915,0.00000261,-0.00000047,0.00000465,
 0.00000237,-0.00000087,0.00000351,0.00000061,0.00000273,0.00000213,-0.
 00000014,-0.00000098,0.00048244,0.00019170,-0.00032132,0.00136835,-0.0
 0036932,0.00004715,-0.00172998,-0.00070796,0.00061727,0.00567624,0.003
 13895,0.00339676,-0.11012758,-0.05235121,-0.12331972,0.00138476,-0.000
 76986,0.00097563,-0.00018926,0.00072041,0.00057314,-0.02496127,-0.0124
 4510,-0.01621567,0.00929420,0.00311094,0.00520535,0.11881011,0.0594001
 5,0.12907442\\-0.00001666,-0.00000535,-0.00000174,0.00003053,0.0000114
 1,0.00000502,-0.00001575,-0.00001082,-0.00002323,0.00000011,-0.0000093
 4,0.00001495,0.00002360,0.00001043,0.00000673,0.00001096,-0.00000290,0
 .00000831,0.00000239,0.00000758,0.00000485,-0.00000005,-0.00000338,0.0
 0000788,0.00000379,0.00000153,-0.00000607,0.00001483,0.00001597,0.0000
 0901,-0.00001293,-0.00000460,0.00000172,-0.00000420,-0.00000152,-0.000
 00371,-0.00000567,-0.00000072,-0.00000151,-0.00001945,-0.00000123,-0.0
 0000599,-0.00000799,0.00000625,-0.00001298,0.00000337,0.00000254,0.000
 00932,-0.00000319,-0.00000163,0.00000182,-0.00000064,-0.00000289,-0.00
 000070,-0.00000015,-0.00000033,0.00001206,0.00000113,0.00000148,0.0000
 0170,0.00000428,-0.00000378,0.00000875,-0.00000089,0.00000407,0.000009
 75,-0.00000006,0.00000720,0.00000127,-0.00000409,0.00000766,0.00000787
 ,-0.00001377,-0.00002294,-0.00000301,-0.00000042,-0.00000091,-0.000005
 38,-0.00000247,0.00000099,-0.00000507,0.00002072,-0.00000433,-0.000001
 91,-0.00000970,0.00000348,-0.00003445,0.00001224,0.00000840,0.00000944
 ,-0.00001077,0.00000487,0.00001389,-0.00000357,0.00000693,0.00001127,0
 .00000811,-0.00001300,-0.00002607,0.00000209,-0.00000300,0.00000015,0.
 00000020,-0.00000413,-0.00000030,0.00000392,-0.00000004,-0.00000354,-0
 .00000152,-0.00000342,-0.00000364,-0.00000184,0.00000059,0.00000095,-0
 .00000056,0.00000165,-0.00000445,-0.00000596,-0.00000277,-0.00000295\\
 \@


 REPARTEE - WHAT YOU THINK OF AFTER YOU BECOME A DEPARTEE.
 Job cpu time:       0 days 12 hours  0 minutes 23.2 seconds.
 File lengths (MBytes):  RWF=   1412 Int=      0 D2E=      0 Chk=     36 Scr=      1
 Normal termination of Gaussian 09 at Thu Nov 14 23:30:36 2019.
pbs_rusage has been removed.
Please contact help@nci.org.au if you require this functionality.
