 Entering Gaussian System, Link 0=/apps/gaussian/g09e01/g09/g09
 Initial command:
 /apps/gaussian/g09e01/g09/l1.exe "/jobfs/local/3595012.r-man2/Gau-23312.inp" -scrdir="/jobfs/local/3595012.r-man2/"
 Entering Link 1 = /apps/gaussian/g09e01/g09/l1.exe PID=     23313.
  
 Copyright (c) 1988,1990,1992,1993,1995,1998,2003,2009,2015,
            Gaussian, Inc.  All Rights Reserved.
  
 This is part of the Gaussian(R) 09 program.  It is based on
 the Gaussian(R) 03 system (copyright 2003, Gaussian, Inc.),
 the Gaussian(R) 98 system (copyright 1998, Gaussian, Inc.),
 the Gaussian(R) 94 system (copyright 1995, Gaussian, Inc.),
 the Gaussian 92(TM) system (copyright 1992, Gaussian, Inc.),
 the Gaussian 90(TM) system (copyright 1990, Gaussian, Inc.),
 the Gaussian 88(TM) system (copyright 1988, Gaussian, Inc.),
 the Gaussian 86(TM) system (copyright 1986, Carnegie Mellon
 University), and the Gaussian 82(TM) system (copyright 1983,
 Carnegie Mellon University). Gaussian is a federally registered
 trademark of Gaussian, Inc.
  
 This software contains proprietary and confidential information,
 including trade secrets, belonging to Gaussian, Inc.
  
 This software is provided under written license and may be
 used, copied, transmitted, or stored only in accord with that
 written license.
  
 The following legend is applicable only to US Government
 contracts under FAR:
  
                    RESTRICTED RIGHTS LEGEND
  
 Use, reproduction and disclosure by the US Government is
 subject to restrictions as set forth in subparagraphs (a)
 and (c) of the Commercial Computer Software - Restricted
 Rights clause in FAR 52.227-19.
  
 Gaussian, Inc.
 340 Quinnipiac St., Bldg. 40, Wallingford CT 06492
  
  
 ---------------------------------------------------------------
 Warning -- This program may not be used in any manner that
 competes with the business of Gaussian, Inc. or will provide
 assistance to any competitor of Gaussian, Inc.  The licensee
 of this program is prohibited from giving any competitor of
 Gaussian, Inc. access to this program.  By using this program,
 the user acknowledges that Gaussian, Inc. is engaged in the
 business of creating and licensing software in the field of
 computational chemistry and represents and warrants to the
 licensee that it is not a competitor of Gaussian, Inc. and that
 it will not use this program in any manner prohibited above.
 ---------------------------------------------------------------
  

 Cite this work as:
 Gaussian 09, Revision E.01,
 M. J. Frisch, G. W. Trucks, H. B. Schlegel, G. E. Scuseria, 
 M. A. Robb, J. R. Cheeseman, G. Scalmani, V. Barone, B. Mennucci, 
 G. A. Petersson, H. Nakatsuji, M. Caricato, X. Li, H. P. Hratchian, 
 A. F. Izmaylov, J. Bloino, G. Zheng, J. L. Sonnenberg, M. Hada, 
 M. Ehara, K. Toyota, R. Fukuda, J. Hasegawa, M. Ishida, T. Nakajima, 
 Y. Honda, O. Kitao, H. Nakai, T. Vreven, J. A. Montgomery, Jr., 
 J. E. Peralta, F. Ogliaro, M. Bearpark, J. J. Heyd, E. Brothers, 
 K. N. Kudin, V. N. Staroverov, T. Keith, R. Kobayashi, J. Normand, 
 K. Raghavachari, A. Rendell, J. C. Burant, S. S. Iyengar, J. Tomasi, 
 M. Cossi, N. Rega, J. M. Millam, M. Klene, J. E. Knox, J. B. Cross, 
 V. Bakken, C. Adamo, J. Jaramillo, R. Gomperts, R. E. Stratmann, 
 O. Yazyev, A. J. Austin, R. Cammi, C. Pomelli, J. W. Ochterski, 
 R. L. Martin, K. Morokuma, V. G. Zakrzewski, G. A. Voth, 
 P. Salvador, J. J. Dannenberg, S. Dapprich, A. D. Daniels, 
 O. Farkas, J. B. Foresman, J. V. Ortiz, J. Cioslowski, 
 and D. J. Fox, Gaussian, Inc., Wallingford CT, 2013.
 
 ******************************************
 Gaussian 09:  ES64L-G09RevE.01 30-Nov-2015
                14-Nov-2019 
 ******************************************
 %chk=29_carboxy.M062X_6-311pGd_opt_water_GD3.chk
 %mem=196608000
 %nproc=8
 Will use up to    8 processors via shared memory.
 ----------------------------------------------------------------------
 # M062X/6-311+G* SCF=Tight INT(grid=ultrafine) OPT IOP(2/17=4) Empiric
 alDispersion=GD3 SCRF=(SMD,Solvent=h2o) maxdisk=2684354560
 ----------------------------------------------------------------------
 1/14=-1,18=20,19=15,26=4,38=1/1,3;
 2/9=110,12=2,17=4,18=5,40=1/2;
 3/5=4,6=6,7=11,11=2,16=1,25=1,30=1,70=32201,71=1,72=1,74=-55,75=-5,124=31/1,2,3;
 4//1;
 5/5=2,32=2,38=5,53=1/2;
 6/7=2,8=2,9=2,10=2,28=1/1;
 7//1,2,3,16;
 1/14=-1,18=20,19=15,26=4/3(2);
 2/9=110,17=4/2;
 99//99;
 2/9=110,17=4/2;
 3/5=4,6=6,7=11,11=2,16=1,25=1,30=1,70=32205,71=1,72=1,74=-55,75=-5,124=31/1,2,3;
 4/5=5,16=3,69=1/1;
 5/5=2,32=2,38=5,53=1/2;
 7//1,2,3,16;
 1/14=-1,18=20,19=15,26=4/3(-5);
 2/9=110,17=4/2;
 6/7=2,8=2,9=2,10=2,19=2,28=1/1;
 99/9=1/99;
 ---------------------------------------
 29_carboxy.M062X_6-311pGd_opt_water_GD3
 ---------------------------------------
 Symbolic Z-matrix:
 Charge = -1 Multiplicity = 1
 C                    -6.17476   1.32394   0.63637 
 N                    -4.90321   0.75773   0.56984 
 C                    -3.72203   1.44018   0.34649 
 O                    -3.66954   2.66212   0.15126 
 N                    -2.62802   0.65735   0.37245 
 C                    -1.30076   1.21281   0.15447 
 C                    -0.25618   0.10974   0.21637 
 C                     1.14597   0.66529   0.00041 
 C                    -6.53709   2.48733  -0.04994 
 C                    -7.83473   2.97894   0.04163 
 C                    -8.79016   2.30795   0.80275 
 C                    -8.44455   1.14014   1.46757 
 C                    -7.14928   0.65595   1.38744 
 H                    -4.8157   -0.19068   0.96026 
 H                    -2.7282   -0.35823   0.45271 
 H                    -1.08988   1.97159   0.91426 
 H                    -1.26064   1.71177  -0.81921 
 H                    -0.48274  -0.64443  -0.54398 
 H                    -0.31732  -0.3911    1.18775 
 H                     1.2292    1.15291  -0.97446 
 H                     1.89514  -0.12762   0.04204 
 H                     1.39788   1.40391   0.76591 
 H                    -5.81287   3.00234  -0.66165 
 C                    -8.18759   4.23654  -0.70314 
 Cl                   -10.42652   2.89879   0.94861 
 H                    -9.18638   0.6144    2.0561 
 H                    -6.88472  -0.25365   1.91562 
 F                    -7.14882   4.73063  -1.38789 
 F                    -9.17493   4.04163  -1.59512 
 F                    -8.60304   5.21567   0.12 
 O                    -4.68155  -1.8373    1.74557 
 O                    -2.84236  -2.23692   0.55434 
 C                    -3.77016  -2.60429   1.31958 
 C                    -3.82707  -4.05644   1.78027 
 C                    -2.70315  -4.94113   1.26448 
 H                    -4.80235  -4.44848   1.47576 
 H                    -3.84205  -4.04326   2.87429 
 H                    -2.70104  -4.98496   0.17357 
 H                    -2.81398  -5.96051   1.64049 
 H                    -1.72749  -4.57023   1.58504 
 
 Add virtual bond connecting atoms O31        and H14        Dist= 3.46D+00.
 Add virtual bond connecting atoms O32        and H15        Dist= 3.56D+00.

 GradGradGradGradGradGradGradGradGradGradGradGradGradGradGradGradGradGrad
 Berny optimization.
 Initialization pass.
                           ----------------------------
                           !    Initial Parameters    !
                           ! (Angstroms and Degrees)  !
 --------------------------                            --------------------------
 ! Name  Definition              Value          Derivative Info.                !
 --------------------------------------------------------------------------------
 ! R1    R(1,2)                  1.3935         estimate D2E/DX2                !
 ! R2    R(1,9)                  1.3985         estimate D2E/DX2                !
 ! R3    R(1,13)                 1.4            estimate D2E/DX2                !
 ! R4    R(2,3)                  1.3823         estimate D2E/DX2                !
 ! R5    R(2,14)                 1.0294         estimate D2E/DX2                !
 ! R6    R(3,4)                  1.2385         estimate D2E/DX2                !
 ! R7    R(3,5)                  1.3455         estimate D2E/DX2                !
 ! R8    R(5,6)                  1.4552         estimate D2E/DX2                !
 ! R9    R(5,15)                 1.0237         estimate D2E/DX2                !
 ! R10   R(6,7)                  1.5204         estimate D2E/DX2                !
 ! R11   R(6,16)                 1.0943         estimate D2E/DX2                !
 ! R12   R(6,17)                 1.0948         estimate D2E/DX2                !
 ! R13   R(7,8)                  1.5236         estimate D2E/DX2                !
 ! R14   R(7,18)                 1.0946         estimate D2E/DX2                !
 ! R15   R(7,19)                 1.0946         estimate D2E/DX2                !
 ! R16   R(8,20)                 1.0932         estimate D2E/DX2                !
 ! R17   R(8,21)                 1.0916         estimate D2E/DX2                !
 ! R18   R(8,22)                 1.0932         estimate D2E/DX2                !
 ! R19   R(9,10)                 1.3907         estimate D2E/DX2                !
 ! R20   R(9,23)                 1.0789         estimate D2E/DX2                !
 ! R21   R(10,11)                1.3937         estimate D2E/DX2                !
 ! R22   R(10,24)                1.5036         estimate D2E/DX2                !
 ! R23   R(11,12)                1.3875         estimate D2E/DX2                !
 ! R24   R(11,25)                1.7459         estimate D2E/DX2                !
 ! R25   R(12,13)                1.3851         estimate D2E/DX2                !
 ! R26   R(12,26)                1.0831         estimate D2E/DX2                !
 ! R27   R(13,27)                1.0846         estimate D2E/DX2                !
 ! R28   R(14,31)                1.8292         estimate D2E/DX2                !
 ! R29   R(15,32)                1.8849         estimate D2E/DX2                !
 ! R30   R(24,28)                1.3387         estimate D2E/DX2                !
 ! R31   R(24,29)                1.3448         estimate D2E/DX2                !
 ! R32   R(24,30)                1.3449         estimate D2E/DX2                !
 ! R33   R(31,33)                1.2651         estimate D2E/DX2                !
 ! R34   R(32,33)                1.2575         estimate D2E/DX2                !
 ! R35   R(33,34)                1.5245         estimate D2E/DX2                !
 ! R36   R(34,35)                1.5205         estimate D2E/DX2                !
 ! R37   R(34,36)                1.0943         estimate D2E/DX2                !
 ! R38   R(34,37)                1.0942         estimate D2E/DX2                !
 ! R39   R(35,38)                1.0918         estimate D2E/DX2                !
 ! R40   R(35,39)                1.0922         estimate D2E/DX2                !
 ! R41   R(35,40)                1.0919         estimate D2E/DX2                !
 ! A1    A(2,1,9)              123.4353         estimate D2E/DX2                !
 ! A2    A(2,1,13)             117.8342         estimate D2E/DX2                !
 ! A3    A(9,1,13)             118.6755         estimate D2E/DX2                !
 ! A4    A(1,2,3)              125.932          estimate D2E/DX2                !
 ! A5    A(1,2,14)             115.7111         estimate D2E/DX2                !
 ! A6    A(3,2,14)             116.3285         estimate D2E/DX2                !
 ! A7    A(2,3,4)              123.2818         estimate D2E/DX2                !
 ! A8    A(2,3,5)              113.8545         estimate D2E/DX2                !
 ! A9    A(4,3,5)              122.8609         estimate D2E/DX2                !
 ! A10   A(3,5,6)              121.1059         estimate D2E/DX2                !
 ! A11   A(3,5,15)             119.9452         estimate D2E/DX2                !
 ! A12   A(6,5,15)             118.665          estimate D2E/DX2                !
 ! A13   A(5,6,7)              110.096          estimate D2E/DX2                !
 ! A14   A(5,6,16)             109.6599         estimate D2E/DX2                !
 ! A15   A(5,6,17)             109.9137         estimate D2E/DX2                !
 ! A16   A(7,6,16)             110.0224         estimate D2E/DX2                !
 ! A17   A(7,6,17)             109.9785         estimate D2E/DX2                !
 ! A18   A(16,6,17)            107.1222         estimate D2E/DX2                !
 ! A19   A(6,7,8)              111.2207         estimate D2E/DX2                !
 ! A20   A(6,7,18)             109.2307         estimate D2E/DX2                !
 ! A21   A(6,7,19)             109.251          estimate D2E/DX2                !
 ! A22   A(8,7,18)             110.074          estimate D2E/DX2                !
 ! A23   A(8,7,19)             110.1224         estimate D2E/DX2                !
 ! A24   A(18,7,19)            106.8351         estimate D2E/DX2                !
 ! A25   A(7,8,20)             111.0461         estimate D2E/DX2                !
 ! A26   A(7,8,21)             111.1819         estimate D2E/DX2                !
 ! A27   A(7,8,22)             111.0506         estimate D2E/DX2                !
 ! A28   A(20,8,21)            107.8025         estimate D2E/DX2                !
 ! A29   A(20,8,22)            107.7903         estimate D2E/DX2                !
 ! A30   A(21,8,22)            107.8132         estimate D2E/DX2                !
 ! A31   A(1,9,10)             120.2333         estimate D2E/DX2                !
 ! A32   A(1,9,23)             120.0961         estimate D2E/DX2                !
 ! A33   A(10,9,23)            119.6676         estimate D2E/DX2                !
 ! A34   A(9,10,11)            120.3613         estimate D2E/DX2                !
 ! A35   A(9,10,24)            118.8187         estimate D2E/DX2                !
 ! A36   A(11,10,24)           120.8179         estimate D2E/DX2                !
 ! A37   A(10,11,12)           119.7434         estimate D2E/DX2                !
 ! A38   A(10,11,25)           121.684          estimate D2E/DX2                !
 ! A39   A(12,11,25)           118.5726         estimate D2E/DX2                !
 ! A40   A(11,12,13)           119.9616         estimate D2E/DX2                !
 ! A41   A(11,12,26)           119.8873         estimate D2E/DX2                !
 ! A42   A(13,12,26)           120.1484         estimate D2E/DX2                !
 ! A43   A(1,13,12)            121.0094         estimate D2E/DX2                !
 ! A44   A(1,13,27)            119.4469         estimate D2E/DX2                !
 ! A45   A(12,13,27)           119.5436         estimate D2E/DX2                !
 ! A46   A(10,24,28)           112.3321         estimate D2E/DX2                !
 ! A47   A(10,24,29)           112.3101         estimate D2E/DX2                !
 ! A48   A(10,24,30)           112.2249         estimate D2E/DX2                !
 ! A49   A(28,24,29)           106.4954         estimate D2E/DX2                !
 ! A50   A(28,24,30)           106.5024         estimate D2E/DX2                !
 ! A51   A(29,24,30)           106.5392         estimate D2E/DX2                !
 ! A52   A(14,31,33)           117.003          estimate D2E/DX2                !
 ! A53   A(15,32,33)           111.6337         estimate D2E/DX2                !
 ! A54   A(31,33,32)           124.0093         estimate D2E/DX2                !
 ! A55   A(31,33,34)           116.67           estimate D2E/DX2                !
 ! A56   A(32,33,34)           119.3207         estimate D2E/DX2                !
 ! A57   A(33,34,35)           115.0943         estimate D2E/DX2                !
 ! A58   A(33,34,36)           106.8831         estimate D2E/DX2                !
 ! A59   A(33,34,37)           106.9285         estimate D2E/DX2                !
 ! A60   A(35,34,36)           110.8497         estimate D2E/DX2                !
 ! A61   A(35,34,37)           110.8727         estimate D2E/DX2                !
 ! A62   A(36,34,37)           105.6839         estimate D2E/DX2                !
 ! A63   A(34,35,38)           111.33           estimate D2E/DX2                !
 ! A64   A(34,35,39)           110.5648         estimate D2E/DX2                !
 ! A65   A(34,35,40)           111.3005         estimate D2E/DX2                !
 ! A66   A(38,35,39)           107.8621         estimate D2E/DX2                !
 ! A67   A(38,35,40)           107.7737         estimate D2E/DX2                !
 ! A68   A(39,35,40)           107.8576         estimate D2E/DX2                !
 ! A69   L(2,14,31,5,-1)       180.9335         estimate D2E/DX2                !
 ! A70   L(5,15,32,1,-1)       182.253          estimate D2E/DX2                !
 ! A71   L(2,14,31,5,-2)       176.7546         estimate D2E/DX2                !
 ! A72   L(5,15,32,1,-2)       178.6735         estimate D2E/DX2                !
 ! D1    D(9,1,2,3)             28.8329         estimate D2E/DX2                !
 ! D2    D(9,1,2,14)          -168.0506         estimate D2E/DX2                !
 ! D3    D(13,1,2,3)          -153.9052         estimate D2E/DX2                !
 ! D4    D(13,1,2,14)            9.2114         estimate D2E/DX2                !
 ! D5    D(2,1,9,10)           178.6173         estimate D2E/DX2                !
 ! D6    D(2,1,9,23)            -0.752          estimate D2E/DX2                !
 ! D7    D(13,1,9,10)            1.3771         estimate D2E/DX2                !
 ! D8    D(13,1,9,23)         -177.9922         estimate D2E/DX2                !
 ! D9    D(2,1,13,12)         -178.1788         estimate D2E/DX2                !
 ! D10   D(2,1,13,27)            1.9211         estimate D2E/DX2                !
 ! D11   D(9,1,13,12)           -0.7831         estimate D2E/DX2                !
 ! D12   D(9,1,13,27)          179.3168         estimate D2E/DX2                !
 ! D13   D(1,2,3,4)             -1.4178         estimate D2E/DX2                !
 ! D14   D(1,2,3,5)            177.9965         estimate D2E/DX2                !
 ! D15   D(14,2,3,4)          -164.4426         estimate D2E/DX2                !
 ! D16   D(14,2,3,5)            14.9717         estimate D2E/DX2                !
 ! D17   D(1,2,31,33)          154.3931         estimate D2E/DX2                !
 ! D18   D(3,2,31,33)          -42.6921         estimate D2E/DX2                !
 ! D19   D(2,3,5,6)            179.9193         estimate D2E/DX2                !
 ! D20   D(2,3,5,15)             6.121          estimate D2E/DX2                !
 ! D21   D(4,3,5,6)             -0.6636         estimate D2E/DX2                !
 ! D22   D(4,3,5,15)          -174.4619         estimate D2E/DX2                !
 ! D23   D(3,5,6,7)           -179.1397         estimate D2E/DX2                !
 ! D24   D(3,5,6,16)            59.6712         estimate D2E/DX2                !
 ! D25   D(3,5,6,17)           -57.8413         estimate D2E/DX2                !
 ! D26   D(15,5,6,7)            -5.2639         estimate D2E/DX2                !
 ! D27   D(15,5,6,16)         -126.453          estimate D2E/DX2                !
 ! D28   D(15,5,6,17)          116.0346         estimate D2E/DX2                !
 ! D29   D(3,5,32,33)          -38.4631         estimate D2E/DX2                !
 ! D30   D(6,5,32,33)          148.4925         estimate D2E/DX2                !
 ! D31   D(5,6,7,8)           -179.6198         estimate D2E/DX2                !
 ! D32   D(5,6,7,18)            58.6843         estimate D2E/DX2                !
 ! D33   D(5,6,7,19)           -57.8495         estimate D2E/DX2                !
 ! D34   D(16,6,7,8)           -58.6477         estimate D2E/DX2                !
 ! D35   D(16,6,7,18)          179.6564         estimate D2E/DX2                !
 ! D36   D(16,6,7,19)           63.1226         estimate D2E/DX2                !
 ! D37   D(17,6,7,8)            59.1205         estimate D2E/DX2                !
 ! D38   D(17,6,7,18)          -62.5754         estimate D2E/DX2                !
 ! D39   D(17,6,7,19)         -179.1093         estimate D2E/DX2                !
 ! D40   D(6,7,8,20)           -59.8034         estimate D2E/DX2                !
 ! D41   D(6,7,8,21)          -179.8322         estimate D2E/DX2                !
 ! D42   D(6,7,8,22)            60.1225         estimate D2E/DX2                !
 ! D43   D(18,7,8,20)           61.4001         estimate D2E/DX2                !
 ! D44   D(18,7,8,21)          -58.6288         estimate D2E/DX2                !
 ! D45   D(18,7,8,22)         -178.6741         estimate D2E/DX2                !
 ! D46   D(19,7,8,20)          178.9349         estimate D2E/DX2                !
 ! D47   D(19,7,8,21)           58.906          estimate D2E/DX2                !
 ! D48   D(19,7,8,22)          -61.1393         estimate D2E/DX2                !
 ! D49   D(1,9,10,11)           -0.8654         estimate D2E/DX2                !
 ! D50   D(1,9,10,24)          179.6535         estimate D2E/DX2                !
 ! D51   D(23,9,10,11)         178.5066         estimate D2E/DX2                !
 ! D52   D(23,9,10,24)          -0.9745         estimate D2E/DX2                !
 ! D53   D(9,10,11,12)          -0.2713         estimate D2E/DX2                !
 ! D54   D(9,10,11,25)         179.6644         estimate D2E/DX2                !
 ! D55   D(24,10,11,12)        179.1993         estimate D2E/DX2                !
 ! D56   D(24,10,11,25)         -0.865          estimate D2E/DX2                !
 ! D57   D(9,10,24,28)           0.132          estimate D2E/DX2                !
 ! D58   D(9,10,24,29)         120.1557         estimate D2E/DX2                !
 ! D59   D(9,10,24,30)        -119.8401         estimate D2E/DX2                !
 ! D60   D(11,10,24,28)       -179.3466         estimate D2E/DX2                !
 ! D61   D(11,10,24,29)        -59.3229         estimate D2E/DX2                !
 ! D62   D(11,10,24,30)         60.6812         estimate D2E/DX2                !
 ! D63   D(10,11,12,13)          0.8693         estimate D2E/DX2                !
 ! D64   D(10,11,12,26)       -179.7253         estimate D2E/DX2                !
 ! D65   D(25,11,12,13)       -179.0684         estimate D2E/DX2                !
 ! D66   D(25,11,12,26)          0.337          estimate D2E/DX2                !
 ! D67   D(11,12,13,1)          -0.338          estimate D2E/DX2                !
 ! D68   D(11,12,13,27)        179.562          estimate D2E/DX2                !
 ! D69   D(26,12,13,1)        -179.7418         estimate D2E/DX2                !
 ! D70   D(26,12,13,27)          0.1582         estimate D2E/DX2                !
 ! D71   D(14,31,33,32)         11.375          estimate D2E/DX2                !
 ! D72   D(14,31,33,34)       -168.6545         estimate D2E/DX2                !
 ! D73   D(15,32,33,31)         13.6755         estimate D2E/DX2                !
 ! D74   D(15,32,33,34)       -166.2942         estimate D2E/DX2                !
 ! D75   D(31,33,34,35)       -179.1009         estimate D2E/DX2                !
 ! D76   D(31,33,34,36)         57.3363         estimate D2E/DX2                !
 ! D77   D(31,33,34,37)        -55.4738         estimate D2E/DX2                !
 ! D78   D(32,33,34,35)          0.871          estimate D2E/DX2                !
 ! D79   D(32,33,34,36)       -122.6918         estimate D2E/DX2                !
 ! D80   D(32,33,34,37)        124.4981         estimate D2E/DX2                !
 ! D81   D(33,34,35,38)        -60.2939         estimate D2E/DX2                !
 ! D82   D(33,34,35,39)        179.8255         estimate D2E/DX2                !
 ! D83   D(33,34,35,40)         59.9699         estimate D2E/DX2                !
 ! D84   D(36,34,35,38)         61.1405         estimate D2E/DX2                !
 ! D85   D(36,34,35,39)        -58.7401         estimate D2E/DX2                !
 ! D86   D(36,34,35,40)       -178.5958         estimate D2E/DX2                !
 ! D87   D(37,34,35,38)        178.1936         estimate D2E/DX2                !
 ! D88   D(37,34,35,39)         58.313          estimate D2E/DX2                !
 ! D89   D(37,34,35,40)        -61.5426         estimate D2E/DX2                !
 --------------------------------------------------------------------------------
 Trust Radius=3.00D-01 FncErr=1.00D-07 GrdErr=1.00D-06
 Number of steps in this run=    212 maximum allowed number of steps=    240.
 GradGradGradGradGradGradGradGradGradGradGradGradGradGradGradGradGradGrad

                          Input orientation:                          
 ---------------------------------------------------------------------
 Center     Atomic      Atomic             Coordinates (Angstroms)
 Number     Number       Type             X           Y           Z
 ---------------------------------------------------------------------
      1          6           0       -6.174755    1.323937    0.636369
      2          7           0       -4.903209    0.757732    0.569839
      3          6           0       -3.722028    1.440183    0.346488
      4          8           0       -3.669543    2.662121    0.151255
      5          7           0       -2.628022    0.657348    0.372445
      6          6           0       -1.300765    1.212806    0.154470
      7          6           0       -0.256184    0.109740    0.216366
      8          6           0        1.145967    0.665286    0.000408
      9          6           0       -6.537088    2.487329   -0.049940
     10          6           0       -7.834728    2.978937    0.041630
     11          6           0       -8.790164    2.307947    0.802751
     12          6           0       -8.444548    1.140143    1.467570
     13          6           0       -7.149278    0.655953    1.387436
     14          1           0       -4.815699   -0.190683    0.960256
     15          1           0       -2.728197   -0.358234    0.452713
     16          1           0       -1.089878    1.971589    0.914258
     17          1           0       -1.260638    1.711771   -0.819212
     18          1           0       -0.482736   -0.644428   -0.543982
     19          1           0       -0.317320   -0.391101    1.187746
     20          1           0        1.229204    1.152908   -0.974461
     21          1           0        1.895137   -0.127617    0.042036
     22          1           0        1.397884    1.403914    0.765915
     23          1           0       -5.812866    3.002341   -0.661650
     24          6           0       -8.187585    4.236539   -0.703145
     25         17           0      -10.426521    2.898794    0.948612
     26          1           0       -9.186377    0.614400    2.056095
     27          1           0       -6.884721   -0.253648    1.915624
     28          9           0       -7.148820    4.730630   -1.387886
     29          9           0       -9.174930    4.041628   -1.595118
     30          9           0       -8.603037    5.215669    0.120001
     31          8           0       -4.681545   -1.837297    1.745569
     32          8           0       -2.842362   -2.236924    0.554342
     33          6           0       -3.770156   -2.604290    1.319581
     34          6           0       -3.827071   -4.056438    1.780272
     35          6           0       -2.703145   -4.941128    1.264480
     36          1           0       -4.802348   -4.448484    1.475756
     37          1           0       -3.842050   -4.043265    2.874287
     38          1           0       -2.701035   -4.984962    0.173569
     39          1           0       -2.813981   -5.960508    1.640490
     40          1           0       -1.727488   -4.570230    1.585042
 ---------------------------------------------------------------------
                    Distance matrix (angstroms):
                    1          2          3          4          5
     1  C    0.000000
     2  N    1.393501   0.000000
     3  C    2.472532   1.382321   0.000000
     4  O    2.881347   2.307345   1.238550   0.000000
     5  N    3.618468   2.285939   1.345494   2.269980   0.000000
     6  C    4.899016   3.654754   2.439485   2.776983   1.455218
     7  C    6.056415   4.705282   3.714712   4.262618   2.439231
     8  C    7.377754   6.076622   4.941419   5.215290   3.792291
     9  C    1.398494   2.458697   3.029559   2.879903   4.336823
    10  C    2.418316   3.715718   4.401704   4.178654   5.710429
    11  C    2.799343   4.191162   5.162092   5.174036   6.393875
    12  C    2.424177   3.673315   4.863028   5.181677   5.938381
    13  C    1.399999   2.392415   3.666692   4.202548   4.633785
    14  H    2.060585   1.029357   2.057317   3.179096   2.418803
    15  H    3.839556   2.447402   2.057495   3.177980   1.023662
    16  H    5.133483   4.016661   2.744626   2.777351   2.094440
    17  H    5.139813   4.013474   2.736980   2.765465   2.097998
    18  H    6.137326   4.769405   3.953675   4.644606   2.671462
    19  H    6.128207   4.767809   3.956432   4.651223   2.665202
    20  H    7.579092   6.336206   5.132459   5.248112   4.115572
    21  H    8.220912   6.876039   5.839797   6.225771   4.602641
    22  H    7.574169   6.337173   5.137191   5.257348   4.113405
    23  H    2.152407   2.717041   2.797907   2.317412   4.087980
    24  C    3.785371   4.950729   5.372387   4.860195   6.698974
    25  Cl   4.544797   5.935873   6.887693   6.807976   8.134656
    26  H    3.404252   4.535971   5.784789   6.185228   6.771156
    27  H    2.151586   2.600081   3.915850   4.685305   4.618528
    28  F    4.080683   4.965821   5.057470   4.330480   6.334668
    29  F    4.622384   5.806773   6.345982   5.938194   7.628019
    30  F    4.616142   5.810704   6.174937   5.555263   7.519497
    31  O    3.667888   2.857561   3.690525   4.879626   3.510794
    32  O    4.877633   3.635285   3.786572   4.984712   2.907892
    33  C    4.656162   3.626171   4.160166   5.395387   3.583269
    34  C    5.980683   5.079316   5.681514   6.915023   5.063543
    35  C    7.190107   6.148155   6.527017   7.744843   5.669594
    36  H    5.992404   5.285408   6.092514   7.321083   5.658136
    37  H    6.265512   5.430111   6.039236   7.239258   5.461578
    38  H    7.216863   6.163208   6.508057   7.708202   5.646285
    39  H    8.084936   7.116594   7.567642   8.792016   6.740811
    40  H    7.444419   6.285143   6.452695   7.624581   5.441408
                    6          7          8          9         10
     6  C    0.000000
     7  C    1.520439   0.000000
     8  C    2.511974   1.523581   0.000000
     9  C    5.393076   6.721131   7.896310   0.000000
    10  C    6.769389   8.105378   9.274026   1.390659   0.000000
    11  C    7.596756   8.832031  10.102911   2.415702   1.393697
    12  C    7.263825   8.347248   9.713704   2.784987   2.405484
    13  C    6.002949   7.013166   8.410412   2.407232   2.770793
    14  H    3.869604   4.629558   6.098808   3.339974   4.472684
    15  H    2.143520   2.526996   4.032533   4.780956   6.114112
    16  H    1.094305   2.156057   2.746007   5.555876   6.875262
    17  H    1.094821   2.155888   2.749301   5.388338   6.750216
    18  H    2.146235   1.094634   2.159719   6.834263   8.217268
    19  H    2.146472   1.094604   2.160309   6.964390   8.317581
    20  H    2.771067   2.170863   1.093194   7.934148   9.301703
    21  H    3.467443   2.171384   1.091642   8.828862  10.213762
    22  H    2.773642   2.170905   1.093175   8.050042   9.393956
    23  H    4.922148   6.325723   7.370584   1.078852   2.140812
    24  C    7.570123   8.987942  10.018186   2.492099   1.503582
    25  Cl   9.314110  10.571223  11.824133   4.036595   2.747077
    26  H    8.133705   9.131683  10.534979   3.868073   3.387634
    27  H    6.035953   6.852520   8.306892   3.390759   3.855383
    28  F    6.996692   8.451904   9.341193   2.682670   2.362713
    29  F    8.547852   9.913892  10.975715   3.429524   2.367361
    30  F    8.327502   9.785180  10.759339   3.426495   2.366307
    31  O    4.823318   5.070822   6.577873   5.036793   6.003506
    32  O    3.799613   3.508472   4.963511   6.027829   7.238218
    33  C    4.693144   4.575046   6.049679   5.954501   7.023270
    34  C    6.065508   5.705618   7.084752   7.315378   8.281346
    35  C    6.408564   5.709416   6.917039   8.462197   9.516088
    36  H    6.786537   6.559807   7.981839   7.310442   8.149762
    37  H    6.440638   6.096755   7.437066   7.646109   8.560184
    38  H    6.354010   5.651116   6.837742   8.402403   9.476069
    39  H    7.480275   6.739315   7.891274   9.385362  10.376798
    40  H    5.972616   5.093145   6.178871   8.695663   9.832112
                   11         12         13         14         15
    11  C    0.000000
    12  C    1.387517   0.000000
    13  C    2.400718   1.385130   0.000000
    14  H    4.697269   3.898334   2.518902   0.000000
    15  H    6.631629   5.995977   4.631225   2.154841   0.000000
    16  H    7.708435   7.422171   6.218611   4.308048   2.885340
    17  H    7.725280   7.560734   6.376529   4.407300   2.838387
    18  H    8.918720   8.403659   7.061455   4.609033   2.473338
    19  H    8.900684   8.274953   6.914611   4.508584   2.520650
    20  H   10.241110   9.977232   8.719202   6.487621   4.470056
    21  H   10.985732  10.514202   9.177446   6.773656   4.647263
    22  H   10.228145   9.870935   8.602308   6.417875   4.497533
    23  H    3.389831   3.863562   3.389732   3.717570   4.695791
    24  C    2.519978   3.790212   4.274249   5.808341   7.228615
    25  Cl   1.745863   2.700072   3.995400   6.405180   8.373669
    26  H    2.143819   1.083087   2.144436   4.577319   6.724950
    27  H    3.380972   2.139267   1.084596   2.279813   4.407691
    28  F    3.655447   4.766985   4.930052   5.930983   6.987579
    29  F    2.983868   4.281604   4.945876   6.591304   8.069249
    30  F    2.992659   4.295460   4.950840   6.654217   8.105112
    31  O    5.912081   4.806519   3.526225   1.829221   2.770320
    32  O    7.489587   6.604775   5.254741   2.871572   1.884897
    33  C    7.042561   5.991045   4.695983   2.654764   2.623339
    34  C    8.129775   6.958687   5.779101   4.073557   4.080030
    35  C    9.477029   8.365812   7.149163   5.207894   4.654300
    36  H    7.874324   6.670715   5.618822   4.288914   4.698815
    37  H    8.313422   7.073157   5.935582   4.410656   4.547982
    38  H    9.521548   8.495839   7.285620   5.298658   4.635220
    39  H   10.236402   9.063797   7.914316   6.144954   5.727446
    40  H    9.889525   8.817089   7.533117   5.395168   4.474874
                   16         17         18         19         20
    16  H    0.000000
    17  H    1.761131   0.000000
    18  H    3.055917   2.496508   0.000000
    19  H    2.500789   3.056108   1.757958   0.000000
    20  H    3.100910   2.556510   2.519220   3.074222   0.000000
    21  H    3.752033   3.752866   2.502956   2.505402   1.765354
    22  H    2.556017   3.110489   3.073803   2.518322   1.766456
    23  H    5.084540   4.734256   6.459338   6.718388   7.287592
    24  C    7.623873   7.373637   9.122164   9.323711   9.912533
    25  Cl   9.382632   9.409975  10.661197  10.633745  11.941618
    26  H    8.288489   8.502291   9.170519   8.968012  10.860875
    27  H    6.287657   6.555342   6.869337   6.609043   8.727358
    28  F    7.044356   6.641355   8.604656   8.918262   9.119337
    29  F    8.714935   8.286512   9.930672  10.288376  10.815541
    30  F    8.222071   8.189643  10.035980  10.061265  10.694711
    31  O    5.300827   5.556671   4.928993   4.631318   7.160785
    32  O    4.573000   4.469977   3.051261   3.191254   5.514150
    33  C    5.318538   5.431436   4.256883   4.103372   6.661289
    34  C    6.676774   6.827600   5.313054   5.109220   7.764777
    35  C    7.107105   7.119246   5.163563   5.138170   7.590356
    36  H    7.437409   7.467216   6.099936   6.054814   8.588293
    37  H    6.898886   7.309313   5.875512   5.348498   8.217706
    38  H    7.179001   6.921458   4.927064   5.273917   7.378225
    39  H    8.149731   8.205295   6.202203   6.120178   8.589878
    40  H    6.606959   6.742546   4.636170   4.428491   6.931623
                   21         22         23         24         25
    21  H    0.000000
    22  H    1.765459   0.000000
    23  H    8.348959   7.522488   0.000000
    24  C   11.011922  10.102630   2.676613   0.000000
    25  Cl  12.720231  11.919924   4.887686   3.087182   0.000000
    26  H   11.287470  10.691795   4.946613   4.661639   2.825408
    27  H    8.978425   8.524722   4.288669   5.358842   4.839147
    28  F   10.365346   9.420831   2.301994   1.338667   4.422462
    29  F   11.941912  11.149727   3.640736   1.344789   3.056650
    30  F   11.780001  10.722178   3.646211   1.344941   3.062613
    31  O    7.005553   6.958780   5.522380   7.428324   7.488020
    32  O    5.211097   5.592866   6.144300   8.488723   9.167906
    33  C    6.313602   6.563603   6.287467   8.390592   8.644579
    34  C    7.155471   7.625255   7.728695   9.693034   9.623910
    35  C    6.768194   7.571430   8.745229  10.871072  11.009754
    36  H    8.098255   8.555542   7.816933   9.572725   9.267777
    37  H    7.501283   7.846903   8.125732  10.011835   9.759901
    38  H    6.688490   7.613786   8.612670  10.766008  11.065144
    39  H    7.665081   8.528739   9.727580  11.762143  11.701140
    40  H    5.936421   6.791856   8.892793  11.159204  11.483228
                   26         27         28         29         30
    26  H    0.000000
    27  H    2.463912   0.000000
    28  F    5.740732   5.985479   0.000000
    29  F    5.007732   6.001647   2.150068   0.000000
    30  F    5.025974   6.007520   2.150287   2.155706   0.000000
    31  O    5.138167   2.718611   7.683987   8.118649   8.231944
    32  O    7.115605   4.703949   8.418114   9.172885   9.429484
    33  C    6.343333   3.947315   8.517441   9.048496   9.270787
    34  C    7.114420   4.881470   9.913819  10.274801  10.561170
    35  C    8.574547   6.315222  10.970049  11.434649  11.801656
    36  H    6.722299   4.703872   9.897601  10.031537  10.472782
    37  H    7.136184   4.953592  10.299616  10.666803  10.769445
    38  H    8.772481   6.551588  10.798780  11.248062  11.785133
    39  H    9.165674   7.015331  11.927377  12.287130  12.678012
    40  H    9.096005   6.733440  11.168489  11.821249  12.049205
                   31         32         33         34         35
    31  O    0.000000
    32  O    2.227402   0.000000
    33  C    1.265059   1.257517   0.000000
    34  C    2.378217   2.404825   1.524536   0.000000
    35  C    3.712045   2.799356   2.569506   1.520503   0.000000
    36  H    2.627868   3.095407   2.119165   1.094347   2.166561
    37  H    2.616305   3.105541   2.119653   1.094197   2.166735
    38  H    4.037499   2.777890   2.850256   2.170624   1.091793
    39  H    4.527660   3.878866   3.504490   2.161336   1.092156
    40  H    4.027549   2.783811   2.847435   2.170333   1.091894
                   36         37         38         39         40
    36  H    0.000000
    37  H    1.744209   0.000000
    38  H    2.529627   3.079380   0.000000
    39  H    2.503389   2.501000   1.765306   0.000000
    40  H    3.079209   2.532038   1.764101   1.765337   0.000000
 Stoichiometry    C14H17ClF3N2O3(1-)
 Framework group  C1[X(C14H17ClF3N2O3)]
 Deg. of freedom   114
 Full point group                 C1      NOp   1
 Largest Abelian subgroup         C1      NOp   1
 Largest concise Abelian subgroup C1      NOp   1
                         Standard orientation:                         
 ---------------------------------------------------------------------
 Center     Atomic      Atomic             Coordinates (Angstroms)
 Number     Number       Type             X           Y           Z
 ---------------------------------------------------------------------
      1          6           0        0.720021   -0.327695   -0.157319
      2          7           0       -0.626812    0.021406   -0.079758
      3          6           0       -1.145107    1.293740   -0.232558
      4          8           0       -0.443190    2.293586   -0.436585
      5          7           0       -2.487089    1.347934   -0.151925
      6          6           0       -3.198097    2.610236   -0.288750
      7          6           0       -4.694168    2.386390   -0.135776
      8          6           0       -5.465154    3.692105   -0.284051
      9          6           0        1.762346    0.544580    0.172045
     10          6           0        3.083452    0.116729    0.097495
     11          6           0        3.380281   -1.189191   -0.288326
     12          6           0        2.350604   -2.067576   -0.593953
     13          6           0        1.034785   -1.639334   -0.532184
     14          1           0       -1.295364   -0.756890   -0.162634
     15          1           0       -3.017974    0.510350    0.102040
     16          1           0       -2.983154    3.049630   -1.267644
     17          1           0       -2.846823    3.319933    0.467271
     18          1           0       -4.893799    1.941394    0.844199
     19          1           0       -5.029564    1.663705   -0.886372
     20          1           0       -5.154968    4.419112    0.471144
     21          1           0       -6.538947    3.531137   -0.171179
     22          1           0       -5.295492    4.138812   -1.267261
     23          1           0        1.544252    1.550511    0.495247
     24          6           0        4.179422    1.083384    0.451314
     25         17           0        5.026231   -1.760149   -0.401875
     26          1           0        2.578454   -3.084272   -0.889739
     27          1           0        0.235559   -2.329601   -0.779402
     28          9           0        3.704031    2.282349    0.809805
     29          9           0        4.931977    0.648611    1.477515
     30          9           0        5.020253    1.297486   -0.576319
     31          8           0       -2.451448   -2.153512   -0.405460
     32          8           0       -4.052723   -0.982043    0.606912
     33          6           0       -3.597837   -2.048043    0.118985
     34          6           0       -4.456715   -3.307344    0.145444
     35          6           0       -5.834927   -3.135047    0.764131
     36          1           0       -3.883311   -4.071981    0.678485
     37          1           0       -4.534320   -3.661815   -0.886832
     38          1           0       -5.765543   -2.811867    1.804685
     39          1           0       -6.385883   -4.077793    0.742180
     40          1           0       -6.422637   -2.391072    0.222531
 ---------------------------------------------------------------------
 Rotational constants (GHZ):      0.3445583      0.0987416      0.0794477
 Standard basis: 6-311+G(d) (5D, 7F)
 There are   588 symmetry adapted cartesian basis functions of A   symmetry.
 There are   565 symmetry adapted basis functions of A   symmetry.
   565 basis functions,   930 primitive gaussians,   588 cartesian basis functions
    92 alpha electrons       92 beta electrons
       nuclear repulsion energy      2093.6970647616 Hartrees.
 NAtoms=   40 NActive=   40 NUniq=   40 SFac= 1.00D+00 NAtFMM=   60 NAOKFM=F Big=F
 Integral buffers will be    131072 words long.
 Raffenetti 2 integral format.
 Two-electron integral symmetry is turned on.
 Nuclear repulsion after empirical dispersion term =     2093.6946978030 Hartrees.
 ------------------------------------------------------------------------------
 Polarizable Continuum Model (PCM)
 =================================
 Model                : PCM (using non-symmetric T matrix).
 Atomic radii         : SMD-Coulomb.
 Polarization charges : Total charges.
 Charge compensation  : None.
 Solution method      : On-the-fly selection.
 Cavity type          : VdW (van der Waals Surface) (Alpha=1.000).
 Cavity algorithm     : GePol (No added spheres)
                        Default sphere list used, NSphG=   40.
                        Lebedev-Laikov grids with approx.  5.0 points / Ang**2.
                        Smoothing algorithm: York/Karplus (Gamma=1.0000).
                        Polarization charges: spherical gaussians, with
                                              point-specific exponents (IZeta= 3).
                        Self-potential: point-specific (ISelfS= 7).
                        Self-field    : sphere-specific E.n sum rule (ISelfD= 2).
 1st derivatives      : Analytical E(r).r(x)/FMM algorithm (CHGder, D1EAlg=3).
                        Cavity 1st derivative terms included.
 Solvent              : Water, Eps=  78.355300 Eps(inf)=   1.777849
 ------------------------------------------------------------------------------
 ------------------------------------------------------------------------------
 Atomic radii for non-electrostatic terms: SMD-CDS.
 ------------------------------------------------------------------------------
 Nuclear repulsion after PCM non-electrostatic terms =     2093.7093115884 Hartrees.
 One-electron integrals computed using PRISM.
 NBasis=   565 RedAO= T EigKep=  1.10D-06  NBF=   565
 NBsUse=   564 1.00D-06 EigRej=  3.60D-07 NBFU=   564
 ExpMin= 4.38D-02 ExpMax= 1.06D+05 ExpMxC= 3.62D+03 IAcc=3 IRadAn=         5 AccDes= 0.00D+00
 Harris functional with IExCor= 1009 and IRadAn=       5 diagonalized for initial guess.
 HarFok:  IExCor= 1009 AccDes= 0.00D+00 IRadAn=         5 IDoV= 1 UseB2=F ITyADJ=14
 ICtDFT=  3500011 ScaDFX=  1.000000  1.000000  1.000000  1.000000
 FoFCou: FMM=F IPFlag=           0 FMFlag=      100000 FMFlg1=           0
         NFxFlg=           0 DoJE=T BraDBF=F KetDBF=T FulRan=T
         wScrn=  0.000000 ICntrl=     500 IOpCl=  0 I1Cent=   200000004 NGrid=           0
         NMat0=    1 NMatS0=      1 NMatT0=    0 NMatD0=    1 NMtDS0=    0 NMtDT0=    0
 Petite list used in FoFCou.
 Requested convergence on RMS density matrix=1.00D-08 within 128 cycles.
 Requested convergence on MAX density matrix=1.00D-06.
 Requested convergence on             energy=1.00D-06.
 No special actions if energy rises.
 Inv3:  Mode=1 IEnd=    29334387.
 Iteration    1 A*A^-1 deviation from unit magnitude is 5.77D-15 for   3113.
 Iteration    1 A*A^-1 deviation from orthogonality  is 6.31D-15 for   2282    372.
 Iteration    1 A^-1*A deviation from unit magnitude is 7.22D-15 for    390.
 Iteration    1 A^-1*A deviation from orthogonality  is 1.65D-11 for   2124   2077.
 Error on total polarization charges =  0.06002
 SCF Done:  E(RM062X) =  -1638.74599221     A.U. after   15 cycles
            NFock= 15  Conv=0.53D-08     -V/T= 2.0030
 SMD-CDS (non-electrostatic) energy       (kcal/mol) =       9.17
 (included in total energy above)

 **********************************************************************

            Population analysis using the SCF density.

 **********************************************************************

 Orbital symmetries:
       Occupied  (A) (A) (A) (A) (A) (A) (A) (A) (A) (A) (A) (A)
                 (A) (A) (A) (A) (A) (A) (A) (A) (A) (A) (A) (A)
                 (A) (A) (A) (A) (A) (A) (A) (A) (A) (A) (A) (A)
                 (A) (A) (A) (A) (A) (A) (A) (A) (A) (A) (A) (A)
                 (A) (A) (A) (A) (A) (A) (A) (A) (A) (A) (A) (A)
                 (A) (A) (A) (A) (A) (A) (A) (A) (A) (A) (A) (A)
                 (A) (A) (A) (A) (A) (A) (A) (A) (A) (A) (A) (A)
                 (A) (A) (A) (A) (A) (A) (A) (A)
       Virtual   (A) (A) (A) (A) (A) (A) (A) (A) (A) (A) (A) (A)
                 (A) (A) (A) (A) (A) (A) (A) (A) (A) (A) (A) (A)
                 (A) (A) (A) (A) (A) (A) (A) (A) (A) (A) (A) (A)
                 (A) (A) (A) (A) (A) (A) (A) (A) (A) (A) (A) (A)
                 (A) (A) (A) (A) (A) (A) (A) (A) (A) (A) (A) (A)
                 (A) (A) (A) (A) (A) (A) (A) (A) (A) (A) (A) (A)
                 (A) (A) (A) (A) (A) (A) (A) (A) (A) (A) (A) (A)
                 (A) (A) (A) (A) (A) (A) (A) (A) (A) (A) (A) (A)
                 (A) (A) (A) (A) (A) (A) (A) (A) (A) (A) (A) (A)
                 (A) (A) (A) (A) (A) (A) (A) (A) (A) (A) (A) (A)
                 (A) (A) (A) (A) (A) (A) (A) (A) (A) (A) (A) (A)
                 (A) (A) (A) (A) (A) (A) (A) (A) (A) (A) (A) (A)
                 (A) (A) (A) (A) (A) (A) (A) (A) (A) (A) (A) (A)
                 (A) (A) (A) (A) (A) (A) (A) (A) (A) (A) (A) (A)
                 (A) (A) (A) (A) (A) (A) (A) (A) (A) (A) (A) (A)
                 (A) (A) (A) (A) (A) (A) (A) (A) (A) (A) (A) (A)
                 (A) (A) (A) (A) (A) (A) (A) (A) (A) (A) (A) (A)
                 (A) (A) (A) (A) (A) (A) (A) (A) (A) (A) (A) (A)
                 (A) (A) (A) (A) (A) (A) (A) (A) (A) (A) (A) (A)
                 (A) (A) (A) (A) (A) (A) (A) (A) (A) (A) (A) (A)
                 (A) (A) (A) (A) (A) (A) (A) (A) (A) (A) (A) (A)
                 (A) (A) (A) (A) (A) (A) (A) (A) (A) (A) (A) (A)
                 (A) (A) (A) (A) (A) (A) (A) (A) (A) (A) (A) (A)
                 (A) (A) (A) (A) (A) (A) (A) (A) (A) (A) (A) (A)
                 (A) (A) (A) (A) (A) (A) (A) (A) (A) (A) (A) (A)
                 (A) (A) (A) (A) (A) (A) (A) (A) (A) (A) (A) (A)
                 (A) (A) (A) (A) (A) (A) (A) (A) (A) (A) (A) (A)
                 (A) (A) (A) (A) (A) (A) (A) (A) (A) (A) (A) (A)
                 (A) (A) (A) (A) (A) (A) (A) (A) (A) (A) (A) (A)
                 (A) (A) (A) (A) (A) (A) (A) (A) (A) (A) (A) (A)
                 (A) (A) (A) (A) (A) (A) (A) (A) (A) (A) (A) (A)
                 (A) (A) (A) (A) (A) (A) (A) (A) (A) (A) (A) (A)
                 (A) (A) (A) (A) (A) (A) (A) (A) (A) (A) (A) (A)
                 (A) (A) (A) (A) (A) (A) (A) (A) (A) (A) (A) (A)
                 (A) (A) (A) (A) (A) (A) (A) (A) (A) (A) (A) (A)
                 (A) (A) (A) (A) (A) (A) (A) (A) (A) (A) (A) (A)
                 (A) (A) (A) (A) (A) (A) (A) (A) (A) (A) (A) (A)
                 (A) (A) (A) (A) (A) (A) (A) (A) (A) (A) (A) (A)
                 (A) (A) (A) (A) (A) (A) (A) (A) (A) (A) (A) (A)
                 (A) (A) (A) (A)
 The electronic state is 1-A.
 Alpha  occ. eigenvalues -- -102.68637 -25.28666 -25.28303 -25.28291 -19.59271
 Alpha  occ. eigenvalues --  -19.57911 -19.57605 -14.76991 -14.75445 -10.81250
 Alpha  occ. eigenvalues --  -10.67442 -10.63859 -10.61948 -10.60506 -10.58743
 Alpha  occ. eigenvalues --  -10.56352 -10.56256 -10.56085 -10.55788 -10.52682
 Alpha  occ. eigenvalues --  -10.52462 -10.51546 -10.51350  -9.82915  -7.55428
 Alpha  occ. eigenvalues --   -7.54751  -7.54742  -1.47891  -1.38497  -1.38151
 Alpha  occ. eigenvalues --   -1.17720  -1.16681  -1.06822  -1.05614  -1.02622
 Alpha  occ. eigenvalues --   -1.00822  -0.94522  -0.90065  -0.87736  -0.85739
 Alpha  occ. eigenvalues --   -0.84140  -0.81544  -0.77262  -0.74249  -0.72206
 Alpha  occ. eigenvalues --   -0.72167  -0.70225  -0.69842  -0.68049  -0.67806
 Alpha  occ. eigenvalues --   -0.65470  -0.62714  -0.59553  -0.58825  -0.58474
 Alpha  occ. eigenvalues --   -0.58366  -0.56892  -0.55754  -0.55296  -0.54201
 Alpha  occ. eigenvalues --   -0.53857  -0.53569  -0.53031  -0.52842  -0.52137
 Alpha  occ. eigenvalues --   -0.51807  -0.51434  -0.50668  -0.50311  -0.48976
 Alpha  occ. eigenvalues --   -0.48231  -0.46521  -0.46248  -0.45538  -0.45436
 Alpha  occ. eigenvalues --   -0.44319  -0.43831  -0.42296  -0.41727  -0.41485
 Alpha  occ. eigenvalues --   -0.39686  -0.39451  -0.38941  -0.38782  -0.36892
 Alpha  occ. eigenvalues --   -0.35975  -0.33969  -0.33322  -0.32907  -0.32469
 Alpha  occ. eigenvalues --   -0.32074  -0.27202
 Alpha virt. eigenvalues --   -0.00886   0.00389   0.01345   0.02054   0.02681
 Alpha virt. eigenvalues --    0.02938   0.03310   0.03749   0.04180   0.04502
 Alpha virt. eigenvalues --    0.04876   0.05317   0.05392   0.05826   0.06254
 Alpha virt. eigenvalues --    0.06656   0.07041   0.07146   0.07600   0.07718
 Alpha virt. eigenvalues --    0.08091   0.08246   0.08638   0.08666   0.09322
 Alpha virt. eigenvalues --    0.09576   0.10073   0.10165   0.10276   0.10799
 Alpha virt. eigenvalues --    0.11067   0.11928   0.12186   0.12620   0.12814
 Alpha virt. eigenvalues --    0.13154   0.13324   0.13931   0.14459   0.14867
 Alpha virt. eigenvalues --    0.15217   0.16038   0.16206   0.16562   0.17145
 Alpha virt. eigenvalues --    0.17602   0.17883   0.18084   0.18554   0.18943
 Alpha virt. eigenvalues --    0.19388   0.19685   0.20241   0.20523   0.20715
 Alpha virt. eigenvalues --    0.21034   0.21237   0.21692   0.21802   0.22187
 Alpha virt. eigenvalues --    0.22314   0.22701   0.22933   0.23563   0.23703
 Alpha virt. eigenvalues --    0.23943   0.24156   0.24729   0.24769   0.25183
 Alpha virt. eigenvalues --    0.25226   0.25608   0.25805   0.26010   0.26543
 Alpha virt. eigenvalues --    0.27062   0.27417   0.27640   0.27761   0.27859
 Alpha virt. eigenvalues --    0.28280   0.28580   0.28809   0.29141   0.29419
 Alpha virt. eigenvalues --    0.29749   0.30220   0.30490   0.31044   0.31195
 Alpha virt. eigenvalues --    0.31315   0.31570   0.31885   0.32225   0.32698
 Alpha virt. eigenvalues --    0.33090   0.33322   0.33361   0.33638   0.34207
 Alpha virt. eigenvalues --    0.34548   0.34743   0.35008   0.35756   0.36237
 Alpha virt. eigenvalues --    0.36530   0.37167   0.37535   0.37688   0.37979
 Alpha virt. eigenvalues --    0.38973   0.39288   0.39312   0.39702   0.40907
 Alpha virt. eigenvalues --    0.41458   0.41881   0.42847   0.43396   0.43953
 Alpha virt. eigenvalues --    0.44289   0.44561   0.45043   0.45149   0.46248
 Alpha virt. eigenvalues --    0.46657   0.46914   0.47331   0.48406   0.48745
 Alpha virt. eigenvalues --    0.49863   0.50218   0.50958   0.51169   0.51594
 Alpha virt. eigenvalues --    0.52399   0.52673   0.53891   0.54246   0.55289
 Alpha virt. eigenvalues --    0.55945   0.56551   0.56843   0.57446   0.58887
 Alpha virt. eigenvalues --    0.59920   0.60613   0.61517   0.62077   0.62672
 Alpha virt. eigenvalues --    0.62939   0.63670   0.64454   0.64980   0.65306
 Alpha virt. eigenvalues --    0.66676   0.67025   0.67777   0.68199   0.69444
 Alpha virt. eigenvalues --    0.69748   0.70235   0.70732   0.70979   0.71601
 Alpha virt. eigenvalues --    0.72011   0.72976   0.73153   0.73201   0.74001
 Alpha virt. eigenvalues --    0.74424   0.74750   0.75474   0.75965   0.76581
 Alpha virt. eigenvalues --    0.77036   0.77120   0.78025   0.78099   0.78990
 Alpha virt. eigenvalues --    0.79418   0.80038   0.80303   0.80873   0.81748
 Alpha virt. eigenvalues --    0.82023   0.83532   0.85115   0.85742   0.87733
 Alpha virt. eigenvalues --    0.89004   0.89783   0.90578   0.91408   0.93167
 Alpha virt. eigenvalues --    0.93941   0.94231   0.94973   0.96033   0.96060
 Alpha virt. eigenvalues --    0.96537   0.96941   0.97919   0.98264   0.98947
 Alpha virt. eigenvalues --    1.01353   1.02501   1.04215   1.04502   1.05164
 Alpha virt. eigenvalues --    1.05419   1.05525   1.07330   1.09900   1.10608
 Alpha virt. eigenvalues --    1.10753   1.12157   1.12617   1.13343   1.15643
 Alpha virt. eigenvalues --    1.16542   1.17884   1.19646   1.20975   1.21411
 Alpha virt. eigenvalues --    1.23484   1.23857   1.24537   1.25251   1.26358
 Alpha virt. eigenvalues --    1.26915   1.27854   1.28758   1.29649   1.31389
 Alpha virt. eigenvalues --    1.32114   1.33216   1.34531   1.35582   1.38081
 Alpha virt. eigenvalues --    1.39397   1.40507   1.40657   1.41876   1.44331
 Alpha virt. eigenvalues --    1.46464   1.46564   1.47452   1.47726   1.49261
 Alpha virt. eigenvalues --    1.50123   1.50393   1.51197   1.53251   1.53533
 Alpha virt. eigenvalues --    1.53968   1.54356   1.55745   1.57044   1.57352
 Alpha virt. eigenvalues --    1.58072   1.58918   1.59191   1.60148   1.61967
 Alpha virt. eigenvalues --    1.62445   1.62963   1.63898   1.64816   1.65259
 Alpha virt. eigenvalues --    1.67112   1.67793   1.69568   1.70354   1.73356
 Alpha virt. eigenvalues --    1.74844   1.75180   1.76649   1.77290   1.79164
 Alpha virt. eigenvalues --    1.79340   1.80180   1.80567   1.81090   1.81989
 Alpha virt. eigenvalues --    1.82742   1.85732   1.85920   1.86315   1.87985
 Alpha virt. eigenvalues --    1.88200   1.88849   1.91493   1.92753   1.95230
 Alpha virt. eigenvalues --    1.97012   1.97414   1.97832   1.99724   2.00482
 Alpha virt. eigenvalues --    2.01145   2.03982   2.06519   2.08438   2.09374
 Alpha virt. eigenvalues --    2.11341   2.12906   2.16395   2.17088   2.17371
 Alpha virt. eigenvalues --    2.20059   2.23304   2.24800   2.27428   2.29260
 Alpha virt. eigenvalues --    2.31526   2.32339   2.33235   2.36183   2.36629
 Alpha virt. eigenvalues --    2.39061   2.43373   2.44678   2.48274   2.50667
 Alpha virt. eigenvalues --    2.54650   2.54950   2.56274   2.56723   2.57400
 Alpha virt. eigenvalues --    2.58971   2.59780   2.59969   2.60975   2.61099
 Alpha virt. eigenvalues --    2.62525   2.62727   2.66275   2.66933   2.68049
 Alpha virt. eigenvalues --    2.70493   2.72518   2.74235   2.76948   2.80983
 Alpha virt. eigenvalues --    2.82704   2.84601   2.86339   2.88713   2.89718
 Alpha virt. eigenvalues --    2.92313   2.94583   2.94829   2.97120   2.98458
 Alpha virt. eigenvalues --    2.98804   3.00756   3.01197   3.01648   3.03006
 Alpha virt. eigenvalues --    3.04021   3.04577   3.08078   3.09552   3.10808
 Alpha virt. eigenvalues --    3.11044   3.13758   3.15935   3.19029   3.21658
 Alpha virt. eigenvalues --    3.22875   3.24820   3.26126   3.26858   3.28750
 Alpha virt. eigenvalues --    3.30488   3.31325   3.31931   3.33890   3.36498
 Alpha virt. eigenvalues --    3.39030   3.39577   3.39928   3.40677   3.42085
 Alpha virt. eigenvalues --    3.42460   3.45414   3.45423   3.53376   3.58804
 Alpha virt. eigenvalues --    3.62147   3.68760   3.69324   3.69864   3.75445
 Alpha virt. eigenvalues --    3.76598   3.79806   3.81736   3.83554   3.83790
 Alpha virt. eigenvalues --    3.83937   3.86143   3.86894   3.88025   3.88129
 Alpha virt. eigenvalues --    3.96696   4.00126   4.01418   4.02298   4.03288
 Alpha virt. eigenvalues --    4.06525   4.07945   4.08746   4.11733   4.18823
 Alpha virt. eigenvalues --    4.21224   4.22356   4.26939   4.30951   4.63224
 Alpha virt. eigenvalues --    4.66596   4.76556   4.82035   4.92493   4.97909
 Alpha virt. eigenvalues --    5.01893   5.20714   5.21180   5.21615   5.22596
 Alpha virt. eigenvalues --    5.38594   5.40280   5.42307   5.73838   5.89770
 Alpha virt. eigenvalues --    6.01122   6.45357   6.48568   6.49741   6.52974
 Alpha virt. eigenvalues --    6.55357   6.57302   6.63154   6.86797   6.90874
 Alpha virt. eigenvalues --   10.00037  23.45017  23.61173  23.63372  23.65636
 Alpha virt. eigenvalues --   23.75970  23.81758  23.83182  23.93680  23.94244
 Alpha virt. eigenvalues --   23.94923  23.96724  24.08537  24.12996  24.20158
 Alpha virt. eigenvalues --   25.96029  26.30983  26.80557  35.64523  35.73365
 Alpha virt. eigenvalues --   50.06148  50.14732  50.15079  66.88397  66.91557
 Alpha virt. eigenvalues --   66.96760 216.11021
          Condensed to atoms (all electrons):
               1          2          3          4          5          6
     1  C   26.082617  -0.020454  -0.433607  -0.037411  -0.163223  -0.312202
     2  N   -0.020454   7.854980   0.398208  -0.126915  -0.453722  -0.387403
     3  C   -0.433607   0.398208   7.216653   0.645988   0.303153  -1.050911
     4  O   -0.037411  -0.126915   0.645988   8.314652  -0.166067  -0.094218
     5  N   -0.163223  -0.453722   0.303153  -0.166067   7.777671   0.365898
     6  C   -0.312202  -0.387403  -1.050911  -0.094218   0.365898   8.165735
     7  C   -0.016355   0.028928   0.187086   0.020173  -0.052179  -0.879769
     8  C   -0.013197  -0.017372  -0.216849  -0.000898  -0.048500   0.328138
     9  C   -0.660365   0.082493   0.060121   0.050656   0.013847  -0.097972
    10  C   -7.154203  -0.040204  -0.605582  -0.010539   0.072661  -0.011200
    11  C   -4.452108   0.017497  -0.487208  -0.000874  -0.044814  -0.050098
    12  C    0.051769   0.107737   0.580436   0.018488  -0.015233   0.019174
    13  C   -2.296706  -0.319861  -0.751048  -0.042295  -0.156057  -0.094784
    14  H    0.077328   0.152903  -0.029979  -0.004913   0.033200   0.013549
    15  H   -0.023075   0.045645  -0.005082  -0.007315   0.156600  -0.046816
    16  H   -0.005472   0.011976   0.063663   0.001111  -0.051860   0.337904
    17  H    0.012339  -0.001132   0.017302  -0.000184  -0.063750   0.426538
    18  H   -0.000530   0.000123   0.011114  -0.000136   0.008830  -0.075175
    19  H    0.000337  -0.000862   0.001136  -0.000299   0.011045  -0.073471
    20  H   -0.000002   0.000007  -0.000961  -0.000040   0.000972  -0.046124
    21  H    0.000097   0.000014   0.005320   0.000013  -0.001474   0.082583
    22  H   -0.000054  -0.000073  -0.002962  -0.000023  -0.000203  -0.032719
    23  H   -0.057310  -0.010388   0.036992  -0.006785   0.000531   0.003703
    24  C   -3.769238   0.025855  -0.036112  -0.010264   0.015865   0.006250
    25  Cl   0.321733  -0.001743  -0.025076   0.000159  -0.000027  -0.000540
    26  H   -0.047945  -0.001899  -0.000910  -0.000006  -0.000036  -0.000006
    27  H    0.196622  -0.029509   0.008142  -0.000006  -0.000217  -0.000228
    28  F    0.238247   0.000308   0.005397  -0.000930  -0.000113   0.000002
    29  F   -0.023523   0.000661  -0.000278  -0.000025   0.000021   0.000006
    30  F    0.033779   0.000479   0.003075   0.000095  -0.000008   0.000015
    31  O   -0.180665   0.008151  -0.009480  -0.000953  -0.023433  -0.008647
    32  O   -0.008356  -0.012621  -0.027036  -0.000689  -0.028958   0.041798
    33  C    0.101907   0.003514  -0.008672  -0.000699   0.015810   0.005940
    34  C   -0.152374  -0.007717  -0.019407  -0.000712  -0.061721   0.013845
    35  C    0.006654  -0.001144  -0.000492   0.000016   0.006364  -0.007507
    36  H    0.000074   0.000202  -0.000761  -0.000001   0.000391   0.000495
    37  H    0.001010   0.000107   0.000754   0.000001  -0.000043  -0.001017
    38  H   -0.000188  -0.000024   0.000201   0.000000   0.000086  -0.000519
    39  H    0.000013   0.000015   0.000054  -0.000000  -0.000043   0.000013
    40  H    0.000083   0.000027  -0.000500  -0.000000   0.000040   0.001258
               7          8          9         10         11         12
     1  C   -0.016355  -0.013197  -0.660365  -7.154203  -4.452108   0.051769
     2  N    0.028928  -0.017372   0.082493  -0.040204   0.017497   0.107737
     3  C    0.187086  -0.216849   0.060121  -0.605582  -0.487208   0.580436
     4  O    0.020173  -0.000898   0.050656  -0.010539  -0.000874   0.018488
     5  N   -0.052179  -0.048500   0.013847   0.072661  -0.044814  -0.015233
     6  C   -0.879769   0.328138  -0.097972  -0.011200  -0.050098   0.019174
     7  C    6.512287  -0.460517  -0.011281  -0.003666   0.000019  -0.000393
     8  C   -0.460517   6.664115   0.004113   0.001786  -0.000450  -0.000303
     9  C   -0.011281   0.004113  20.148239   3.357137  -9.625025   2.022622
    10  C   -0.003666   0.001786   3.357137  43.414873 -14.493779 -14.219835
    11  C    0.000019  -0.000450  -9.625025 -14.493779  43.961351  -6.719857
    12  C   -0.000393  -0.000303   2.022622 -14.219835  -6.719857  30.460577
    13  C    0.012979  -0.006394  -8.730722  -1.086740   0.767362  -6.022151
    14  H   -0.002519   0.000525   0.022273   0.000587  -0.003945   0.000136
    15  H   -0.023347   0.007103  -0.016937  -0.006198   0.001311   0.002687
    16  H   -0.019323  -0.020235   0.016607   0.002191   0.000192  -0.000656
    17  H   -0.035661  -0.014809  -0.015622  -0.001473  -0.000052   0.000476
    18  H    0.456783  -0.073054   0.001750   0.000114   0.000009  -0.000046
    19  H    0.463963  -0.071122  -0.001831  -0.000118  -0.000001   0.000094
    20  H    0.045100   0.345410  -0.000107  -0.000014  -0.000001   0.000001
    21  H   -0.148720   0.412495   0.000002   0.000000   0.000000  -0.000000
    22  H    0.024069   0.355468   0.000024   0.000003   0.000000  -0.000000
    23  H   -0.000110   0.000035   0.324190   0.020598  -0.028452  -0.052799
    24  C   -0.000587   0.000188  -0.965224  -2.868498  -1.741070  -0.031708
    25  Cl  -0.000012  -0.000002   0.145404   0.917829  -1.857198   0.049436
    26  H    0.000000  -0.000000  -0.039219   0.135948   0.143325   0.059359
    27  H    0.000100   0.000005   0.052770  -0.018802  -0.088830  -0.017728
    28  F    0.000007  -0.000000   0.264854  -0.401429  -0.179586  -0.011877
    29  F   -0.000000   0.000000  -0.033940   0.168759  -0.099650   0.081723
    30  F   -0.000001  -0.000000   0.089284   0.138261  -0.179224   0.087602
    31  O   -0.000675   0.000476  -0.011669   0.001545  -0.000641   0.033994
    32  O   -0.001032   0.007948  -0.015947  -0.002200  -0.000152   0.001954
    33  C   -0.000359  -0.016379  -0.036733  -0.007297   0.005838  -0.071710
    34  C   -0.014867   0.005094  -0.037301  -0.010876   0.016039   0.050773
    35  C    0.005006  -0.003850   0.000390   0.001326  -0.000083  -0.004556
    36  H   -0.000685  -0.000052   0.000022   0.000051  -0.000062  -0.000203
    37  H    0.001314   0.000127   0.000131  -0.000002  -0.000010  -0.000178
    38  H    0.000903   0.000319  -0.000030  -0.000007   0.000001   0.000021
    39  H   -0.000080  -0.000003   0.000000  -0.000000  -0.000000  -0.000006
    40  H   -0.001031  -0.000468   0.000003   0.000000  -0.000001  -0.000003
              13         14         15         16         17         18
     1  C   -2.296706   0.077328  -0.023075  -0.005472   0.012339  -0.000530
     2  N   -0.319861   0.152903   0.045645   0.011976  -0.001132   0.000123
     3  C   -0.751048  -0.029979  -0.005082   0.063663   0.017302   0.011114
     4  O   -0.042295  -0.004913  -0.007315   0.001111  -0.000184  -0.000136
     5  N   -0.156057   0.033200   0.156600  -0.051860  -0.063750   0.008830
     6  C   -0.094784   0.013549  -0.046816   0.337904   0.426538  -0.075175
     7  C    0.012979  -0.002519  -0.023347  -0.019323  -0.035661   0.456783
     8  C   -0.006394   0.000525   0.007103  -0.020235  -0.014809  -0.073054
     9  C   -8.730722   0.022273  -0.016937   0.016607  -0.015622   0.001750
    10  C   -1.086740   0.000587  -0.006198   0.002191  -0.001473   0.000114
    11  C    0.767362  -0.003945   0.001311   0.000192  -0.000052   0.000009
    12  C   -6.022151   0.000136   0.002687  -0.000656   0.000476  -0.000046
    13  C   22.991569  -0.100208   0.024259  -0.003503   0.001292  -0.000792
    14  H   -0.100208   0.297156   0.017797  -0.000290   0.000315   0.000052
    15  H    0.024259   0.017797   0.315965   0.003086   0.000612   0.001668
    16  H   -0.003503  -0.000290   0.003086   0.441012  -0.047948   0.005700
    17  H    0.001292   0.000315   0.000612  -0.047948   0.451003  -0.008755
    18  H   -0.000792   0.000052   0.001668   0.005700  -0.008755   0.443040
    19  H    0.001437   0.000036  -0.000117  -0.008294   0.005714  -0.039770
    20  H    0.000048  -0.000001  -0.000028  -0.000789   0.002854  -0.008038
    21  H    0.000001   0.000000  -0.000037  -0.000054  -0.000044  -0.003933
    22  H   -0.000021   0.000001  -0.000061   0.003198  -0.000643   0.006537
    23  H    0.031147  -0.000133   0.000035  -0.000016   0.000039  -0.000000
    24  C    0.905995  -0.000244  -0.000357   0.000049   0.000004   0.000002
    25  Cl  -0.085327   0.000017  -0.000003   0.000000  -0.000000   0.000000
    26  H    0.071095  -0.000068   0.000000   0.000000  -0.000000  -0.000000
    27  H    0.203086   0.010797   0.000030   0.000000   0.000000  -0.000000
    28  F    0.001183   0.000002   0.000000   0.000000  -0.000001   0.000000
    29  F   -0.000830   0.000001   0.000000  -0.000000   0.000000   0.000000
    30  F   -0.025335  -0.000001  -0.000000   0.000000  -0.000000  -0.000000
    31  O    0.186817   0.047590   0.013704   0.000006  -0.000005   0.000196
    32  O    0.012978   0.008805   0.048369  -0.000408  -0.000001  -0.001700
    33  C   -0.015056  -0.006284  -0.004990   0.000422  -0.000841   0.002393
    34  C    0.123214   0.017173   0.031614  -0.000296  -0.000151  -0.000239
    35  C    0.000011  -0.000855  -0.003616   0.000070  -0.000004   0.000405
    36  H    0.000739  -0.000346  -0.000151   0.000000  -0.000000   0.000002
    37  H   -0.001057   0.000030   0.000054   0.000000   0.000000  -0.000001
    38  H    0.000092   0.000010  -0.000037   0.000000   0.000000  -0.000023
    39  H   -0.000025  -0.000001   0.000027  -0.000000  -0.000000   0.000000
    40  H   -0.000029  -0.000016  -0.000226  -0.000001  -0.000000  -0.000003
              19         20         21         22         23         24
     1  C    0.000337  -0.000002   0.000097  -0.000054  -0.057310  -3.769238
     2  N   -0.000862   0.000007   0.000014  -0.000073  -0.010388   0.025855
     3  C    0.001136  -0.000961   0.005320  -0.002962   0.036992  -0.036112
     4  O   -0.000299  -0.000040   0.000013  -0.000023  -0.006785  -0.010264
     5  N    0.011045   0.000972  -0.001474  -0.000203   0.000531   0.015865
     6  C   -0.073471  -0.046124   0.082583  -0.032719   0.003703   0.006250
     7  C    0.463963   0.045100  -0.148720   0.024069  -0.000110  -0.000587
     8  C   -0.071122   0.345410   0.412495   0.355468   0.000035   0.000188
     9  C   -0.001831  -0.000107   0.000002   0.000024   0.324190  -0.965224
    10  C   -0.000118  -0.000014   0.000000   0.000003   0.020598  -2.868498
    11  C   -0.000001  -0.000001   0.000000   0.000000  -0.028452  -1.741070
    12  C    0.000094   0.000001  -0.000000  -0.000000  -0.052799  -0.031708
    13  C    0.001437   0.000048   0.000001  -0.000021   0.031147   0.905995
    14  H    0.000036  -0.000001   0.000000   0.000001  -0.000133  -0.000244
    15  H   -0.000117  -0.000028  -0.000037  -0.000061   0.000035  -0.000357
    16  H   -0.008294  -0.000789  -0.000054   0.003198  -0.000016   0.000049
    17  H    0.005714   0.002854  -0.000044  -0.000643   0.000039   0.000004
    18  H   -0.039770  -0.008038  -0.003933   0.006537  -0.000000   0.000002
    19  H    0.441830   0.006447  -0.003872  -0.007612   0.000000  -0.000002
    20  H    0.006447   0.447297  -0.024152  -0.036492  -0.000000  -0.000000
    21  H   -0.003872  -0.024152   0.426259  -0.024173   0.000000   0.000000
    22  H   -0.007612  -0.036492  -0.024173   0.446180  -0.000000  -0.000000
    23  H    0.000000  -0.000000   0.000000  -0.000000   0.349182   0.052264
    24  C   -0.000002  -0.000000   0.000000  -0.000000   0.052264  13.942446
    25  Cl   0.000000   0.000000   0.000000   0.000000  -0.001068  -0.611720
    26  H   -0.000000   0.000000  -0.000000   0.000000   0.000044   0.016316
    27  H   -0.000000   0.000000  -0.000000  -0.000000  -0.000088   0.003041
    28  F   -0.000000  -0.000000  -0.000000   0.000000   0.014119   0.219182
    29  F    0.000000  -0.000000  -0.000000  -0.000000   0.000206   0.075288
    30  F   -0.000000  -0.000000   0.000000  -0.000000   0.000233   0.019102
    31  O   -0.000273  -0.000000  -0.000000  -0.000001   0.000018   0.000307
    32  O   -0.001194   0.000034  -0.000026  -0.000008   0.000011  -0.000075
    33  C    0.003317   0.000054  -0.000139   0.000164   0.000045  -0.002180
    34  C   -0.001604  -0.000025   0.000179  -0.000040  -0.000001  -0.000407
    35  C    0.000968   0.000010  -0.000079   0.000029   0.000001   0.000029
    36  H    0.000002   0.000000  -0.000000   0.000000   0.000000   0.000002
    37  H   -0.000003  -0.000000  -0.000000   0.000000  -0.000000  -0.000000
    38  H   -0.000008  -0.000000   0.000000  -0.000000  -0.000000  -0.000000
    39  H    0.000000  -0.000000  -0.000000  -0.000000  -0.000000  -0.000000
    40  H   -0.000021   0.000000   0.000001  -0.000000   0.000000   0.000000
              25         26         27         28         29         30
     1  C    0.321733  -0.047945   0.196622   0.238247  -0.023523   0.033779
     2  N   -0.001743  -0.001899  -0.029509   0.000308   0.000661   0.000479
     3  C   -0.025076  -0.000910   0.008142   0.005397  -0.000278   0.003075
     4  O    0.000159  -0.000006  -0.000006  -0.000930  -0.000025   0.000095
     5  N   -0.000027  -0.000036  -0.000217  -0.000113   0.000021  -0.000008
     6  C   -0.000540  -0.000006  -0.000228   0.000002   0.000006   0.000015
     7  C   -0.000012   0.000000   0.000100   0.000007  -0.000000  -0.000001
     8  C   -0.000002  -0.000000   0.000005  -0.000000   0.000000  -0.000000
     9  C    0.145404  -0.039219   0.052770   0.264854  -0.033940   0.089284
    10  C    0.917829   0.135948  -0.018802  -0.401429   0.168759   0.138261
    11  C   -1.857198   0.143325  -0.088830  -0.179586  -0.099650  -0.179224
    12  C    0.049436   0.059359  -0.017728  -0.011877   0.081723   0.087602
    13  C   -0.085327   0.071095   0.203086   0.001183  -0.000830  -0.025335
    14  H    0.000017  -0.000068   0.010797   0.000002   0.000001  -0.000001
    15  H   -0.000003   0.000000   0.000030   0.000000   0.000000  -0.000000
    16  H    0.000000   0.000000   0.000000   0.000000  -0.000000   0.000000
    17  H   -0.000000  -0.000000   0.000000  -0.000001   0.000000  -0.000000
    18  H    0.000000  -0.000000  -0.000000   0.000000   0.000000  -0.000000
    19  H    0.000000  -0.000000  -0.000000  -0.000000   0.000000  -0.000000
    20  H    0.000000   0.000000   0.000000  -0.000000  -0.000000  -0.000000
    21  H    0.000000  -0.000000  -0.000000  -0.000000  -0.000000   0.000000
    22  H    0.000000   0.000000  -0.000000   0.000000  -0.000000  -0.000000
    23  H   -0.001068   0.000044  -0.000088   0.014119   0.000206   0.000233
    24  C   -0.611720   0.016316   0.003041   0.219182   0.075288   0.019102
    25  Cl  17.800640  -0.016813   0.000143   0.012179  -0.026201  -0.021233
    26  H   -0.016813   0.364867  -0.003725   0.000026  -0.000033  -0.000030
    27  H    0.000143  -0.003725   0.361314  -0.000008   0.000002   0.000003
    28  F    0.012179   0.000026  -0.000008   9.046417  -0.033299  -0.034372
    29  F   -0.026201  -0.000033   0.000002  -0.033299   8.988622  -0.044358
    30  F   -0.021233  -0.000030   0.000003  -0.034372  -0.044358   8.986277
    31  O   -0.000118   0.000076   0.001559  -0.000000   0.000000   0.000000
    32  O   -0.000002  -0.000000   0.000301  -0.000000   0.000000   0.000000
    33  C   -0.000055   0.000000   0.004798   0.000002  -0.000004  -0.000003
    34  C    0.000108   0.000063  -0.003471   0.000000  -0.000001  -0.000000
    35  C   -0.000007   0.000003  -0.000132  -0.000000   0.000000   0.000000
    36  H    0.000000   0.000000  -0.000052   0.000000   0.000000   0.000000
    37  H   -0.000000  -0.000000   0.000028  -0.000000   0.000000  -0.000000
    38  H    0.000000  -0.000000   0.000000  -0.000000  -0.000000  -0.000000
    39  H   -0.000000   0.000000  -0.000000  -0.000000  -0.000000   0.000000
    40  H    0.000000   0.000000  -0.000000   0.000000   0.000000   0.000000
              31         32         33         34         35         36
     1  C   -0.180665  -0.008356   0.101907  -0.152374   0.006654   0.000074
     2  N    0.008151  -0.012621   0.003514  -0.007717  -0.001144   0.000202
     3  C   -0.009480  -0.027036  -0.008672  -0.019407  -0.000492  -0.000761
     4  O   -0.000953  -0.000689  -0.000699  -0.000712   0.000016  -0.000001
     5  N   -0.023433  -0.028958   0.015810  -0.061721   0.006364   0.000391
     6  C   -0.008647   0.041798   0.005940   0.013845  -0.007507   0.000495
     7  C   -0.000675  -0.001032  -0.000359  -0.014867   0.005006  -0.000685
     8  C    0.000476   0.007948  -0.016379   0.005094  -0.003850  -0.000052
     9  C   -0.011669  -0.015947  -0.036733  -0.037301   0.000390   0.000022
    10  C    0.001545  -0.002200  -0.007297  -0.010876   0.001326   0.000051
    11  C   -0.000641  -0.000152   0.005838   0.016039  -0.000083  -0.000062
    12  C    0.033994   0.001954  -0.071710   0.050773  -0.004556  -0.000203
    13  C    0.186817   0.012978  -0.015056   0.123214   0.000011   0.000739
    14  H    0.047590   0.008805  -0.006284   0.017173  -0.000855  -0.000346
    15  H    0.013704   0.048369  -0.004990   0.031614  -0.003616  -0.000151
    16  H    0.000006  -0.000408   0.000422  -0.000296   0.000070   0.000000
    17  H   -0.000005  -0.000001  -0.000841  -0.000151  -0.000004  -0.000000
    18  H    0.000196  -0.001700   0.002393  -0.000239   0.000405   0.000002
    19  H   -0.000273  -0.001194   0.003317  -0.001604   0.000968   0.000002
    20  H   -0.000000   0.000034   0.000054  -0.000025   0.000010   0.000000
    21  H   -0.000000  -0.000026  -0.000139   0.000179  -0.000079  -0.000000
    22  H   -0.000001  -0.000008   0.000164  -0.000040   0.000029   0.000000
    23  H    0.000018   0.000011   0.000045  -0.000001   0.000001   0.000000
    24  C    0.000307  -0.000075  -0.002180  -0.000407   0.000029   0.000002
    25  Cl  -0.000118  -0.000002  -0.000055   0.000108  -0.000007   0.000000
    26  H    0.000076  -0.000000   0.000000   0.000063   0.000003   0.000000
    27  H    0.001559   0.000301   0.004798  -0.003471  -0.000132  -0.000052
    28  F   -0.000000  -0.000000   0.000002   0.000000  -0.000000   0.000000
    29  F    0.000000   0.000000  -0.000004  -0.000001   0.000000   0.000000
    30  F    0.000000   0.000000  -0.000003  -0.000000   0.000000   0.000000
    31  O    8.601873  -0.149619   0.308738  -0.208421   0.015317  -0.003054
    32  O   -0.149619   8.500209   0.345780  -0.150646   0.006725  -0.001718
    33  C    0.308738   0.345780   5.930723  -1.004996   0.286560  -0.046785
    34  C   -0.208421  -0.150646  -1.004996   7.434315  -0.390003   0.413793
    35  C    0.015317   0.006725   0.286560  -0.390003   6.009304  -0.033192
    36  H   -0.003054  -0.001718  -0.046785   0.413793  -0.033192   0.420769
    37  H   -0.003100   0.003649  -0.015938   0.401347  -0.052211  -0.030910
    38  H   -0.000071  -0.001510  -0.013737  -0.023985   0.386905  -0.007068
    39  H   -0.000567   0.002150   0.054974  -0.107417   0.401865  -0.002676
    40  H   -0.000517  -0.004840  -0.026720  -0.011128   0.388252   0.005258
              37         38         39         40
     1  C    0.001010  -0.000188   0.000013   0.000083
     2  N    0.000107  -0.000024   0.000015   0.000027
     3  C    0.000754   0.000201   0.000054  -0.000500
     4  O    0.000001   0.000000  -0.000000  -0.000000
     5  N   -0.000043   0.000086  -0.000043   0.000040
     6  C   -0.001017  -0.000519   0.000013   0.001258
     7  C    0.001314   0.000903  -0.000080  -0.001031
     8  C    0.000127   0.000319  -0.000003  -0.000468
     9  C    0.000131  -0.000030   0.000000   0.000003
    10  C   -0.000002  -0.000007  -0.000000   0.000000
    11  C   -0.000010   0.000001  -0.000000  -0.000001
    12  C   -0.000178   0.000021  -0.000006  -0.000003
    13  C   -0.001057   0.000092  -0.000025  -0.000029
    14  H    0.000030   0.000010  -0.000001  -0.000016
    15  H    0.000054  -0.000037   0.000027  -0.000226
    16  H    0.000000   0.000000  -0.000000  -0.000001
    17  H    0.000000   0.000000  -0.000000  -0.000000
    18  H   -0.000001  -0.000023   0.000000  -0.000003
    19  H   -0.000003  -0.000008   0.000000  -0.000021
    20  H   -0.000000  -0.000000  -0.000000   0.000000
    21  H   -0.000000   0.000000  -0.000000   0.000001
    22  H    0.000000  -0.000000  -0.000000  -0.000000
    23  H   -0.000000  -0.000000  -0.000000   0.000000
    24  C   -0.000000  -0.000000  -0.000000   0.000000
    25  Cl  -0.000000   0.000000  -0.000000   0.000000
    26  H   -0.000000  -0.000000   0.000000   0.000000
    27  H    0.000028   0.000000  -0.000000  -0.000000
    28  F   -0.000000  -0.000000  -0.000000   0.000000
    29  F    0.000000  -0.000000  -0.000000   0.000000
    30  F   -0.000000  -0.000000   0.000000   0.000000
    31  O   -0.003100  -0.000071  -0.000567  -0.000517
    32  O    0.003649  -0.001510   0.002150  -0.004840
    33  C   -0.015938  -0.013737   0.054974  -0.026720
    34  C    0.401347  -0.023985  -0.107417  -0.011128
[...]
 5,-0.00000080,-0.00000025,0.00000004,0.00000173,0.00000076,-0.00000113
 ,-0.00000068,-0.00000055,0.00000088,-0.00000293,-0.00000022,0.00000030
 ,-0.00000103,-0.00000116,-0.00000064,-0.00000072,0.00000093,-0.0000013
 6,-0.00000192,0.00000302,-0.00000459,0.00000538,-0.00000215,-0.0000006
 5,0.00000179,-0.00000074,-0.00000108,-0.00000712,-0.00000402,0.0000003
 9,0.,-0.00000110,0.00000113,0.00000195,-0.00000043,0.00000205,0.000000
 70,-0.00000182,0.00000005,0.00273663,0.00043824,0.00251320,0.00042364,
 -0.00438154,0.00573588,-0.02927604,-0.00974382,-0.01435235,-0.08784958
 ,-0.08401070,-0.03055842,0.01965073,0.00739495,0.00668338,0.09148037,0
 .09085692,-0.00001168,-0.00000333,0.00000394,0.00000675,-0.00002825,0.
 00002591,0.00004101,-0.00000291,0.00000494,-0.00000944,0.00000347,-0.0
 0000910,0.00000023,0.00007999,0.00002811,-0.00000813,0.00000118,0.0000
 0475,-0.00000115,-0.00000169,-0.00000114,0.00000039,-0.00000156,-0.000
 00020,0.00000369,-0.00000163,0.00000020,0.00000097,0.00000001,-0.00000
 033,0.00000057,0.00000037,0.00000012,-0.00000170,0.00000022,-0.0000003
 4,0.00000043,0.00000026,-0.00000085,-0.00002763,0.00004258,-0.00005121
 ,-0.00003382,-0.00013067,-0.00005359,0.00000300,0.00000170,-0.00000005
 ,0.00000071,0.00000092,0.00000024,0.00000020,0.00000003,-0.00000021,-0
 .00000015,0.00000071,0.00000179,-0.00000025,0.00000021,0.00000028,0.00
 000027,0.00000008,0.00000003,0.00000001,0.00000037,-0.00000006,-0.0000
 0020,0.00000042,0.00000040,-0.00000068,0.00000033,0.00000130,0.0000005
 4,-0.00000035,-0.00000009,0.00000064,-0.00000021,0.00000018,-0.0000006
 8,-0.00000048,0.00000085,0.00000034,-0.00000002,-0.00000050,-0.0000000
 7,-0.00000032,-0.00000042,0.00000027,-0.00000067,-0.00000060,0.0000288
 7,-0.00175535,-0.00043705,-0.00055733,0.00184232,-0.00268890,0.0118115
 6,0.00618684,0.00331478,-0.06754728,-0.02887569,-0.06424407,0.01131759
 ,0.00492982,0.00323229,0.07275814,0.03103644,0.06899490,0.00003629,0.0
 0000254,-0.00000687,0.00000635,0.00008738,-0.00000936,-0.00007968,-0.0
 0000973,0.00000566,0.00002230,0.00000961,-0.00000289,0.00001561,-0.000
 07628,0.00000149,0.00000947,-0.00000302,-0.00000094,0.00000047,0.00000
 170,0.00000953,-0.00000078,-0.00000060,-0.00000372,-0.00000967,0.00000
 445,-0.00000074,0.00000003,0.00000076,-0.00000267,-0.00000116,0.000000
 17,0.00000147,0.00000326,0.00000125,0.00000069,-0.00000442,-0.00000686
 ,0.00000004,0.00001049,-0.00018034,0.00003846,-0.00001020,0.00008367,-
 0.00000488,-0.00000134,-0.00000159,0.00000010,-0.00000167,0.00000029,0
 .00000025,-0.00000063,0.00000099,-0.00000064,-0.00000007,0.00000244,-0
 .00000219,0.00000049,0.00000041,-0.00000019,-0.00000008,-0.00000016,0.
 00000047,0.00000003,-0.00000045,0.00000009,0.00000055,-0.00000045,0.00
 000020,0.00000131,-0.00000244,0.00000161,-0.00000253,0.00000073,-0.000
 00014,-0.00000081,0.00000075,-0.00000010,0.00000150,-0.00000113,-0.000
 00109,0.00000012,0.00000083,-0.00000045,-0.00000102,0.00000049,-0.0000
 0071,-0.00000035,0.00000152,0.00000040,-0.00056422,0.00208425,-0.00048
 998,-0.00028118,-0.00156954,-0.00036532,-0.00186533,-0.00209109,0.0049
 0579,-0.04367508,0.00237544,0.00084685,-0.00031998,0.00030306,0.025901
 21,0.00014826,0.00108016,-0.02897504,0.04782787,-0.00003951,0.00001816
 ,-0.00000208,0.00006991,0.00004161,0.00001373,-0.00020974,0.00009826,0
 .00000912,0.00005069,-0.00012662,0.00000668,0.00008291,-0.00037872,0.0
 0005199,0.00007793,-0.00000083,-0.00000665,-0.00000783,-0.00000186,0.0
 0000243,0.00000357,0.00000117,-0.00000141,0.00000684,-0.00000820,0.000
 00227,-0.00000031,0.00000073,0.00000176,-0.00000067,-0.00000223,-0.000
 00144,-0.00000051,0.00000366,0.00000153,0.00000945,-0.00000708,-0.0000
 0350,-0.00006084,0.00006503,-0.00005702,0.00001295,0.00061552,-0.00010
 747,-0.00001714,-0.00001302,0.00000103,-0.00001520,-0.00001121,0.00000
 603,-0.00000133,0.00000065,-0.00000785,-0.00000190,0.00000383,0.000005
 01,-0.00000129,-0.00000167,0.00000117,-0.00000394,-0.00000031,0.000000
 59,-0.00000183,-0.00000227,-0.00000055,-0.00000023,0.00000170,-0.00000
 078,-0.00000024,0.00000463,-0.00000073,0.00000380,-0.00000092,-0.00000
 060,0.00000083,-0.00000036,-0.00000028,-0.00000242,0.00000429,-0.00000
 025,-0.00000012,-0.00000111,0.00000073,0.00000061,-0.00000087,0.000000
 74,0.00000049,-0.00000232,-0.00000058,-0.00134100,-0.00085673,-0.00269
 755,-0.00418421,-0.00625962,-0.00039687,0.00368563,0.00311047,0.033984
 43,0.00304197,-0.04584073,0.00061715,-0.00010705,-0.00128438,-0.020771
 71,0.00029826,-0.00030020,-0.01304147,-0.00376527,0.05172339,0.0000084
 4,-0.00001206,0.00000211,-0.00004254,-0.00003489,-0.00001177,0.0001390
 4,-0.00004562,-0.00001083,-0.00003339,0.00005634,-0.00000128,-0.000034
 44,0.00019023,-0.00001424,-0.00003916,0.00000723,0.00000232,0.00000175
 ,0.00000146,-0.00000484,-0.00000233,-0.00000105,0.00000187,-0.00000152
 ,0.00000453,-0.00000117,0.00000086,0.00000015,0.00000310,0.00000004,-0
 .00000018,-0.00000061,0.00000019,-0.00000056,0.00000035,-0.00000448,0.
 00000462,-0.00000095,0.00002788,0.00007110,0.00001847,-0.00002831,-0.0
 0028651,0.00002292,0.00000857,0.00000780,-0.00000024,0.00000799,0.0000
 0590,-0.00000232,0.00000178,-0.00000045,0.00000670,0.00000164,-0.00000
 211,-0.00000418,0.00000100,0.00000066,-0.00000053,0.00000191,-0.000000
 20,-0.00000063,0.00000169,0.00000198,0.00000040,-0.00000011,-0.0000011
 7,0.00000024,0.00000004,-0.00000121,-0.00000307,-0.00000096,0.00000007
 ,0.00000026,-0.00000129,-0.00000004,0.00000021,-0.00000111,0.00000083,
 0.00000110,-0.00000051,0.,0.00000054,0.00000081,0.,0.00000058,-0.00000
 022,0.00000068,0.00000057,0.00054602,-0.00038866,0.00247728,0.00050967
 ,0.00304162,-0.00005380,0.00040442,-0.00215724,-0.01173089,-0.00003047
 ,-0.00132069,-0.31465320,0.00006464,-0.00054316,-0.00860966,-0.0006048
 6,0.00005705,-0.00909279,-0.00272326,0.00251408,0.33990469,0.00001414,
 -0.00000022,-0.00000005,-0.00000878,0.00003046,-0.00001155,0.00000203,
 -0.00001028,0.00000028,0.00000096,0.00001430,-0.00000179,-0.00000082,0
 .00002141,-0.00000404,-0.00000525,-0.00000143,0.00000204,0.00000040,-0
 .00000052,-0.00000465,-0.00000060,0.00000094,0.00000109,-0.00000343,0.
 00000232,-0.00000039,0.00000096,0.00000113,-0.00000019,-0.00000097,-0.
 00000041,-0.00000006,0.00000013,-0.00000013,-0.00000104,-0.00000256,-0
 .00000303,0.00000017,0.00000954,-0.00005297,0.00001975,-0.00000989,-0.
 00003836,0.00000583,0.00000104,0.00000145,-0.00000011,0.00000138,0.000
 00144,-0.00000049,0.00000173,0.00000112,0.00000147,0.00000060,0.000001
 07,0.00000008,0.00000016,-0.00000071,-0.00000034,-0.00000018,0.0000003
 3,-0.00000051,0.00000036,0.00000008,0.00000068,0.00000010,-0.00000009,
 0.00000057,0.00000063,-0.00000067,0.00000186,-0.00000116,0.00000052,0.
 00000004,-0.00000015,0.00000022,0.00000025,0.00000115,0.00000062,0.000
 00074,0.,0.00000020,-0.00000056,-0.00000078,0.00000008,-0.00000096,-0.
 00000008,0.00000010,-0.00000041,-0.00016319,0.00022921,-0.00026966,0.0
 0025363,0.00035797,-0.00040116,0.00045985,-0.00123696,0.00024784,0.000
 06962,0.00063201,0.02683781,-0.04801756,-0.00069366,-0.00364179,0.0010
 4998,-0.00101941,-0.00033340,-0.00316994,0.00361746,0.00162766,0.04989
 520,-0.00000176,-0.00000274,0.00000048,-0.00000392,-0.00001352,0.00000
 546,0.00001891,-0.00000747,-0.00000049,-0.00000402,0.00000397,0.000001
 45,-0.00000396,0.00002231,0.00000033,-0.00000200,0.00000290,-0.0000003
 4,-0.00000094,0.00000550,-0.00000386,0.00000178,0.00000107,-0.00000003
 ,0.00000053,0.00000032,0.00000086,0.00000094,0.00000099,0.00000114,0.0
 0000067,-0.00000172,-0.00000159,-0.00000019,0.00000076,0.00000166,0.00
 000072,0.00000200,-0.00000083,-0.00000082,0.00001948,-0.00000343,-0.00
 000890,-0.00003267,-0.00000741,-0.00000073,0.00000191,0.00000008,0.000
 00008,0.00000050,-0.00000023,-0.00000108,-0.00000071,0.00000384,-0.000
 00161,-0.00000342,0.00000003,0.,-0.00000094,-0.00000028,-0.00000089,0.
 00000005,-0.00000025,0.00000060,-0.00000009,0.00000066,-0.00000006,-0.
 00000080,-0.00000038,0.00000069,-0.00000023,-0.00000086,-0.00000023,0.
 00000015,-0.00000004,-0.00000025,-0.00000006,-0.00000011,-0.00000101,-
 0.00000088,-0.00000042,-0.00000030,-0.00000005,0.00000030,-0.00000028,
 -0.00000006,0.,-0.00000003,0.00000006,0.00000013,0.00014228,-0.0000746
 5,0.00028103,0.00000107,-0.00026175,-0.00003831,-0.00061486,0.00056723
 ,-0.00064151,-0.00078253,-0.00127285,-0.02025039,-0.00033406,-0.047544
 09,-0.00810076,-0.00050910,0.00071997,0.00067000,0.00308841,-0.0019135
 2,-0.00111023,-0.00269512,0.04825267,-0.00001466,-0.00000169,0.0000058
 2,0.00000325,-0.00004494,0.00002189,0.00001933,0.00000814,-0.00000366,
 -0.00000581,-0.00001228,0.00000217,-0.00000029,-0.00000323,0.00000878,
 0.00000454,0.00000258,-0.00000170,-0.00000348,-0.00000384,-0.00000517,
 0.00000124,-0.00000045,0.00000158,0.00000290,-0.00000217,-0.00000013,0
 .00000110,0.00000341,0.00000323,0.00000494,-0.00000336,-0.00000377,-0.
 00000345,0.00000074,0.00000447,0.00000207,0.00000333,-0.00000497,-0.00
 000964,0.00006919,-0.00003451,-0.00000274,0.00000828,-0.00000152,-0.00
 000077,0.00000103,-0.00000016,-0.00000061,-0.00000129,0.00000096,0.000
 00004,0.00000008,0.00000262,-0.00000005,0.00000049,0.00000054,-0.00000
 049,-0.00000018,0.00000081,-0.00000098,0.00000023,-0.00000044,0.000000
 21,0.00000095,-0.00000021,-0.00000042,-0.00000049,-0.00000024,-0.00000
 030,0.00000080,-0.00000316,0.00000078,-0.00000048,0.00000016,-0.000000
 12,-0.00000033,0.00000019,-0.00000082,-0.00000082,-0.00000105,-0.00000
 072,-0.00000076,0.00000073,0.00000071,-0.00000064,0.00000034,0.0000000
 6,-0.00000031,0.00000005,-0.00013860,-0.00068403,0.00030183,-0.0010445
 9,0.00066432,0.00117412,0.00111047,0.00165376,-0.00101020,0.00009664,-
 0.00079583,-0.00977631,-0.00240866,-0.01025682,-0.31965649,0.00030287,
 0.00006872,0.00059339,0.00199151,-0.00120067,0.00078813,0.00079129,0.0
 1061331,0.34505111,0.00006877,-0.00000499,-0.00001529,-0.00001474,0.00
 019066,-0.00007976,-0.00006708,-0.00003995,0.00000250,0.00002133,0.000
 05703,-0.00000599,0.00000887,0.00003525,-0.00000283,-0.00001757,-0.000
 00426,0.00000249,0.00000174,0.00000417,-0.00000036,0.00000010,-0.00000
 109,0.00000023,-0.00001730,0.00001089,0.00000192,0.00000144,0.00000468
 ,-0.00000327,0.00000090,-0.00000074,-0.00000134,0.00000077,-0.00000008
 ,-0.00000108,-0.00001113,-0.00000943,0.00000691,0.00004026,-0.00029253
 ,0.00014145,-0.00001516,-0.00007762,0.00001175,0.00000407,0.00000173,-
 0.00000036,0.00000442,0.00000232,-0.00000105,-0.00000018,0.00000021,-0
 .00000125,0.00000031,0.00000088,0.00000042,0.00000015,-0.00000002,0.00
 000003,0.00000188,0.00000020,-0.00000020,0.00000006,-0.00000008,-0.000
 00012,0.00000034,-0.00000107,0.00000096,0.00000148,-0.00000722,0.00000
 529,-0.00000564,0.00000242,0.00000045,-0.00000121,0.00000025,0.0000003
 1,0.00000386,0.00000338,-0.00000141,0.00000042,0.00000194,-0.00000182,
 -0.00000245,0.00000142,-0.00000302,-0.00000090,0.00000303,0.,-0.000979
 24,0.00326019,-0.00020086,0.00112359,-0.00009617,-0.00061554,-0.003753
 61,-0.00105257,0.00346494,0.00283705,0.02540116,-0.01031566,-0.0510973
 8,-0.02879045,0.01001104,0.00092498,-0.00083001,-0.00065487,0.00092382
 ,-0.00086213,-0.00004892,-0.00131701,0.00107879,-0.00045057,0.05304722
 ,-0.00008150,0.00000914,0.00001823,0.00002987,-0.00018811,0.00007642,0
 .00002945,0.00006845,-0.00000271,-0.00001333,-0.00008644,0.00000997,-0
 .00000446,-0.00010175,0.00000503,0.00002981,0.00000331,-0.00000425,-0.
 00000217,-0.00000269,0.00000135,0.00000165,0.00000096,-0.00000033,0.00
 001947,-0.00001486,-0.00000156,-0.00000255,-0.00000365,0.00000483,0.00
 000277,-0.00000014,-0.00000226,-0.00000278,0.00000016,0.00000501,0.000
 01205,0.00000905,-0.00001097,-0.00005606,0.00033071,-0.00014837,0.0000
 4248,0.00020239,-0.00002533,-0.00000705,-0.00000509,-0.00000009,-0.000
 00620,-0.00000478,0.00000308,-0.00000019,0.00000072,-0.00000340,0.0000
 0105,0.00000245,0.00000268,-0.00000115,-0.00000070,0.00000109,-0.00000
 200,0.00000046,0.00000015,-0.00000122,-0.00000106,-0.00000066,-0.00000
 049,0.00000159,-0.00000088,-0.00000257,0.00001008,-0.00000621,0.000007
 31,-0.00000286,-0.00000049,0.00000188,-0.00000033,-0.00000036,-0.00000
 356,-0.00000196,0.00000206,-0.00000063,-0.00000284,0.00000228,0.000003
 10,-0.00000207,0.00000344,0.00000138,-0.00000420,-0.00000015,0.0013145
 6,-0.00309124,0.00000924,0.00005145,-0.00103885,0.00029894,0.00218805,
 0.00280313,-0.00203066,-0.00344733,-0.01678578,0.00692536,-0.02732338,
 -0.28302311,0.08765387,0.00010227,0.00077109,0.00024719,-0.00047133,0.
 00050305,-0.00033172,0.00039684,0.00285230,-0.00019410,0.02815898,0.30
 602990,-0.00002269,-0.00000157,0.00000325,-0.00000014,-0.00007454,0.00
 003666,0.00003693,0.00000865,-0.00000090,-0.00001057,-0.00001416,0.000
 00135,-0.00000472,0.00000507,0.00000326,0.00000231,0.00000148,-0.00000
 114,-0.00000069,-0.00000037,-0.00000077,-0.00000074,0.00000051,0.00000
 049,0.00000579,-0.00000236,0.00000120,0.00000084,-0.00000149,0.0000008
 8,-0.00000093,-0.00000061,0.00000032,-0.00000067,0.00000023,-0.0000000
 9,0.00000407,0.00000487,-0.00000226,-0.00000940,0.00010856,-0.00005337
 ,-0.00000316,-0.00001125,-0.00000998,-0.00000107,-0.00000013,0.0000002
 1,-0.00000026,-0.00000003,0.00000003,-0.00000072,0.00000052,0.00000057
 ,-0.00000011,0.00000028,0.00000012,-0.00000007,0.,-0.00000009,-0.00000
 009,-0.00000021,-0.00000008,0.00000027,0.00000035,0.00000009,-0.000000
 05,0.00000024,-0.00000020,0.00000009,0.00000213,-0.00000113,0.00000167
 ,-0.00000068,-0.00000010,0.00000017,-0.00000016,0.00000011,-0.00000087
 ,-0.00000106,0.00000092,-0.00000028,-0.00000059,0.00000034,0.00000026,
 -0.00000048,0.00000051,0.00000022,-0.00000116,-0.00000018,0.00035185,-
 0.00132468,0.00022552,-0.00065782,0.00046578,0.00053809,0.00255375,0.0
 0016365,-0.00096804,-0.00183139,-0.01295739,0.00378226,0.00954140,0.08
 864029,-0.08133597,-0.00033194,0.00054199,0.00017509,-0.00074394,0.000
 27631,0.00044829,0.00404095,0.03041333,-0.00924863,-0.01287997,-0.0957
 4162,0.08320207,0.00001402,0.00000078,-0.00000357,-0.00000176,0.000051
 51,-0.00001753,-0.00002852,-0.00000817,0.00000028,0.00000714,0.0000127
 1,-0.00000064,0.00000528,0.00000866,0.00000103,-0.00000587,-0.00000112
 ,0.00000043,0.00000061,0.00000452,-0.00000623,-0.00000065,0.00000091,0
 .00000093,-0.00000374,0.00000174,0.00000104,-0.00000008,0.00000194,-0.
 00000189,0.00000196,-0.00000016,-0.00000034,-0.00000064,0.00000005,0.0
 0000029,-0.00000126,-0.00000202,0.00000211,0.00001467,-0.00007143,0.00
 003200,-0.00000942,-0.00001771,-0.00000549,0.00000185,0.00000054,-0.00
 000041,0.00000206,0.00000022,0.00000066,-0.00000012,0.00000318,-0.0000
 0126,0.00000029,0.00000774,-0.00000148,-0.00000009,-0.00000089,0.00000
 031,0.00000263,-0.00000036,-0.00000042,0.00000002,0.00000021,0.0000003
 4,-0.00000005,-0.00000023,-0.00000016,-0.00000040,-0.00000390,0.000001
 23,-0.00000149,0.00000085,0.00000004,-0.00000024,-0.00000060,0.0000000
 3,0.00000050,0.00000011,-0.00000158,0.00000051,0.00000105,-0.00000056,
 -0.00000068,0.00000077,-0.00000070,-0.00000034,0.00000168,0.00000037,0
 .00020659,0.00077038,-0.00015993,0.00152674,-0.00007679,-0.00047412,-0
 .00066068,-0.00212344,0.00102239,-0.02186357,-0.00801449,-0.00746810,-
 0.26163016,-0.08328210,-0.07252590,-0.00246227,0.00354969,0.00218730,0
 .00098193,-0.00033861,0.00024186,0.00093875,0.00063317,-0.00024615,-0.
 00171723,-0.00096449,-0.00003831,0.28468367,0.00000596,-0.00000041,0.0
 0000435,-0.00000407,0.00000831,-0.00000409,0.00000981,-0.00000508,0.00
 000014,-0.00000148,0.00000652,-0.00000161,-0.00000781,0.00001962,0.000
 00354,0.00000076,0.00000038,0.00000021,-0.00000016,-0.00000332,0.00001
 101,-0.00000232,0.00000365,-0.00000389,-0.00000231,-0.00000188,-0.0000
 0232,0.00000066,0.00000219,0.00000182,0.00000193,-0.00000130,-0.000000
 84,-0.00000130,0.00000024,0.00000122,-0.00000086,0.00000059,-0.0000034
 2,-0.00000406,-0.00000821,0.00000248,-0.00000406,-0.00002502,-0.000018
 42,-0.00000011,0.00000082,-0.00000011,-0.00000069,0.00000081,-0.000001
 34,0.00000069,0.00000316,0.00000073,0.00000192,0.00000859,-0.00000839,
 0.00000119,0.00000124,-0.00000088,0.00000095,-0.00000039,0.00000018,0.
 00000083,0.00000079,0.00000024,-0.00000005,-0.00000035,-0.00000013,0.0
 0000084,-0.00000030,0.00000091,-0.00000061,0.00000027,-0.00000031,-0.0
 0000053,-0.00000010,0.00000026,0.00000018,0.00000035,0.00000039,-0.000
 00016,0.00000008,-0.00000010,-0.00000081,-0.00000005,-0.00000071,-0.00
 000010,0.00000004,-0.00000032,-0.00014126,-0.00000247,-0.00032204,0.00
 060991,-0.00041386,0.00011205,-0.00017799,0.00057604,0.00098586,0.0188
 0730,0.00734030,0.00702551,-0.08548783,-0.08003703,-0.02919526,0.00319
 902,-0.00206721,-0.00120086,-0.00095102,0.00081862,0.00027142,0.000442
 72,-0.00132194,0.00010935,-0.02614919,-0.00923640,-0.01049972,0.089854
 09,0.08433271,-0.00000563,0.00000377,0.00000387,0.00000920,-0.00000615
 ,-0.00000051,-0.00001758,0.00001152,0.00000032,0.00000365,-0.00001150,
 0.00000112,0.00000521,-0.00002691,-0.00000199,0.00000176,-0.00000068,-
 0.00000093,0.00000233,0.00000280,0.00000338,-0.00000011,-0.00000039,-0
 .00000049,0.00000125,-0.00000188,-0.00000011,0.00000010,0.00000086,0.0
 0000022,0.00000056,-0.00000101,-0.00000144,-0.00000023,0.00000158,0.00
 000215,0.00000088,-0.00000099,-0.00000409,-0.00000548,0.00001159,-0.00
 000565,0.00000841,0.00004709,-0.00000316,-0.00000028,-0.00000225,-0.00
 000034,-0.00000006,-0.00000118,0.00000104,-0.00000222,-0.00000203,-0.0
 0000568,0.00000020,0.00000301,0.00000181,-0.00000019,-0.00000064,0.000
 00041,0.00000156,-0.00000030,0.00000020,-0.00000077,-0.00000128,-0.000
 00031,-0.00000004,0.00000026,0.00000010,-0.00000046,0.00000045,0.00000
 044,0.00000049,-0.00000029,-0.00000010,-0.00000006,-0.00000011,0.00000
 018,-0.00000071,0.00000035,0.00000061,0.00000009,-0.00000010,-0.000000
 10,-0.00000002,-0.00000015,-0.00000010,0.00000015,-0.00000036,-0.00000
 029,0.00000126,-0.00002026,-0.00013690,0.00007517,-0.00035882,0.000047
 04,-0.00057800,0.00038042,0.00021394,0.01187511,0.00508012,0.00354051,
 -0.07325829,-0.02832015,-0.07322936,0.00206370,-0.00172568,0.00019803,
 -0.00037066,0.00080265,0.00051688,-0.02890726,-0.01183234,-0.00821060,
 0.01163483,0.00323589,0.00320129,0.07746213,0.03273309,0.07386861\\0.0
 0000091,0.00000195,-0.00000215,0.00000146,0.00000423,-0.00000181,-0.00
 000167,0.00000009,-0.00000081,0.00000019,-0.00000068,-0.00000208,0.000
 00107,-0.00000041,0.00000270,0.00000009,-0.00000181,-0.00000064,0.0000
 0002,-0.00000196,0.00000094,0.00000037,-0.00000253,0.00000109,0.000002
 30,0.00000002,-0.00000100,0.00000030,0.00000109,-0.00000264,0.00000088
 ,0.00000193,-0.00000345,0.00000041,0.00000195,-0.00000180,-0.00000044,
 0.00000115,-0.00000070,-0.00000101,-0.00000665,0.00000460,-0.00000111,
 -0.00000089,-0.00000012,0.00000064,-0.00000114,-0.00000033,0.00000087,
 -0.00000210,-0.00000020,-0.00000008,-0.00000217,0.00000160,-0.00000036
 ,-0.00000123,0.00000127,0.00000081,-0.00000326,0.00000086,-0.00000004,
 -0.00000289,0.00000177,0.00000048,-0.00000224,0.00000070,0.00000204,0.
 00000035,-0.00000195,0.00000178,0.00000016,-0.00000367,0.00000146,0.00
 000351,-0.00000287,-0.00000012,0.00000317,-0.00000139,-0.00000047,0.00
 000197,-0.00000047,0.00000265,0.00000076,-0.00000408,0.00000270,0.0000
 0136,-0.00000298,0.00000190,0.00000132,-0.00000411,0.00000077,0.000006
 94,-0.00000345,-0.00000012,-0.00000226,0.00000207,-0.00000186,-0.00000
 047,0.00000353,-0.00000279,0.00000055,0.00000198,-0.00000188,-0.000000
 46,0.00000321,-0.00000228,0.00000066,0.00000273,-0.00000233,0.00000126
 ,0.00000257,-0.00000218,-0.00000076,0.00000360,-0.00000295,0.00000003,
 0.00000402,-0.00000240,-0.00000054,0.00000346\\\@


 IT'S WHAT A FELLER THINKS HE KNOWS THAT HURTS HIM...
                    ------
           KIN HUBBARD
 Job cpu time:       0 days 12 hours 23 minutes 30.9 seconds.
 File lengths (MBytes):  RWF=   1413 Int=      0 D2E=      0 Chk=     36 Scr=      1
 Normal termination of Gaussian 09 at Thu Nov 14 23:34:54 2019.
pbs_rusage has been removed.
Please contact help@nci.org.au if you require this functionality.
