 Entering Gaussian System, Link 0=/apps/gaussian/g09e01/g09/g09
 Initial command:
 /apps/gaussian/g09e01/g09/l1.exe "/jobfs/local/3595011.r-man2/Gau-2926.inp" -scrdir="/jobfs/local/3595011.r-man2/"
 Entering Link 1 = /apps/gaussian/g09e01/g09/l1.exe PID=      2927.
  
 Copyright (c) 1988,1990,1992,1993,1995,1998,2003,2009,2015,
            Gaussian, Inc.  All Rights Reserved.
  
 This is part of the Gaussian(R) 09 program.  It is based on
 the Gaussian(R) 03 system (copyright 2003, Gaussian, Inc.),
 the Gaussian(R) 98 system (copyright 1998, Gaussian, Inc.),
 the Gaussian(R) 94 system (copyright 1995, Gaussian, Inc.),
 the Gaussian 92(TM) system (copyright 1992, Gaussian, Inc.),
 the Gaussian 90(TM) system (copyright 1990, Gaussian, Inc.),
 the Gaussian 88(TM) system (copyright 1988, Gaussian, Inc.),
 the Gaussian 86(TM) system (copyright 1986, Carnegie Mellon
 University), and the Gaussian 82(TM) system (copyright 1983,
 Carnegie Mellon University). Gaussian is a federally registered
 trademark of Gaussian, Inc.
  
 This software contains proprietary and confidential information,
 including trade secrets, belonging to Gaussian, Inc.
  
 This software is provided under written license and may be
 used, copied, transmitted, or stored only in accord with that
 written license.
  
 The following legend is applicable only to US Government
 contracts under FAR:
  
                    RESTRICTED RIGHTS LEGEND
  
 Use, reproduction and disclosure by the US Government is
 subject to restrictions as set forth in subparagraphs (a)
 and (c) of the Commercial Computer Software - Restricted
 Rights clause in FAR 52.227-19.
  
 Gaussian, Inc.
 340 Quinnipiac St., Bldg. 40, Wallingford CT 06492
  
  
 ---------------------------------------------------------------
 Warning -- This program may not be used in any manner that
 competes with the business of Gaussian, Inc. or will provide
 assistance to any competitor of Gaussian, Inc.  The licensee
 of this program is prohibited from giving any competitor of
 Gaussian, Inc. access to this program.  By using this program,
 the user acknowledges that Gaussian, Inc. is engaged in the
 business of creating and licensing software in the field of
 computational chemistry and represents and warrants to the
 licensee that it is not a competitor of Gaussian, Inc. and that
 it will not use this program in any manner prohibited above.
 ---------------------------------------------------------------
  

 Cite this work as:
 Gaussian 09, Revision E.01,
 M. J. Frisch, G. W. Trucks, H. B. Schlegel, G. E. Scuseria, 
 M. A. Robb, J. R. Cheeseman, G. Scalmani, V. Barone, B. Mennucci, 
 G. A. Petersson, H. Nakatsuji, M. Caricato, X. Li, H. P. Hratchian, 
 A. F. Izmaylov, J. Bloino, G. Zheng, J. L. Sonnenberg, M. Hada, 
 M. Ehara, K. Toyota, R. Fukuda, J. Hasegawa, M. Ishida, T. Nakajima, 
 Y. Honda, O. Kitao, H. Nakai, T. Vreven, J. A. Montgomery, Jr., 
 J. E. Peralta, F. Ogliaro, M. Bearpark, J. J. Heyd, E. Brothers, 
 K. N. Kudin, V. N. Staroverov, T. Keith, R. Kobayashi, J. Normand, 
 K. Raghavachari, A. Rendell, J. C. Burant, S. S. Iyengar, J. Tomasi, 
 M. Cossi, N. Rega, J. M. Millam, M. Klene, J. E. Knox, J. B. Cross, 
 V. Bakken, C. Adamo, J. Jaramillo, R. Gomperts, R. E. Stratmann, 
 O. Yazyev, A. J. Austin, R. Cammi, C. Pomelli, J. W. Ochterski, 
 R. L. Martin, K. Morokuma, V. G. Zakrzewski, G. A. Voth, 
 P. Salvador, J. J. Dannenberg, S. Dapprich, A. D. Daniels, 
 O. Farkas, J. B. Foresman, J. V. Ortiz, J. Cioslowski, 
 and D. J. Fox, Gaussian, Inc., Wallingford CT, 2013.
 
 ******************************************
 Gaussian 09:  ES64L-G09RevE.01 30-Nov-2015
                14-Nov-2019 
 ******************************************
 %chk=29_c2_carboxy.M062X_6-311pGd_opt_water_GD3.chk
 %mem=196608000
 %nproc=8
 Will use up to    8 processors via shared memory.
 ----------------------------------------------------------------------
 # M062X/6-311+G* SCF=Tight INT(grid=ultrafine) OPT IOP(2/17=4) Empiric
 alDispersion=GD3 SCRF=(SMD,Solvent=h2o) maxdisk=2684354560
 ----------------------------------------------------------------------
 1/14=-1,18=20,19=15,26=4,38=1/1,3;
 2/9=110,12=2,17=4,18=5,40=1/2;
 3/5=4,6=6,7=11,11=2,16=1,25=1,30=1,70=32201,71=1,72=1,74=-55,75=-5,124=31/1,2,3;
 4//1;
 5/5=2,32=2,38=5,53=1/2;
 6/7=2,8=2,9=2,10=2,28=1/1;
 7//1,2,3,16;
 1/14=-1,18=20,19=15,26=4/3(2);
 2/9=110,17=4/2;
 99//99;
 2/9=110,17=4/2;
 3/5=4,6=6,7=11,11=2,16=1,25=1,30=1,70=32205,71=1,72=1,74=-55,75=-5,124=31/1,2,3;
 4/5=5,16=3,69=1/1;
 5/5=2,32=2,38=5,53=1/2;
 7//1,2,3,16;
 1/14=-1,18=20,19=15,26=4/3(-5);
 2/9=110,17=4/2;
 6/7=2,8=2,9=2,10=2,19=2,28=1/1;
 99/9=1/99;
 ------------------------------------------
 29_c2_carboxy.M062X_6-311pGd_opt_water_GD3
 ------------------------------------------
 Symbolic Z-matrix:
 Charge = -1 Multiplicity = 1
 C                    -6.1703    1.40384   0.57929 
 N                    -4.95431   0.75134   0.38472 
 C                    -3.7606    1.35325   0.03499 
 O                    -3.65029   2.56738  -0.18332 
 N                    -2.72037   0.50298  -0.03823 
 C                    -1.38944   0.97599  -0.38829 
 C                    -0.40484  -0.18257  -0.38875 
 C                     0.99834   0.2871   -0.75191 
 C                    -7.09525   0.79439   1.43638 
 C                    -8.34407   1.35677   1.65407 
 C                    -8.68509   2.55264   1.02071 
 C                    -7.77999   3.15879   0.16441 
 C                    -6.53409   2.58983  -0.06616 
 H                    -4.89366  -0.20472   0.76222 
 H                    -2.86461  -0.50102   0.09884 
 H                    -1.06929   1.73896   0.32788 
 H                    -1.41018   1.44921  -1.37536 
 H                    -0.74198  -0.9431   -1.10016 
 H                    -0.40051  -0.65276   0.59968 
 H                     1.01575   0.73943  -1.74697 
 H                     1.70524  -0.54475  -0.75101 
 H                     1.35933   1.0335   -0.03942 
 H                    -6.82474  -0.12992   1.93348 
 C                    -9.30665   0.66781   2.57966 
 Cl                   -10.23816   3.30949   1.27284 
 H                    -8.05165   4.07911  -0.33852 
 H                    -5.85529   3.06743  -0.75656 
 F                    -9.64041   1.43664   3.63118 
 F                    -10.45619   0.33858   1.96509 
 F                    -8.80441  -0.46708   3.0812 
 O                    -4.82917  -1.86069   1.52134 
 O                    -3.01947  -2.36836   0.32481 
 C                    -3.95324  -2.67509   1.10887 
 C                    -4.06402  -4.11029   1.61083 
 C                    -2.98445  -5.05378   1.10556 
 H                    -5.05858  -4.46949   1.32906 
 H                    -4.06377  -4.06687   2.70417 
 H                    -2.99614  -5.12336   0.01604 
 H                    -3.13418  -6.05848   1.50684 
 H                    -1.99044  -4.71754   1.40744 
 
 Add virtual bond connecting atoms O31        and H14        Dist= 3.44D+00.
 Add virtual bond connecting atoms O32        and H15        Dist= 3.57D+00.

 GradGradGradGradGradGradGradGradGradGradGradGradGradGradGradGradGradGrad
 Berny optimization.
 Initialization pass.
                           ----------------------------
                           !    Initial Parameters    !
                           ! (Angstroms and Degrees)  !
 --------------------------                            --------------------------
 ! Name  Definition              Value          Derivative Info.                !
 --------------------------------------------------------------------------------
 ! R1    R(1,2)                  1.3936         estimate D2E/DX2                !
 ! R2    R(1,9)                  1.4006         estimate D2E/DX2                !
 ! R3    R(1,13)                 1.3984         estimate D2E/DX2                !
 ! R4    R(2,3)                  1.3819         estimate D2E/DX2                !
 ! R5    R(2,14)                 1.0297         estimate D2E/DX2                !
 ! R6    R(3,4)                  1.2385         estimate D2E/DX2                !
 ! R7    R(3,5)                  1.3455         estimate D2E/DX2                !
 ! R8    R(5,6)                  1.4552         estimate D2E/DX2                !
 ! R9    R(5,15)                 1.0235         estimate D2E/DX2                !
 ! R10   R(6,7)                  1.5204         estimate D2E/DX2                !
 ! R11   R(6,16)                 1.0943         estimate D2E/DX2                !
 ! R12   R(6,17)                 1.0948         estimate D2E/DX2                !
 ! R13   R(7,8)                  1.5236         estimate D2E/DX2                !
 ! R14   R(7,18)                 1.0946         estimate D2E/DX2                !
 ! R15   R(7,19)                 1.0946         estimate D2E/DX2                !
 ! R16   R(8,20)                 1.0932         estimate D2E/DX2                !
 ! R17   R(8,21)                 1.0916         estimate D2E/DX2                !
 ! R18   R(8,22)                 1.0932         estimate D2E/DX2                !
 ! R19   R(9,10)                 1.3868         estimate D2E/DX2                !
 ! R20   R(9,23)                 1.0838         estimate D2E/DX2                !
 ! R21   R(10,11)                1.3955         estimate D2E/DX2                !
 ! R22   R(10,24)                1.5026         estimate D2E/DX2                !
 ! R23   R(11,12)                1.3856         estimate D2E/DX2                !
 ! R24   R(11,25)                1.746          estimate D2E/DX2                !
 ! R25   R(12,13)                1.3889         estimate D2E/DX2                !
 ! R26   R(12,26)                1.0834         estimate D2E/DX2                !
 ! R27   R(13,27)                1.0796         estimate D2E/DX2                !
 ! R28   R(14,31)                1.8228         estimate D2E/DX2                !
 ! R29   R(15,32)                1.8873         estimate D2E/DX2                !
 ! R30   R(24,28)                1.3447         estimate D2E/DX2                !
 ! R31   R(24,29)                1.3444         estimate D2E/DX2                !
 ! R32   R(24,30)                1.3386         estimate D2E/DX2                !
 ! R33   R(31,33)                1.2652         estimate D2E/DX2                !
 ! R34   R(32,33)                1.2573         estimate D2E/DX2                !
 ! R35   R(33,34)                1.5245         estimate D2E/DX2                !
 ! R36   R(34,35)                1.5202         estimate D2E/DX2                !
 ! R37   R(34,36)                1.0943         estimate D2E/DX2                !
 ! R38   R(34,37)                1.0942         estimate D2E/DX2                !
 ! R39   R(35,38)                1.0918         estimate D2E/DX2                !
 ! R40   R(35,39)                1.0922         estimate D2E/DX2                !
 ! R41   R(35,40)                1.0919         estimate D2E/DX2                !
 ! A1    A(2,1,9)              117.2538         estimate D2E/DX2                !
 ! A2    A(2,1,13)             124.0299         estimate D2E/DX2                !
 ! A3    A(9,1,13)             118.6661         estimate D2E/DX2                !
 ! A4    A(1,2,3)              125.8115         estimate D2E/DX2                !
 ! A5    A(1,2,14)             115.7808         estimate D2E/DX2                !
 ! A6    A(3,2,14)             116.5094         estimate D2E/DX2                !
 ! A7    A(2,3,4)              123.2675         estimate D2E/DX2                !
 ! A8    A(2,3,5)              113.9766         estimate D2E/DX2                !
 ! A9    A(4,3,5)              122.754          estimate D2E/DX2                !
 ! A10   A(3,5,6)              120.9821         estimate D2E/DX2                !
 ! A11   A(3,5,15)             120.2407         estimate D2E/DX2                !
 ! A12   A(6,5,15)             118.6819         estimate D2E/DX2                !
 ! A13   A(5,6,7)              110.161          estimate D2E/DX2                !
 ! A14   A(5,6,16)             109.6799         estimate D2E/DX2                !
 ! A15   A(5,6,17)             109.8797         estimate D2E/DX2                !
 ! A16   A(7,6,16)             109.9996         estimate D2E/DX2                !
 ! A17   A(7,6,17)             109.9597         estimate D2E/DX2                !
 ! A18   A(16,6,17)            107.1104         estimate D2E/DX2                !
 ! A19   A(6,7,8)              111.1966         estimate D2E/DX2                !
 ! A20   A(6,7,18)             109.2792         estimate D2E/DX2                !
 ! A21   A(6,7,19)             109.2459         estimate D2E/DX2                !
 ! A22   A(8,7,18)             110.0547         estimate D2E/DX2                !
 ! A23   A(8,7,19)             110.1214         estimate D2E/DX2                !
 ! A24   A(18,7,19)            106.8377         estimate D2E/DX2                !
 ! A25   A(7,8,20)             111.0498         estimate D2E/DX2                !
 ! A26   A(7,8,21)             111.1788         estimate D2E/DX2                !
 ! A27   A(7,8,22)             111.0537         estimate D2E/DX2                !
 ! A28   A(20,8,21)            107.8027         estimate D2E/DX2                !
 ! A29   A(20,8,22)            107.7864         estimate D2E/DX2                !
 ! A30   A(21,8,22)            107.8129         estimate D2E/DX2                !
 ! A31   A(1,9,10)             120.9511         estimate D2E/DX2                !
 ! A32   A(1,9,23)             119.1409         estimate D2E/DX2                !
 ! A33   A(10,9,23)            119.9079         estimate D2E/DX2                !
 ! A34   A(9,10,11)            119.7561         estimate D2E/DX2                !
 ! A35   A(9,10,24)            119.1838         estimate D2E/DX2                !
 ! A36   A(11,10,24)           121.059          estimate D2E/DX2                !
 ! A37   A(10,11,12)           119.718          estimate D2E/DX2                !
 ! A38   A(10,11,25)           121.553          estimate D2E/DX2                !
 ! A39   A(12,11,25)           118.7282         estimate D2E/DX2                !
 ! A40   A(11,12,13)           120.6196         estimate D2E/DX2                !
 ! A41   A(11,12,26)           119.651          estimate D2E/DX2                !
 ! A42   A(13,12,26)           119.7255         estimate D2E/DX2                !
 ! A43   A(1,13,12)            120.275          estimate D2E/DX2                !
 ! A44   A(1,13,27)            120.4504         estimate D2E/DX2                !
 ! A45   A(12,13,27)           119.2713         estimate D2E/DX2                !
 ! A46   A(10,24,28)           112.2427         estimate D2E/DX2                !
 ! A47   A(10,24,29)           112.2361         estimate D2E/DX2                !
 ! A48   A(10,24,30)           112.2827         estimate D2E/DX2                !
 ! A49   A(28,24,29)           106.5737         estimate D2E/DX2                !
 ! A50   A(28,24,30)           106.552          estimate D2E/DX2                !
 ! A51   A(29,24,30)           106.5271         estimate D2E/DX2                !
 ! A52   A(14,31,33)           118.2623         estimate D2E/DX2                !
 ! A53   A(15,32,33)           112.1469         estimate D2E/DX2                !
 ! A54   A(31,33,32)           124.0886         estimate D2E/DX2                !
 ! A55   A(31,33,34)           116.6379         estimate D2E/DX2                !
 ! A56   A(32,33,34)           119.2735         estimate D2E/DX2                !
 ! A57   A(33,34,35)           115.04           estimate D2E/DX2                !
 ! A58   A(33,34,36)           106.8742         estimate D2E/DX2                !
 ! A59   A(33,34,37)           106.9558         estimate D2E/DX2                !
 ! A60   A(35,34,36)           110.862          estimate D2E/DX2                !
 ! A61   A(35,34,37)           110.8902         estimate D2E/DX2                !
 ! A62   A(36,34,37)           105.6948         estimate D2E/DX2                !
 ! A63   A(34,35,38)           111.3233         estimate D2E/DX2                !
 ! A64   A(34,35,39)           110.5763         estimate D2E/DX2                !
 ! A65   A(34,35,40)           111.3143         estimate D2E/DX2                !
 ! A66   A(38,35,39)           107.8509         estimate D2E/DX2                !
 ! A67   A(38,35,40)           107.7741         estimate D2E/DX2                !
 ! A68   A(39,35,40)           107.8486         estimate D2E/DX2                !
 ! A69   L(2,14,31,5,-1)       181.9449         estimate D2E/DX2                !
 ! A70   L(5,15,32,7,-1)       176.5039         estimate D2E/DX2                !
 ! A71   L(2,14,31,5,-2)       177.0679         estimate D2E/DX2                !
 ! A72   L(5,15,32,7,-2)       180.2469         estimate D2E/DX2                !
 ! D1    D(9,1,2,3)           -153.8208         estimate D2E/DX2                !
 ! D2    D(9,1,2,14)             9.8664         estimate D2E/DX2                !
 ! D3    D(13,1,2,3)            28.7967         estimate D2E/DX2                !
 ! D4    D(13,1,2,14)         -167.5161         estimate D2E/DX2                !
 ! D5    D(2,1,9,10)          -178.0876         estimate D2E/DX2                !
 ! D6    D(2,1,9,23)             1.9107         estimate D2E/DX2                !
 ! D7    D(13,1,9,10)           -0.5598         estimate D2E/DX2                !
 ! D8    D(13,1,9,23)          179.4385         estimate D2E/DX2                !
 ! D9    D(2,1,13,12)          178.5921         estimate D2E/DX2                !
 ! D10   D(2,1,13,27)           -0.7387         estimate D2E/DX2                !
 ! D11   D(9,1,13,12)            1.2441         estimate D2E/DX2                !
 ! D12   D(9,1,13,27)         -178.0867         estimate D2E/DX2                !
 ! D13   D(1,2,3,4)             -2.0333         estimate D2E/DX2                !
 ! D14   D(1,2,3,5)            177.4787         estimate D2E/DX2                !
 ! D15   D(14,2,3,4)          -165.6154         estimate D2E/DX2                !
 ! D16   D(14,2,3,5)            13.8965         estimate D2E/DX2                !
 ! D17   D(1,2,31,33)          160.5937         estimate D2E/DX2                !
 ! D18   D(3,2,31,33)          -35.8474         estimate D2E/DX2                !
 ! D19   D(2,3,5,6)           -179.7112         estimate D2E/DX2                !
 ! D20   D(2,3,5,15)             3.8864         estimate D2E/DX2                !
 ! D21   D(4,3,5,6)             -0.1964         estimate D2E/DX2                !
 ! D22   D(4,3,5,15)          -176.5988         estimate D2E/DX2                !
 ! D23   D(3,5,6,7)            179.5829         estimate D2E/DX2                !
 ! D24   D(3,5,6,16)            58.3677         estimate D2E/DX2                !
 ! D25   D(3,5,6,17)           -59.1221         estimate D2E/DX2                !
 ! D26   D(15,5,6,7)            -3.9598         estimate D2E/DX2                !
 ! D27   D(15,5,6,16)         -125.175          estimate D2E/DX2                !
 ! D28   D(15,5,6,17)          117.3352         estimate D2E/DX2                !
 ! D29   D(3,5,32,33)          -30.7093         estimate D2E/DX2                !
 ! D30   D(6,5,32,33)          152.9642         estimate D2E/DX2                !
 ! D31   D(5,6,7,8)           -179.9635         estimate D2E/DX2                !
 ! D32   D(5,6,7,18)            58.3479         estimate D2E/DX2                !
 ! D33   D(5,6,7,19)           -58.2137         estimate D2E/DX2                !
 ! D34   D(16,6,7,8)           -58.9394         estimate D2E/DX2                !
 ! D35   D(16,6,7,18)          179.372          estimate D2E/DX2                !
 ! D36   D(16,6,7,19)           62.8104         estimate D2E/DX2                !
 ! D37   D(17,6,7,8)            58.7893         estimate D2E/DX2                !
 ! D38   D(17,6,7,18)          -62.8993         estimate D2E/DX2                !
 ! D39   D(17,6,7,19)         -179.461          estimate D2E/DX2                !
 ! D40   D(6,7,8,20)           -60.0367         estimate D2E/DX2                !
 ! D41   D(6,7,8,21)           179.9338         estimate D2E/DX2                !
 ! D42   D(6,7,8,22)            59.8888         estimate D2E/DX2                !
 ! D43   D(18,7,8,20)           61.1989         estimate D2E/DX2                !
 ! D44   D(18,7,8,21)          -58.8305         estimate D2E/DX2                !
 ! D45   D(18,7,8,22)         -178.8755         estimate D2E/DX2                !
 ! D46   D(19,7,8,20)          178.7247         estimate D2E/DX2                !
 ! D47   D(19,7,8,21)           58.6953         estimate D2E/DX2                !
 ! D48   D(19,7,8,22)          -61.3497         estimate D2E/DX2                !
 ! D49   D(1,9,10,11)           -0.5136         estimate D2E/DX2                !
 ! D50   D(1,9,10,24)          179.8829         estimate D2E/DX2                !
 ! D51   D(23,9,10,11)         179.4881         estimate D2E/DX2                !
 ! D52   D(23,9,10,24)          -0.1154         estimate D2E/DX2                !
 ! D53   D(9,10,11,12)           0.9109         estimate D2E/DX2                !
 ! D54   D(9,10,11,25)        -179.4148         estimate D2E/DX2                !
 ! D55   D(24,10,11,12)       -179.4933         estimate D2E/DX2                !
 ! D56   D(24,10,11,25)          0.181          estimate D2E/DX2                !
 ! D57   D(9,10,24,28)         119.1434         estimate D2E/DX2                !
 ! D58   D(9,10,24,29)        -120.8477         estimate D2E/DX2                !
 ! D59   D(9,10,24,30)          -0.8706         estimate D2E/DX2                !
 ! D60   D(11,10,24,28)        -60.4548         estimate D2E/DX2                !
 ! D61   D(11,10,24,29)         59.5542         estimate D2E/DX2                !
 ! D62   D(11,10,24,30)        179.5313         estimate D2E/DX2                !
 ! D63   D(10,11,12,13)         -0.2276         estimate D2E/DX2                !
 ! D64   D(10,11,12,26)        179.0623         estimate D2E/DX2                !
 ! D65   D(25,11,12,13)       -179.9111         estimate D2E/DX2                !
 ! D66   D(25,11,12,26)         -0.6212         estimate D2E/DX2                !
 ! D67   D(11,12,13,1)          -0.863          estimate D2E/DX2                !
 ! D68   D(11,12,13,27)        178.4756         estimate D2E/DX2                !
 ! D69   D(26,12,13,1)         179.8476         estimate D2E/DX2                !
 ! D70   D(26,12,13,27)         -0.8138         estimate D2E/DX2                !
 ! D71   D(14,31,33,32)          9.0061         estimate D2E/DX2                !
 ! D72   D(14,31,33,34)       -170.9601         estimate D2E/DX2                !
 ! D73   D(15,32,33,31)         11.2476         estimate D2E/DX2                !
 ! D74   D(15,32,33,34)       -168.7871         estimate D2E/DX2                !
 ! D75   D(31,33,34,35)       -179.3264         estimate D2E/DX2                !
 ! D76   D(31,33,34,36)         57.1384         estimate D2E/DX2                !
 ! D77   D(31,33,34,37)        -55.6925         estimate D2E/DX2                !
 ! D78   D(32,33,34,35)          0.7057         estimate D2E/DX2                !
 ! D79   D(32,33,34,36)       -122.8295         estimate D2E/DX2                !
 ! D80   D(32,33,34,37)        124.3396         estimate D2E/DX2                !
 ! D81   D(33,34,35,38)        -60.0226         estimate D2E/DX2                !
 ! D82   D(33,34,35,39)       -179.8924         estimate D2E/DX2                !
 ! D83   D(33,34,35,40)         60.2466         estimate D2E/DX2                !
 ! D84   D(36,34,35,38)         61.3698         estimate D2E/DX2                !
 ! D85   D(36,34,35,39)        -58.5            estimate D2E/DX2                !
 ! D86   D(36,34,35,40)       -178.361          estimate D2E/DX2                !
 ! D87   D(37,34,35,38)        178.455          estimate D2E/DX2                !
 ! D88   D(37,34,35,39)         58.5851         estimate D2E/DX2                !
 ! D89   D(37,34,35,40)        -61.2759         estimate D2E/DX2                !
 --------------------------------------------------------------------------------
 Trust Radius=3.00D-01 FncErr=1.00D-07 GrdErr=1.00D-06
 Number of steps in this run=    212 maximum allowed number of steps=    240.
 GradGradGradGradGradGradGradGradGradGradGradGradGradGradGradGradGradGrad

                          Input orientation:                          
 ---------------------------------------------------------------------
 Center     Atomic      Atomic             Coordinates (Angstroms)
 Number     Number       Type             X           Y           Z
 ---------------------------------------------------------------------
      1          6           0       -6.170298    1.403840    0.579290
      2          7           0       -4.954308    0.751343    0.384725
      3          6           0       -3.760602    1.353252    0.034990
      4          8           0       -3.650291    2.567384   -0.183321
      5          7           0       -2.720365    0.502982   -0.038230
      6          6           0       -1.389441    0.975989   -0.388293
      7          6           0       -0.404843   -0.182575   -0.388745
      8          6           0        0.998341    0.287097   -0.751906
      9          6           0       -7.095247    0.794393    1.436384
     10          6           0       -8.344072    1.356773    1.654071
     11          6           0       -8.685090    2.552636    1.020706
     12          6           0       -7.779993    3.158791    0.164410
     13          6           0       -6.534087    2.589829   -0.066159
     14          1           0       -4.893662   -0.204721    0.762221
     15          1           0       -2.864607   -0.501022    0.098838
     16          1           0       -1.069287    1.738958    0.327879
     17          1           0       -1.410183    1.449213   -1.375363
     18          1           0       -0.741980   -0.943103   -1.100157
     19          1           0       -0.400507   -0.652759    0.599680
     20          1           0        1.015753    0.739433   -1.746967
     21          1           0        1.705243   -0.544749   -0.751008
     22          1           0        1.359334    1.033498   -0.039422
     23          1           0       -6.824738   -0.129924    1.933484
     24          6           0       -9.306649    0.667811    2.579662
     25         17           0      -10.238158    3.309494    1.272843
     26          1           0       -8.051651    4.079112   -0.338516
     27          1           0       -5.855287    3.067427   -0.756564
     28          9           0       -9.640405    1.436636    3.631183
     29          9           0      -10.456190    0.338585    1.965088
     30          9           0       -8.804412   -0.467077    3.081199
     31          8           0       -4.829175   -1.860695    1.521342
     32          8           0       -3.019468   -2.368363    0.324806
     33          6           0       -3.953240   -2.675092    1.108866
     34          6           0       -4.064019   -4.110291    1.610828
     35          6           0       -2.984447   -5.053776    1.105564
     36          1           0       -5.058578   -4.469488    1.329056
     37          1           0       -4.063769   -4.066870    2.704173
     38          1           0       -2.996138   -5.123361    0.016035
     39          1           0       -3.134180   -6.058477    1.506839
     40          1           0       -1.990437   -4.717535    1.407441
 ---------------------------------------------------------------------
                    Distance matrix (angstroms):
                    1          2          3          4          5
     1  C    0.000000
     2  N    1.393642   0.000000
     3  C    2.470922   1.381862   0.000000
     4  O    2.878514   2.306760   1.238526   0.000000
     5  N    3.618689   2.287155   1.345516   2.268826   0.000000
     6  C    4.896516   3.654628   2.438012   2.772363   1.455211
     7  C    6.057579   4.708300   3.714758   4.258803   2.440183
     8  C    7.376217   6.077951   4.939983   5.208914   3.792719
     9  C    1.400559   2.385678   3.660066   4.199365   4.625905
    10  C    2.425421   3.669916   4.861033   5.183934   5.934553
    11  C    2.799779   4.191403   5.163404   5.176785   6.395340
    12  C    2.417250   3.718714   4.408200   4.186301   5.717886
    13  C    1.398399   2.465568   3.038351   2.886262   4.347434
    14  H    2.061730   1.029680   2.059119   3.181916   2.421731
    15  H    3.845376   2.452958   2.060392   3.179942   1.023531
    16  H    5.118185   4.008990   2.734543   2.758477   2.094691
    17  H    5.146010   4.018178   2.742768   2.772969   2.097584
    18  H    6.147790   4.777001   3.959026   4.649988   2.670742
    19  H    6.125398   4.770201   3.953883   4.641499   2.669159
    20  H    7.582363   6.339234   5.134755   5.249606   4.115127
    21  H    8.221364   6.878908   5.839149   6.220079   4.603455
    22  H    7.564080   6.334161   5.130450   5.241169   4.114049
    23  H    2.148154   2.583368   3.897822   4.672627   4.597184
    24  C    3.792087   4.875202   6.140344   6.575472   7.089404
    25  Cl   4.545330   5.937336   6.878801   6.787572   8.130967
    26  H    3.396902   4.603331   5.097345   4.656327   6.426624
    27  H    2.156678   2.734693   2.820047   2.332522   4.113408
    28  F    4.621339   5.741831   6.892869   7.191001   7.888172
    29  F    4.628615   5.739217   7.041713   7.476862   7.992702
    30  F    4.086372   4.855802   6.167090   6.813957   6.905612
    31  O    3.652842   2.851368   3.698722   4.889123   3.530766
    32  O    4.921586   3.671480   3.805745   5.001773   2.909619
    33  C    4.672630   3.642386   4.173472   5.407872   3.596659
    34  C    5.992171   5.092292   5.694351   6.926867   5.080067
    35  C    7.219931   6.172469   6.542060   7.758006   5.679397
    36  H    6.024454   5.306573   6.104396   7.334039   5.662346
    37  H    6.235483   5.421077   6.049311   7.247200   5.496276
    38  H    7.279896   6.203428   6.521601   7.721089   5.633358
    39  H    8.109533   7.137623   7.582379   8.805027   6.753608
    40  H    7.458438   6.303896   6.470823   7.639089   5.465945
                    6          7          8          9         10
     6  C    0.000000
     7  C    1.520428   0.000000
     8  C    2.511631   1.523616   0.000000
     9  C    5.993217   7.003361   8.399532   0.000000
    10  C    7.258316   8.341106   9.706370   1.386803   0.000000
    11  C    7.595893   8.833483  10.101666   2.406617   1.395540
    12  C    6.775638   8.115636   9.281456   2.770771   2.405108
    13  C    5.401447   6.734828   7.906345   2.407515   2.784900
    14  H    3.872638   4.634081   6.103292   2.509920   3.890886
    15  H    2.143589   2.527763   4.033270   4.622277   5.991218
    16  H    1.094314   2.155766   2.747531   6.199450   7.404549
    17  H    1.094842   2.155656   2.745943   6.376101   7.567354
    18  H    2.146828   1.094610   2.159488   7.058112   8.406368
    19  H    2.146369   1.094567   2.160299   6.900281   8.261368
    20  H    2.772527   2.170935   1.093187   8.713499   9.977700
    21  H    3.467171   2.171375   1.091640   9.166603  10.506614
    22  H    2.771422   2.170986   1.093190   8.585751   9.855380
    23  H    6.012998   6.827193   8.281654   1.083811   2.143996
    24  C    8.460846   9.422141  10.836840   2.492670   1.502644
    25  Cl   9.300775  10.566433  11.810733   4.028693   2.747001
    26  H    7.349619   8.754323   9.821031   3.854135   3.386302
    27  H    4.945050   6.356504   7.396113   3.393111   3.864136
    28  F    9.189494  10.201827  11.563557   3.421615   2.365550
    29  F    9.388856  10.336426  11.772467   3.432670   2.365265
    30  F    8.312738   9.092536  10.552509   2.686628   2.361151
    31  O    4.850283   5.102865   6.613668   3.491675   4.766993
    32  O    3.788165   3.481823   4.934934   5.277367   6.632872
    33  C    4.705841   4.587658   6.062606   4.692206   5.986032
    34  C    6.084414   5.728422   7.109643   5.768423   6.943307
    35  C    6.413557   5.711034   6.916482   7.156060   8.373863
    36  H    6.787125   6.556349   7.977579   5.645174   6.696673
    37  H    6.491980   6.167790   7.518409   5.867625   6.988534
    38  H    6.320366   5.593748   6.768947   7.337568   8.560123
    39  H    7.491285   6.750463   7.902276   7.915608   9.063696
    40  H    6.000172   5.128962   6.216262   7.512741   8.793561
                   11         12         13         14         15
    11  C    0.000000
    12  C    1.385593   0.000000
    13  C    2.410285   1.388943   0.000000
    14  H    4.695184   4.472303   3.344655   0.000000
    15  H    6.637220   6.128585   4.800590   2.155211   0.000000
    16  H    7.690418   6.861211   5.544662   4.311888   2.879782
    17  H    7.738408   6.772595   5.410121   4.409013   2.844651
    18  H    8.933714   8.243682   6.862891   4.609786   2.477615
    19  H    8.893039   8.317103   6.969830   4.518363   2.519059
    20  H   10.249589   9.320504   7.952934   6.489117   4.472462
    21  H   10.985981  10.223693   8.842011   6.778719   4.648407
    22  H   10.213819   9.385399   8.045432   6.424623   4.496170
    23  H    3.389720   3.854579   3.388231   2.259757   4.380214
    24  C    2.523735   3.790659   4.287379   4.851686   7.001468
    25  Cl   1.745975   2.700724   4.003872   6.416703   8.382575
    26  H    2.139827   1.083385   2.143629   5.434680   6.933566
    27  H    3.381048   2.135657   1.079596   3.733415   4.733889
    28  F    2.995441   4.294818   4.964817   5.784165   7.883110
    29  F    2.988423   4.284627   4.957515   5.716973   7.862566
    30  F    3.657668   4.764872   4.940133   4.554169   6.646571
    31  O    5.881854   5.978614   5.023350   1.822820   2.780603
    32  O    7.536563   7.296421   6.090080   2.895735   1.887328
    33  C    7.051759   7.040612   5.980037   2.665950   2.632842
    34  C    8.130014   8.290968   7.335198   4.081902   4.092863
    35  C    9.505894   9.556635   8.508676   5.222673   4.664271
    36  H    7.909292   8.182490   7.345592   4.305431   4.698475
    37  H    8.246728   8.512983   7.621604   4.401828   4.576137
    38  H    9.607001   9.565632   8.486291   5.324510   4.624951
    39  H   10.256715  10.408829   9.424802   6.157654   5.739377
    40  H    9.890567   9.853963   8.730053   5.404675   4.500622
                   16         17         18         19         20
    16  H    0.000000
    17  H    1.761021   0.000000
    18  H    3.056120   2.499082   0.000000
    19  H    2.498290   3.055901   1.757939   0.000000
    20  H    3.106675   2.554807   2.517720   3.074206   0.000000
    21  H    3.751977   3.751211   2.503895   2.504038   1.765348
    22  H    2.555540   3.102867   3.073700   2.519713   1.766418
    23  H    6.260663   6.539078   6.845742   6.582031   8.704872
    24  C    8.606509   8.866058   9.459898   9.218655  11.192713
    25  Cl   9.350279   9.402488  10.672072  10.626946  11.932098
    26  H    7.394174   7.218069   8.901351   9.044934   9.764989
    27  H    5.083959   4.770795   6.507559   6.740461   7.321997
    28  F    9.190608   9.633391  10.355227   9.946422  11.956768
    29  F    9.630962   9.706820  10.266661  10.196267  12.064224
    30  F    8.501736   8.843514   9.094677   8.764590  11.009200
    31  O    5.340281   5.570987   4.941599   4.682058   7.183710
    32  O    4.546790   4.478199   3.041191   3.142899   5.498514
    33  C    5.330193   5.445037   4.265181   4.119589   6.671256
    34  C    6.695378   6.846040   5.330710   5.137924   7.784516
    35  C    7.100272   7.135977   5.176050   5.128510   7.596039
    36  H    7.447254   7.460274   6.080254   6.066056   8.572763
    37  H    6.951355   7.356039   5.938446   5.431808   8.289436
    38  H    7.134523   6.902896   4.878696   5.202328   7.319549
    39  H    8.151915   8.224638   6.219815   6.125169   8.603533
    40  H    6.610618   6.790396   4.700322   4.438779   6.983264
                   21         22         23         24         25
    21  H    0.000000
    22  H    1.765466   0.000000
    23  H    8.952047   8.498526   0.000000
    24  C   11.568294  10.988927   2.685854   0.000000
    25  Cl  12.712041  11.891342   4.890550   3.090950   0.000000
    26  H   10.804963   9.896053   4.937943   4.661304   2.823048
    27  H    8.379109   7.530068   4.289434   5.366605   4.835974
    28  F   12.322874  11.603022   3.642016   1.344686   3.070288
    29  F   12.492314  12.004481   3.661686   1.344446   3.058274
    30  F   11.186809  10.737399   2.313014   1.338564   4.425863
    31  O    7.042294   7.007851   2.673518   5.249872   7.486635
    32  O    5.177436   5.556909   4.698780   7.336986   9.232893
    33  C    6.325815   6.579943   3.924712   6.480526   8.679997
    34  C    7.181626   7.654714   4.854791   7.159195   9.658542
    35  C    6.765455   7.565338   6.299016   8.653309  11.071973
    36  H    8.091942   8.564180   4.724031   6.782475   9.345789
    37  H    7.591121   7.934174   4.869954   7.065444   9.725354
    38  H    6.607195   7.541891   6.577932   8.940492  11.186575
    39  H    7.675877   8.536902   6.996427   9.192023  11.759258
    40  H    5.977383   6.810930   6.685309   9.159859  11.509831
                   26         27         28         29         30
    26  H    0.000000
    27  H    2.454035   0.000000
    28  F    5.026463   6.019877   0.000000
    29  F    5.007987   6.001856   2.155711   0.000000
    30  F    5.738374   5.993203   2.150695   2.150155   0.000000
    31  O    7.008904   5.525228   6.202561   6.057808   4.491974
    32  O    8.205657   6.225677   8.321476   8.082259   6.684173
    33  C    8.031884   6.330413   7.457361   7.218290   5.683246
    34  C    9.314906   7.767421   8.120734   7.796015   6.156811
    35  C   10.543793   8.812672   9.633586   9.254365   7.668959
    36  H    9.209661   7.860639   7.821460   7.256467   5.755048
    37  H    9.566514   8.129233   7.889664   7.798546   5.964423
    38  H   10.505686   8.709802  10.012449   9.449023   8.050606
    39  H   11.417424   9.788235  10.149903   9.733665   8.117506
    40  H   10.824402   8.956876  10.066820   9.876451   8.203543
                   31         32         33         34         35
    31  O    0.000000
    32  O    2.228107   0.000000
    33  C    1.265164   1.257284   0.000000
    34  C    2.377847   2.404007   1.524479   0.000000
    35  C    3.711018   2.796828   2.568406   1.520174   0.000000
    36  H    2.625910   3.095353   2.118989   1.094333   2.166416
    37  H    2.617660   3.104332   2.119969   1.094207   2.166673
    38  H    4.033728   2.772345   2.846813   2.170264   1.091811
    39  H    4.527096   3.876506   3.503790   2.161213   1.092184
    40  H    4.029012   2.783812   2.848389   2.170219   1.091899
                   36         37         38         39         40
    36  H    0.000000
    37  H    1.744331   0.000000
    38  H    2.530856   3.079301   0.000000
    39  H    2.501959   2.502848   1.765218   0.000000
    40  H    3.079149   2.530531   1.764125   1.765263   0.000000
 Stoichiometry    C14H17ClF3N2O3(1-)
 Framework group  C1[X(C14H17ClF3N2O3)]
 Deg. of freedom   114
 Full point group                 C1      NOp   1
 Largest Abelian subgroup         C1      NOp   1
 Largest concise Abelian subgroup C1      NOp   1
                         Standard orientation:                         
 ---------------------------------------------------------------------
 Center     Atomic      Atomic             Coordinates (Angstroms)
 Number     Number       Type             X           Y           Z
 ---------------------------------------------------------------------
      1          6           0        0.731760   -0.936739   -0.217768
      2          7           0       -0.650751   -0.762340   -0.195755
      3          6           0       -1.587266   -1.753405    0.028463
      4          8           0       -1.289224   -2.942705    0.203624
      5          7           0       -2.857578   -1.310417    0.050417
      6          6           0       -3.965880   -2.224741    0.281328
      7          6           0       -5.283257   -1.465807    0.265890
      8          6           0       -6.461112   -2.401819    0.506605
      9          6           0        1.523452    0.173850    0.100638
     10          6           0        2.907646    0.097034    0.064187
     11          6           0        3.525709   -1.104800   -0.283844
     12          6           0        2.751029   -2.206722   -0.608661
     13          6           0        1.364494   -2.127995   -0.586655
     14          1           0       -0.978115    0.209292   -0.100867
     15          1           0       -3.064592   -0.328378   -0.150484
     16          1           0       -3.834621   -2.727106    1.244616
     17          1           0       -3.973587   -3.002523   -0.489175
     18          1           0       -5.397226   -0.959199   -0.697712
     19          1           0       -5.259253   -0.685724    1.033335
     20          1           0       -6.512729   -3.174454   -0.265034
     21          1           0       -7.406705   -1.856446    0.496620
     22          1           0       -6.373763   -2.902030    1.474709
     23          1           0        1.040958    1.103659    0.378668
     24          6           0        3.718386    1.313790    0.410805
     25         17           0        5.264317   -1.258225   -0.330009
     26          1           0        3.231937   -3.134808   -0.893455
     27          1           0        0.782165   -2.992569   -0.867601
     28          9           0        4.513908    1.109047    1.475421
     29          9           0        4.519705    1.695806   -0.598892
     30          9           0        2.949385    2.368713    0.706656
     31          8           0       -1.487041    1.942079    0.146351
     32          8           0       -3.558569    1.456329   -0.514921
     33          6           0       -2.663289    2.273520   -0.181103
     34          6           0       -2.984269    3.763684   -0.160601
     35          6           0       -4.411397    4.119796   -0.544554
     36          1           0       -2.267691    4.252185   -0.828020
     37          1           0       -2.748277    4.127148    0.844133
     38          1           0       -4.645749    3.784121   -1.556706
     39          1           0       -4.560414    5.201132   -0.507520
     40          1           0       -5.131787    3.659235    0.134538
 ---------------------------------------------------------------------
 Rotational constants (GHZ):      0.3276807      0.1062732      0.0828889
 Standard basis: 6-311+G(d) (5D, 7F)
 There are   588 symmetry adapted cartesian basis functions of A   symmetry.
 There are   565 symmetry adapted basis functions of A   symmetry.
   565 basis functions,   930 primitive gaussians,   588 cartesian basis functions
    92 alpha electrons       92 beta electrons
       nuclear repulsion energy      2102.9214963443 Hartrees.
 NAtoms=   40 NActive=   40 NUniq=   40 SFac= 1.00D+00 NAtFMM=   60 NAOKFM=F Big=F
 Integral buffers will be    131072 words long.
 Raffenetti 2 integral format.
 Two-electron integral symmetry is turned on.
 Nuclear repulsion after empirical dispersion term =     2102.9191049443 Hartrees.
 ------------------------------------------------------------------------------
 Polarizable Continuum Model (PCM)
 =================================
 Model                : PCM (using non-symmetric T matrix).
 Atomic radii         : SMD-Coulomb.
 Polarization charges : Total charges.
 Charge compensation  : None.
 Solution method      : On-the-fly selection.
 Cavity type          : VdW (van der Waals Surface) (Alpha=1.000).
 Cavity algorithm     : GePol (No added spheres)
                        Default sphere list used, NSphG=   40.
                        Lebedev-Laikov grids with approx.  5.0 points / Ang**2.
                        Smoothing algorithm: York/Karplus (Gamma=1.0000).
                        Polarization charges: spherical gaussians, with
                                              point-specific exponents (IZeta= 3).
                        Self-potential: point-specific (ISelfS= 7).
                        Self-field    : sphere-specific E.n sum rule (ISelfD= 2).
 1st derivatives      : Analytical E(r).r(x)/FMM algorithm (CHGder, D1EAlg=3).
                        Cavity 1st derivative terms included.
 Solvent              : Water, Eps=  78.355300 Eps(inf)=   1.777849
 ------------------------------------------------------------------------------
 ------------------------------------------------------------------------------
 Atomic radii for non-electrostatic terms: SMD-CDS.
 ------------------------------------------------------------------------------
 Nuclear repulsion after PCM non-electrostatic terms =     2102.9336977337 Hartrees.
 One-electron integrals computed using PRISM.
 NBasis=   565 RedAO= T EigKep=  1.43D-06  NBF=   565
 NBsUse=   563 1.00D-06 EigRej=  9.51D-07 NBFU=   563
 ExpMin= 4.38D-02 ExpMax= 1.06D+05 ExpMxC= 3.62D+03 IAcc=3 IRadAn=         5 AccDes= 0.00D+00
 Harris functional with IExCor= 1009 and IRadAn=       5 diagonalized for initial guess.
 HarFok:  IExCor= 1009 AccDes= 0.00D+00 IRadAn=         5 IDoV= 1 UseB2=F ITyADJ=14
 ICtDFT=  3500011 ScaDFX=  1.000000  1.000000  1.000000  1.000000
 FoFCou: FMM=F IPFlag=           0 FMFlag=      100000 FMFlg1=           0
         NFxFlg=           0 DoJE=T BraDBF=F KetDBF=T FulRan=T
         wScrn=  0.000000 ICntrl=     500 IOpCl=  0 I1Cent=   200000004 NGrid=           0
         NMat0=    1 NMatS0=      1 NMatT0=    0 NMatD0=    1 NMtDS0=    0 NMtDT0=    0
 Petite list used in FoFCou.
 Requested convergence on RMS density matrix=1.00D-08 within 128 cycles.
 Requested convergence on MAX density matrix=1.00D-06.
 Requested convergence on             energy=1.00D-06.
 No special actions if energy rises.
 Inv3:  Mode=1 IEnd=    29072307.
 Iteration    1 A*A^-1 deviation from unit magnitude is 6.11D-15 for   3088.
 Iteration    1 A*A^-1 deviation from orthogonality  is 6.80D-15 for   3107   1262.
 Iteration    1 A^-1*A deviation from unit magnitude is 5.88D-15 for   3103.
 Iteration    1 A^-1*A deviation from orthogonality  is 1.45D-10 for   2032   1981.
 Iteration    2 A*A^-1 deviation from unit magnitude is 3.44D-15 for    356.
 Iteration    2 A*A^-1 deviation from orthogonality  is 1.03D-14 for   3107   1262.
 Iteration    2 A^-1*A deviation from unit magnitude is 1.33D-15 for    322.
 Iteration    2 A^-1*A deviation from orthogonality  is 8.19D-16 for   3084   1131.
 Error on total polarization charges =  0.05995
 SCF Done:  E(RM062X) =  -1638.74575352     A.U. after   15 cycles
            NFock= 15  Conv=0.35D-08     -V/T= 2.0030
 SMD-CDS (non-electrostatic) energy       (kcal/mol) =       9.16
 (included in total energy above)

 **********************************************************************

            Population analysis using the SCF density.

 **********************************************************************

 Orbital symmetries:
       Occupied  (A) (A) (A) (A) (A) (A) (A) (A) (A) (A) (A) (A)
                 (A) (A) (A) (A) (A) (A) (A) (A) (A) (A) (A) (A)
                 (A) (A) (A) (A) (A) (A) (A) (A) (A) (A) (A) (A)
                 (A) (A) (A) (A) (A) (A) (A) (A) (A) (A) (A) (A)
                 (A) (A) (A) (A) (A) (A) (A) (A) (A) (A) (A) (A)
                 (A) (A) (A) (A) (A) (A) (A) (A) (A) (A) (A) (A)
                 (A) (A) (A) (A) (A) (A) (A) (A) (A) (A) (A) (A)
                 (A) (A) (A) (A) (A) (A) (A) (A)
       Virtual   (A) (A) (A) (A) (A) (A) (A) (A) (A) (A) (A) (A)
                 (A) (A) (A) (A) (A) (A) (A) (A) (A) (A) (A) (A)
                 (A) (A) (A) (A) (A) (A) (A) (A) (A) (A) (A) (A)
                 (A) (A) (A) (A) (A) (A) (A) (A) (A) (A) (A) (A)
                 (A) (A) (A) (A) (A) (A) (A) (A) (A) (A) (A) (A)
                 (A) (A) (A) (A) (A) (A) (A) (A) (A) (A) (A) (A)
                 (A) (A) (A) (A) (A) (A) (A) (A) (A) (A) (A) (A)
                 (A) (A) (A) (A) (A) (A) (A) (A) (A) (A) (A) (A)
                 (A) (A) (A) (A) (A) (A) (A) (A) (A) (A) (A) (A)
                 (A) (A) (A) (A) (A) (A) (A) (A) (A) (A) (A) (A)
                 (A) (A) (A) (A) (A) (A) (A) (A) (A) (A) (A) (A)
                 (A) (A) (A) (A) (A) (A) (A) (A) (A) (A) (A) (A)
                 (A) (A) (A) (A) (A) (A) (A) (A) (A) (A) (A) (A)
                 (A) (A) (A) (A) (A) (A) (A) (A) (A) (A) (A) (A)
                 (A) (A) (A) (A) (A) (A) (A) (A) (A) (A) (A) (A)
                 (A) (A) (A) (A) (A) (A) (A) (A) (A) (A) (A) (A)
                 (A) (A) (A) (A) (A) (A) (A) (A) (A) (A) (A) (A)
                 (A) (A) (A) (A) (A) (A) (A) (A) (A) (A) (A) (A)
                 (A) (A) (A) (A) (A) (A) (A) (A) (A) (A) (A) (A)
                 (A) (A) (A) (A) (A) (A) (A) (A) (A) (A) (A) (A)
                 (A) (A) (A) (A) (A) (A) (A) (A) (A) (A) (A) (A)
                 (A) (A) (A) (A) (A) (A) (A) (A) (A) (A) (A) (A)
                 (A) (A) (A) (A) (A) (A) (A) (A) (A) (A) (A) (A)
                 (A) (A) (A) (A) (A) (A) (A) (A) (A) (A) (A) (A)
                 (A) (A) (A) (A) (A) (A) (A) (A) (A) (A) (A) (A)
                 (A) (A) (A) (A) (A) (A) (A) (A) (A) (A) (A) (A)
                 (A) (A) (A) (A) (A) (A) (A) (A) (A) (A) (A) (A)
                 (A) (A) (A) (A) (A) (A) (A) (A) (A) (A) (A) (A)
                 (A) (A) (A) (A) (A) (A) (A) (A) (A) (A) (A) (A)
                 (A) (A) (A) (A) (A) (A) (A) (A) (A) (A) (A) (A)
                 (A) (A) (A) (A) (A) (A) (A) (A) (A) (A) (A) (A)
                 (A) (A) (A) (A) (A) (A) (A) (A) (A) (A) (A) (A)
                 (A) (A) (A) (A) (A) (A) (A) (A) (A) (A) (A) (A)
                 (A) (A) (A) (A) (A) (A) (A) (A) (A) (A) (A) (A)
                 (A) (A) (A) (A) (A) (A) (A) (A) (A) (A) (A) (A)
                 (A) (A) (A) (A) (A) (A) (A) (A) (A) (A) (A) (A)
                 (A) (A) (A) (A) (A) (A) (A) (A) (A) (A) (A) (A)
                 (A) (A) (A) (A) (A) (A) (A) (A) (A) (A) (A) (A)
                 (A) (A) (A) (A) (A) (A) (A) (A) (A) (A) (A) (A)
                 (A) (A) (A)
 The electronic state is 1-A.
 Alpha  occ. eigenvalues -- -102.68637 -25.28700 -25.28336 -25.28331 -19.59220
 Alpha  occ. eigenvalues --  -19.57891 -19.57595 -14.76970 -14.75430 -10.81301
 Alpha  occ. eigenvalues --  -10.67416 -10.63843 -10.61925 -10.60511 -10.58785
 Alpha  occ. eigenvalues --  -10.56474 -10.56302 -10.56078 -10.55584 -10.52673
 Alpha  occ. eigenvalues --  -10.52444 -10.51542 -10.51338  -9.82914  -7.55427
 Alpha  occ. eigenvalues --   -7.54749  -7.54741  -1.47935  -1.38539  -1.38196
 Alpha  occ. eigenvalues --   -1.17692  -1.16658  -1.06820  -1.05598  -1.02602
 Alpha  occ. eigenvalues --   -1.00815  -0.94529  -0.90041  -0.87758  -0.85731
 Alpha  occ. eigenvalues --   -0.84260  -0.81400  -0.77240  -0.74234  -0.72232
 Alpha  occ. eigenvalues --   -0.72041  -0.70269  -0.69405  -0.69245  -0.67961
 Alpha  occ. eigenvalues --   -0.64430  -0.62994  -0.59632  -0.58898  -0.58505
 Alpha  occ. eigenvalues --   -0.58318  -0.56862  -0.55753  -0.55283  -0.54240
 Alpha  occ. eigenvalues --   -0.54144  -0.53448  -0.52945  -0.52794  -0.52169
 Alpha  occ. eigenvalues --   -0.51764  -0.51246  -0.50808  -0.50331  -0.49006
 Alpha  occ. eigenvalues --   -0.48224  -0.46480  -0.46251  -0.45549  -0.45444
 Alpha  occ. eigenvalues --   -0.44310  -0.43762  -0.42289  -0.41727  -0.41459
 Alpha  occ. eigenvalues --   -0.39666  -0.39459  -0.38937  -0.38824  -0.36828
 Alpha  occ. eigenvalues --   -0.35914  -0.33967  -0.33411  -0.32862  -0.32445
 Alpha  occ. eigenvalues --   -0.32017  -0.27182
 Alpha virt. eigenvalues --   -0.00841   0.00351   0.01320   0.02062   0.02689
 Alpha virt. eigenvalues --    0.02931   0.03355   0.03733   0.04150   0.04531
 Alpha virt. eigenvalues --    0.04876   0.05302   0.05377   0.06003   0.06414
 Alpha virt. eigenvalues --    0.06555   0.07037   0.07133   0.07279   0.07865
 Alpha virt. eigenvalues --    0.08155   0.08498   0.08620   0.08935   0.09233
 Alpha virt. eigenvalues --    0.09442   0.09829   0.10046   0.10395   0.10862
 Alpha virt. eigenvalues --    0.11339   0.11910   0.12356   0.12567   0.12700
 Alpha virt. eigenvalues --    0.13317   0.13606   0.14065   0.14400   0.14806
 Alpha virt. eigenvalues --    0.15491   0.15752   0.16342   0.16880   0.17109
 Alpha virt. eigenvalues --    0.17580   0.17918   0.18002   0.18564   0.19413
 Alpha virt. eigenvalues --    0.19770   0.20033   0.20104   0.20455   0.20950
 Alpha virt. eigenvalues --    0.21173   0.21226   0.21473   0.21709   0.22279
 Alpha virt. eigenvalues --    0.22798   0.22992   0.23103   0.23422   0.23557
 Alpha virt. eigenvalues --    0.24101   0.24376   0.24741   0.25030   0.25241
 Alpha virt. eigenvalues --    0.25347   0.25829   0.26132   0.26434   0.26631
 Alpha virt. eigenvalues --    0.27059   0.27352   0.27670   0.28077   0.28125
 Alpha virt. eigenvalues --    0.28399   0.28513   0.28798   0.29002   0.29231
 Alpha virt. eigenvalues --    0.29653   0.30135   0.30545   0.30843   0.31206
 Alpha virt. eigenvalues --    0.31735   0.32161   0.32337   0.32581   0.32868
 Alpha virt. eigenvalues --    0.33021   0.33588   0.33646   0.33887   0.34165
 Alpha virt. eigenvalues --    0.34494   0.34731   0.35194   0.36233   0.36695
 Alpha virt. eigenvalues --    0.36961   0.37462   0.37760   0.38108   0.38716
 Alpha virt. eigenvalues --    0.38807   0.39044   0.39861   0.40023   0.41056
 Alpha virt. eigenvalues --    0.42121   0.42753   0.43392   0.43910   0.44256
 Alpha virt. eigenvalues --    0.44900   0.45003   0.45484   0.46034   0.46442
 Alpha virt. eigenvalues --    0.46554   0.47052   0.47900   0.49031   0.49769
 Alpha virt. eigenvalues --    0.50212   0.50621   0.50929   0.51557   0.51720
 Alpha virt. eigenvalues --    0.52967   0.53515   0.54722   0.55103   0.56052
 Alpha virt. eigenvalues --    0.56314   0.57373   0.58037   0.58412   0.58787
 Alpha virt. eigenvalues --    0.60547   0.61339   0.61621   0.62024   0.62518
 Alpha virt. eigenvalues --    0.64173   0.64754   0.65211   0.65981   0.66177
 Alpha virt. eigenvalues --    0.67081   0.67726   0.68686   0.68977   0.70026
 Alpha virt. eigenvalues --    0.70516   0.70933   0.71219   0.71478   0.72031
 Alpha virt. eigenvalues --    0.72452   0.73025   0.73449   0.73783   0.74150
 Alpha virt. eigenvalues --    0.74649   0.75133   0.75392   0.76237   0.76770
 Alpha virt. eigenvalues --    0.77503   0.78491   0.78699   0.79110   0.79761
 Alpha virt. eigenvalues --    0.80181   0.80477   0.81073   0.81656   0.82066
 Alpha virt. eigenvalues --    0.83529   0.84715   0.85370   0.88093   0.88906
 Alpha virt. eigenvalues --    0.89945   0.90284   0.90849   0.93445   0.93757
 Alpha virt. eigenvalues --    0.94084   0.94712   0.95709   0.96022   0.96863
 Alpha virt. eigenvalues --    0.97111   0.97559   0.98460   0.99298   1.01283
 Alpha virt. eigenvalues --    1.02841   1.04022   1.04563   1.05361   1.05609
 Alpha virt. eigenvalues --    1.06953   1.08066   1.09757   1.10578   1.11170
 Alpha virt. eigenvalues --    1.11859   1.12775   1.14349   1.16307   1.17286
 Alpha virt. eigenvalues --    1.17896   1.19342   1.20739   1.21157   1.22551
 Alpha virt. eigenvalues --    1.23437   1.23912   1.24841   1.25852   1.27322
 Alpha virt. eigenvalues --    1.28016   1.29167   1.29756   1.30760   1.32695
 Alpha virt. eigenvalues --    1.33362   1.34501   1.35852   1.37680   1.39000
 Alpha virt. eigenvalues --    1.40309   1.40844   1.41304   1.43616   1.45453
 Alpha virt. eigenvalues --    1.46527   1.47031   1.48388   1.48854   1.49893
 Alpha virt. eigenvalues --    1.50769   1.50960   1.53227   1.53334   1.53656
 Alpha virt. eigenvalues --    1.54084   1.54862   1.57462   1.57932   1.57999
 Alpha virt. eigenvalues --    1.58937   1.59665   1.60361   1.62162   1.62329
 Alpha virt. eigenvalues --    1.62957   1.63427   1.64737   1.65249   1.67257
 Alpha virt. eigenvalues --    1.68008   1.69654   1.70415   1.73354   1.74866
 Alpha virt. eigenvalues --    1.75231   1.76316   1.77366   1.79104   1.79129
 Alpha virt. eigenvalues --    1.79847   1.80576   1.80696   1.82285   1.82786
 Alpha virt. eigenvalues --    1.85589   1.85739   1.86854   1.88035   1.88234
 Alpha virt. eigenvalues --    1.88821   1.92196   1.93297   1.95174   1.96616
 Alpha virt. eigenvalues --    1.97005   1.98023   1.98990   2.00142   2.02192
 Alpha virt. eigenvalues --    2.04390   2.05842   2.08873   2.08984   2.11429
 Alpha virt. eigenvalues --    2.14057   2.15961   2.17237   2.17335   2.20520
 Alpha virt. eigenvalues --    2.22949   2.24861   2.27626   2.29076   2.31532
 Alpha virt. eigenvalues --    2.31843   2.32659   2.35976   2.37513   2.38689
 Alpha virt. eigenvalues --    2.43229   2.45017   2.48355   2.50598   2.54817
 Alpha virt. eigenvalues --    2.55187   2.56342   2.56831   2.57384   2.58871
 Alpha virt. eigenvalues --    2.59393   2.60000   2.60898   2.61255   2.61893
 Alpha virt. eigenvalues --    2.62601   2.66387   2.66952   2.68303   2.70503
 Alpha virt. eigenvalues --    2.72423   2.74022   2.76669   2.80977   2.82655
 Alpha virt. eigenvalues --    2.85060   2.85679   2.88525   2.90810   2.92631
 Alpha virt. eigenvalues --    2.94210   2.94943   2.96059   2.98169   2.99517
 Alpha virt. eigenvalues --    3.00605   3.01136   3.02017   3.03074   3.04105
 Alpha virt. eigenvalues --    3.04897   3.07793   3.09513   3.10401   3.11193
 Alpha virt. eigenvalues --    3.13677   3.16048   3.18960   3.21632   3.22540
 Alpha virt. eigenvalues --    3.25025   3.25869   3.26756   3.28885   3.30675
 Alpha virt. eigenvalues --    3.31360   3.31897   3.34335   3.36173   3.39227
 Alpha virt. eigenvalues --    3.39661   3.40223   3.40742   3.41998   3.42602
 Alpha virt. eigenvalues --    3.45354   3.45400   3.52980   3.58972   3.62338
 Alpha virt. eigenvalues --    3.67970   3.69579   3.70121   3.75572   3.76390
 Alpha virt. eigenvalues --    3.79756   3.81723   3.83515   3.83833   3.83892
 Alpha virt. eigenvalues --    3.86105   3.86679   3.87852   3.88543   3.97280
 Alpha virt. eigenvalues --    4.00172   4.01391   4.02049   4.02888   4.06180
 Alpha virt. eigenvalues --    4.07974   4.08238   4.11961   4.19868   4.21540
 Alpha virt. eigenvalues --    4.22361   4.26949   4.31068   4.63451   4.67315
 Alpha virt. eigenvalues --    4.76655   4.82052   4.92470   4.97811   5.01732
 Alpha virt. eigenvalues --    5.19886   5.20287   5.21181   5.22239   5.38777
 Alpha virt. eigenvalues --    5.40408   5.42399   5.74114   5.89371   6.01238
 Alpha virt. eigenvalues --    6.44651   6.48472   6.50180   6.52769   6.55662
 Alpha virt. eigenvalues --    6.57232   6.63266   6.86508   6.90920   9.99918
 Alpha virt. eigenvalues --   23.44823  23.61160  23.63554  23.65839  23.76046
 Alpha virt. eigenvalues --   23.81850  23.83185  23.93580  23.94581  23.95122
 Alpha virt. eigenvalues --   23.96684  24.08470  24.12964  24.20070  25.95862
 Alpha virt. eigenvalues --   26.29625  26.80786  35.64490  35.73356  50.06298
 Alpha virt. eigenvalues --   50.14785  50.15198  66.88288  66.91348  66.96753
 Alpha virt. eigenvalues --  216.10868
          Condensed to atoms (all electrons):
               1          2          3          4          5          6
     1  C   15.311680   0.103667  -0.993478   0.003327  -0.286853  -0.474350
     2  N    0.103667   7.906846   0.381647  -0.135766  -0.445086  -0.383464
     3  C   -0.993478   0.381647   7.589425   0.674065   0.264070  -1.058961
     4  O    0.003327  -0.135766   0.674065   8.328743  -0.165153  -0.101413
     5  N   -0.286853  -0.445086   0.264070  -0.165153   7.798968   0.420021
     6  C   -0.474350  -0.383464  -1.058961  -0.101413   0.420021   8.235969
     7  C   -0.028986   0.031288   0.207018   0.019912  -0.057908  -0.915237
     8  C   -0.011475  -0.015491  -0.209279  -0.001286  -0.043694   0.324209
     9  C    0.456979  -0.098666   0.073991  -0.005290   0.004838   0.029471
    10  C   -3.559374  -0.018893  -0.330108  -0.027740   0.030124  -0.021136
    11  C    1.020400  -0.065983   0.383637   0.009616   0.008822   0.011085
    12  C    0.810731   0.105479  -0.697045  -0.035682  -0.031407  -0.046509
    13  C   -3.484845  -0.102500  -0.198040   0.004539  -0.055413  -0.117336
    14  H   -0.033508   0.144468  -0.055204  -0.005354   0.033389   0.011769
    15  H   -0.004024   0.036312  -0.011453  -0.006805   0.160083  -0.037092
    16  H    0.004611   0.012583   0.073557   0.001932  -0.054769   0.326438
    17  H    0.009338  -0.001114   0.016088  -0.000026  -0.062222   0.425689
    18  H    0.000767  -0.000070   0.011193  -0.000146   0.009058  -0.075214
    19  H   -0.000252  -0.001008   0.001126  -0.000243   0.010893  -0.072709
    20  H   -0.000166   0.000008  -0.000811  -0.000031   0.000714  -0.045845
    21  H    0.000121   0.000008   0.005575   0.000011  -0.001586   0.084394
    22  H   -0.000015  -0.000078  -0.003518  -0.000030  -0.000020  -0.032714
    23  H   -0.059086  -0.023985   0.002686  -0.000022  -0.000680  -0.000618
    24  C   -2.699962  -0.003463  -0.241749  -0.003698   0.001534  -0.007302
    25  Cl   0.154085   0.000728  -0.005763   0.000055   0.000608   0.000077
    26  H    0.007877  -0.001385   0.002430   0.000057   0.000040   0.000013
    27  H   -0.060046  -0.008593   0.028655  -0.008296  -0.000820   0.002949
    28  F    0.027356   0.000321   0.000539   0.000000  -0.000002  -0.000001
    29  F    0.020532   0.000491  -0.000015  -0.000001   0.000007   0.000001
    30  F    0.123747   0.002579   0.000693  -0.000004   0.000000   0.000005
    31  O   -0.042440  -0.001582  -0.013292  -0.000942  -0.027250  -0.004445
    32  O    0.010242  -0.021171  -0.032808  -0.000604  -0.021791   0.040547
    33  C    0.050567   0.006981  -0.005392   0.000120   0.018394   0.004676
    34  C    0.001146  -0.029448  -0.025896  -0.000666  -0.047438   0.026385
    35  C    0.002076  -0.000421   0.000634   0.000024   0.007068  -0.007232
    36  H    0.000024   0.000315  -0.000754  -0.000000   0.000333   0.000379
    37  H    0.000073   0.000229   0.000749   0.000001  -0.000093  -0.000906
    38  H   -0.000117  -0.000028   0.000118   0.000000   0.000093  -0.000430
    39  H    0.000016   0.000015   0.000059  -0.000000  -0.000046   0.000013
    40  H    0.000085   0.000047  -0.000404  -0.000000   0.000009   0.000999
               7          8          9         10         11         12
     1  C   -0.028986  -0.011475   0.456979  -3.559374   1.020400   0.810731
     2  N    0.031288  -0.015491  -0.098666  -0.018893  -0.065983   0.105479
     3  C    0.207018  -0.209279   0.073991  -0.330108   0.383637  -0.697045
     4  O    0.019912  -0.001286  -0.005290  -0.027740   0.009616  -0.035682
     5  N   -0.057908  -0.043694   0.004838   0.030124   0.008822  -0.031407
     6  C   -0.915237   0.324209   0.029471  -0.021136   0.011085  -0.046509
     7  C    6.521791  -0.429343   0.001494   0.000255  -0.000556   0.000219
     8  C   -0.429343   6.610786   0.000019   0.000160  -0.000041  -0.000706
     9  C    0.001494   0.000019  15.242756   3.432084 -12.155082   1.377905
    10  C    0.000255   0.000160   3.432084  32.420920 -13.488223  -3.417762
    11  C   -0.000556  -0.000041 -12.155082 -13.488223  40.436855  -6.912278
    12  C    0.000219  -0.000706   1.377905  -3.417762  -6.912278  17.894983
    13  C    0.005521  -0.003125  -3.733731  -4.611936   1.943657  -2.891584
    14  H   -0.003663   0.000227  -0.004666   0.012750  -0.004587  -0.003621
    15  H   -0.025249   0.006790  -0.005337  -0.005745  -0.001015   0.003690
    16  H   -0.016849  -0.022873  -0.003372  -0.000107  -0.000125   0.002061
    17  H   -0.035333  -0.016716   0.004102   0.000493   0.000048  -0.003207
    18  H    0.455511  -0.073298  -0.000265  -0.000026  -0.000005   0.000094
    19  H    0.460825  -0.068884   0.000529   0.000024   0.000012  -0.000061
    20  H    0.043438   0.346779  -0.000003  -0.000002   0.000000   0.000005
    21  H   -0.152966   0.414747  -0.000002   0.000000  -0.000000  -0.000000
    22  H    0.024614   0.355596   0.000010   0.000001   0.000000  -0.000003
    23  H    0.000105   0.000003   0.291821  -0.004920   0.054103  -0.031236
    24  C    0.000091  -0.000011   1.013822  -3.768156  -4.177126   0.093454
    25  Cl  -0.000028  -0.000000   0.104960   0.578966  -1.304429   0.114821
    26  H    0.000002   0.000000  -0.010171   0.068348   0.050040   0.140971
    27  H   -0.000057   0.000027  -0.030147  -0.006743  -0.019135   0.093959
    28  F   -0.000000   0.000000  -0.020386   0.176114  -0.126521   0.044385
    29  F    0.000000   0.000000   0.037554   0.201934  -0.179175   0.049685
    30  F    0.000001  -0.000000   0.299684  -0.388101  -0.186824   0.024755
    31  O   -0.001996   0.000447   0.115228  -0.025865  -0.012605   0.004846
    32  O   -0.000861   0.009169  -0.007614  -0.001785   0.000292  -0.000569
    33  C   -0.002075  -0.015773  -0.066087  -0.008847  -0.003269   0.010045
    34  C   -0.018900   0.006355   0.028924  -0.021651  -0.007349   0.002375
    35  C    0.005191  -0.004200  -0.004410   0.003880   0.001011  -0.000149
    36  H   -0.000572  -0.000047   0.001250  -0.000629  -0.000142   0.000005
    37  H    0.001136   0.000097  -0.000324   0.000015   0.000009   0.000005
    38  H    0.000823   0.000329   0.000082  -0.000010  -0.000002  -0.000001
    39  H   -0.000077  -0.000000  -0.000039  -0.000006   0.000000   0.000000
    40  H   -0.000773  -0.000364  -0.000006  -0.000023  -0.000003   0.000001
              13         14         15         16         17         18
     1  C   -3.484845  -0.033508  -0.004024   0.004611   0.009338   0.000767
     2  N   -0.102500   0.144468   0.036312   0.012583  -0.001114  -0.000070
     3  C   -0.198040  -0.055204  -0.011453   0.073557   0.016088   0.011193
     4  O    0.004539  -0.005354  -0.006805   0.001932  -0.000026  -0.000146
     5  N   -0.055413   0.033389   0.160083  -0.054769  -0.062222   0.009058
     6  C   -0.117336   0.011769  -0.037092   0.326438   0.425689  -0.075214
     7  C    0.005521  -0.003663  -0.025249  -0.016849  -0.035333   0.455511
     8  C   -0.003125   0.000227   0.006790  -0.022873  -0.016716  -0.073298
     9  C   -3.733731  -0.004666  -0.005337  -0.003372   0.004102  -0.000265
    10  C   -4.611936   0.012750  -0.005745  -0.000107   0.000493  -0.000026
    11  C    1.943657  -0.004587  -0.001015  -0.000125   0.000048  -0.000005
    12  C   -2.891584  -0.003621   0.003690   0.002061  -0.003207   0.000094
    13  C   18.476230   0.033797   0.000246   0.009246  -0.011377   0.000545
    14  H    0.033797   0.295691   0.018380  -0.000286   0.000299   0.000054
    15  H    0.000246   0.018380   0.309722   0.003145   0.000445   0.001818
    16  H    0.009246  -0.000286   0.003145   0.441784  -0.048017   0.005704
    17  H   -0.011377   0.000299   0.000445  -0.048017   0.451341  -0.008670
    18  H    0.000545   0.000054   0.001818   0.005704  -0.008670   0.443697
    19  H   -0.000520   0.000057  -0.000112  -0.008449   0.005878  -0.039832
    20  H    0.000061  -0.000000  -0.000048  -0.000718   0.003065  -0.008117
    21  H    0.000003   0.000000  -0.000039  -0.000050  -0.000028  -0.003891
    22  H   -0.000046   0.000001  -0.000041   0.003060  -0.000732   0.006567
    23  H    0.015501   0.009390   0.000014   0.000000   0.000000  -0.000000
    24  C    0.423655   0.011091  -0.000195   0.000020   0.000005   0.000001
    25  Cl  -0.236718   0.000115  -0.000006   0.000000   0.000000   0.000000
    26  H    0.059713   0.000006  -0.000000  -0.000000   0.000000   0.000000
    27  H    0.330525  -0.000352   0.000043  -0.000007   0.000010  -0.000000
    28  F    0.010136   0.000012  -0.000000   0.000000  -0.000000   0.000000
    29  F    0.003684   0.000021   0.000000  -0.000000   0.000000  -0.000000
    30  F   -0.038482  -0.000232  -0.000000   0.000000   0.000000   0.000000
    31  O   -0.002327   0.048003   0.016450   0.000018  -0.000038   0.000222
    32  O   -0.004728   0.010248   0.048910  -0.000356  -0.000021  -0.001779
    33  C   -0.007868  -0.007866  -0.006183   0.000331  -0.000638   0.002513
    34  C   -0.001268   0.019770   0.027146  -0.000319  -0.000113   0.000010
    35  C    0.000501  -0.000974  -0.003909   0.000059   0.000010   0.000408
    36  H   -0.000013  -0.000337  -0.000133   0.000000  -0.000000   0.000002
    37  H    0.000014  -0.000018   0.000056   0.000000   0.000000  -0.000001
    38  H   -0.000014   0.000008  -0.000054   0.000000   0.000000  -0.000025
    39  H   -0.000000  -0.000002   0.000028  -0.000000  -0.000000   0.000000
    40  H   -0.000001  -0.000017  -0.000206  -0.000000  -0.000000  -0.000007
              19         20         21         22         23         24
     1  C   -0.000252  -0.000166   0.000121  -0.000015  -0.059086  -2.699962
     2  N   -0.001008   0.000008   0.000008  -0.000078  -0.023985  -0.003463
     3  C    0.001126  -0.000811   0.005575  -0.003518   0.002686  -0.241749
     4  O   -0.000243  -0.000031   0.000011  -0.000030  -0.000022  -0.003698
     5  N    0.010893   0.000714  -0.001586  -0.000020  -0.000680   0.001534
     6  C   -0.072709  -0.045845   0.084394  -0.032714  -0.000618  -0.007302
     7  C    0.460825   0.043438  -0.152966   0.024614   0.000105   0.000091
     8  C   -0.068884   0.346779   0.414747   0.355596   0.000003  -0.000011
     9  C    0.000529  -0.000003  -0.000002   0.000010   0.291821   1.013822
    10  C    0.000024  -0.000002   0.000000   0.000001  -0.004920  -3.768156
    11  C    0.000012   0.000000  -0.000000   0.000000   0.054103  -4.177126
    12  C   -0.000061   0.000005  -0.000000  -0.000003  -0.031236   0.093454
    13  C   -0.000520   0.000061   0.000003  -0.000046   0.015501   0.423655
    14  H    0.000057  -0.000000   0.000000   0.000001   0.009390   0.011091
    15  H   -0.000112  -0.000048  -0.000039  -0.000041   0.000014  -0.000195
    16  H   -0.008449  -0.000718  -0.000050   0.003060   0.000000   0.000020
    17  H    0.005878   0.003065  -0.000028  -0.000732   0.000000   0.000005
    18  H   -0.039832  -0.008117  -0.003891   0.006567  -0.000000   0.000001
    19  H    0.442699   0.006469  -0.003914  -0.007582  -0.000000  -0.000003
    20  H    0.006469   0.447043  -0.024139  -0.036595   0.000000  -0.000000
    21  H   -0.003914  -0.024139   0.426288  -0.024197  -0.000000   0.000000
    22  H   -0.007582  -0.036595  -0.024197   0.446570  -0.000000  -0.000000
    23  H   -0.000000   0.000000  -0.000000  -0.000000   0.335397   0.040900
    24  C   -0.000003  -0.000000   0.000000  -0.000000   0.040900  14.693452
    25  Cl   0.000000  -0.000000   0.000000  -0.000000  -0.000953  -0.456955
    26  H   -0.000000  -0.000000  -0.000000   0.000000   0.000036   0.016138
    27  H    0.000000  -0.000000   0.000000  -0.000000  -0.000099   0.003045
    28  F   -0.000000   0.000000   0.000000  -0.000000   0.000252   0.050968
    29  F    0.000000   0.000000  -0.000000  -0.000000   0.000328   0.026086
    30  F    0.000000  -0.000000  -0.000000   0.000000   0.011200   0.297581
    31  O   -0.000229   0.000000  -0.000001  -0.000001   0.002845  -0.001102
    32  O   -0.001540   0.000034  -0.000037  -0.000009   0.000398  -0.000152
    33  C    0.002854   0.000033  -0.000143   0.000172   0.005671  -0.002207
    34  C   -0.002058  -0.000032   0.000179  -0.000034  -0.002505   0.001376
    35  C    0.001229   0.000011  -0.000080   0.000031   0.000008  -0.000627
    36  H    0.000002   0.000000  -0.000000   0.000000  -0.000050   0.000203
    37  H   -0.000001   0.000000  -0.000000   0.000000   0.000014  -0.000051
    38  H   -0.000009  -0.000000   0.000000  -0.000000   0.000000   0.000000
    39  H    0.000000  -0.000000  -0.000000  -0.000000  -0.000000  -0.000003
    40  H   -0.000033   0.000000   0.000001  -0.000000  -0.000000   0.000003
              25         26         27         28         29         30
     1  C    0.154085   0.007877  -0.060046   0.027356   0.020532   0.123747
     2  N    0.000728  -0.001385  -0.008593   0.000321   0.000491   0.002579
     3  C   -0.005763   0.002430   0.028655   0.000539  -0.000015   0.000693
     4  O    0.000055   0.000057  -0.008296   0.000000  -0.000001  -0.000004
     5  N    0.000608   0.000040  -0.000820  -0.000002   0.000007   0.000000
     6  C    0.000077   0.000013   0.002949  -0.000001   0.000001   0.000005
     7  C   -0.000028   0.000002  -0.000057  -0.000000   0.000000   0.000001
     8  C   -0.000000   0.000000   0.000027   0.000000   0.000000  -0.000000
     9  C    0.104960  -0.010171  -0.030147  -0.020386   0.037554   0.299684
    10  C    0.578966   0.068348  -0.006743   0.176114   0.201934  -0.388101
    11  C   -1.304429   0.050040  -0.019135  -0.126521  -0.179175  -0.186824
    12  C    0.114821   0.140971   0.093959   0.044385   0.049685   0.024755
    13  C   -0.236718   0.059713   0.330525   0.010136   0.003684  -0.038482
    14  H    0.000115   0.000006  -0.000352   0.000012   0.000021  -0.000232
    15  H   -0.000006  -0.000000   0.000043  -0.000000   0.000000  -0.000000
    16  H    0.000000  -0.000000  -0.000007   0.000000  -0.000000   0.000000
    17  H    0.000000   0.000000   0.000010  -0.000000   0.000000   0.000000
    18  H    0.000000   0.000000  -0.000000   0.000000  -0.000000   0.000000
    19  H    0.000000  -0.000000   0.000000  -0.000000   0.000000   0.000000
    20  H   -0.000000  -0.000000  -0.000000   0.000000   0.000000  -0.000000
    21  H    0.000000  -0.000000   0.000000   0.000000  -0.000000  -0.000000
    22  H   -0.000000   0.000000  -0.000000  -0.000000  -0.000000   0.000000
    23  H   -0.000953   0.000036  -0.000099   0.000252   0.000328   0.011200
    24  C   -0.456955   0.016138   0.003045   0.050968   0.026086   0.297581
    25  Cl  17.674894  -0.013102   0.000373  -0.020868  -0.018229   0.010194
    26  H   -0.013102   0.364729  -0.003352  -0.000018  -0.000014   0.000018
    27  H    0.000373  -0.003352   0.365025  -0.000002   0.000000  -0.000003
    28  F   -0.020868  -0.000018  -0.000002   8.989574  -0.044550  -0.036279
    29  F   -0.018229  -0.000014   0.000000  -0.044550   8.994193  -0.036121
    30  F    0.010194   0.000018  -0.000003  -0.036279  -0.036121   9.058779
    31  O   -0.000062  -0.000003   0.000041   0.000015  -0.000003   0.000035
    32  O    0.000001  -0.000000   0.000005  -0.000000   0.000000  -0.000005
    33  C   -0.000300  -0.000005  -0.000049   0.000086   0.000070   0.000943
    34  C    0.000070  -0.000001  -0.000004  -0.000016  -0.000035  -0.000498
    35  C   -0.000000   0.000000  -0.000000   0.000000  -0.000001  -0.000016
    36  H    0.000000  -0.000000   0.000000  -0.000000  -0.000000   0.000002
    37  H   -0.000000  -0.000000  -0.000000   0.000000   0.000000   0.000001
    38  H   -0.000000   0.000000  -0.000000   0.000000   0.000000   0.000000
    39  H   -0.000000  -0.000000  -0.000000  -0.000000   0.000000  -0.000000
    40  H    0.000000  -0.000000   0.000000   0.000000   0.000000  -0.000000
              31         32         33         34         35         36
     1  C   -0.042440   0.010242   0.050567   0.001146   0.002076   0.000024
     2  N   -0.001582  -0.021171   0.006981  -0.029448  -0.000421   0.000315
     3  C   -0.013292  -0.032808  -0.005392  -0.025896   0.000634  -0.000754
     4  O   -0.000942  -0.000604   0.000120  -0.000666   0.000024  -0.000000
     5  N   -0.027250  -0.021791   0.018394  -0.047438   0.007068   0.000333
     6  C   -0.004445   0.040547   0.004676   0.026385  -0.007232   0.000379
     7  C   -0.001996  -0.000861  -0.002075  -0.018900   0.005191  -0.000572
     8  C    0.000447   0.009169  -0.015773   0.006355  -0.004200  -0.000047
     9  C    0.115228  -0.007614  -0.066087   0.028924  -0.004410   0.001250
    10  C   -0.025865  -0.001785  -0.008847  -0.021651   0.003880  -0.000629
    11  C   -0.012605   0.000292  -0.003269  -0.007349   0.001011  -0.000142
    12  C    0.004846  -0.000569   0.010045   0.002375  -0.000149   0.000005
    13  C   -0.002327  -0.004728  -0.007868  -0.001268   0.000501  -0.000013
    14  H    0.048003   0.010248  -0.007866   0.019770  -0.000974  -0.000337
    15  H    0.016450   0.048910  -0.006183   0.027146  -0.003909  -0.000133
    16  H    0.000018  -0.000356   0.000331  -0.000319   0.000059   0.000000
    17  H   -0.000038  -0.000021  -0.000638  -0.000113   0.000010  -0.000000
    18  H    0.000222  -0.001779   0.002513   0.000010   0.000408   0.000002
    19  H   -0.000229  -0.001540   0.002854  -0.002058   0.001229   0.000002
    20  H    0.000000   0.000034   0.000033  -0.000032   0.000011   0.000000
    21  H   -0.000001  -0.000037  -0.000143   0.000179  -0.000080  -0.000000
    22  H   -0.000001  -0.000009   0.000172  -0.000034   0.000031   0.000000
    23  H    0.002845   0.000398   0.005671  -0.002505   0.000008  -0.000050
    24  C   -0.001102  -0.000152  -0.002207   0.001376  -0.000627   0.000203
    25  Cl  -0.000062   0.000001  -0.000300   0.000070  -0.000000   0.000000
    26  H   -0.000003  -0.000000  -0.000005  -0.000001   0.000000  -0.000000
    27  H    0.000041   0.000005  -0.000049  -0.000004  -0.000000   0.000000
    28  F    0.000015  -0.000000   0.000086  -0.000016   0.000000  -0.000000
    29  F   -0.000003   0.000000   0.000070  -0.000035  -0.000001  -0.000000
    30  F    0.000035  -0.000005   0.000943  -0.000498  -0.000016   0.000002
    31  O    8.626535  -0.145699   0.277997  -0.191024   0.014770  -0.003360
    32  O   -0.145699   8.499829   0.337127  -0.139726   0.000854  -0.001413
    33  C    0.277997   0.337127   5.896809  -0.911808   0.289651  -0.045223
    34  C   -0.191024  -0.139726  -0.911808   7.251725  -0.387350   0.416376
    35  C    0.014770   0.000854   0.289651  -0.387350   6.025546  -0.037037
    36  H   -0.003360  -0.001413  -0.045223   0.416376  -0.037037   0.421534
    37  H   -0.004647   0.004000  -0.016735   0.401411  -0.050362  -0.031173
    38  H   -0.000144  -0.001611  -0.012917  -0.024679   0.386103  -0.007051
    39  H   -0.000661   0.002303   0.054396  -0.109609   0.404647  -0.002602
    40  H   -0.000452  -0.004800  -0.026947  -0.007731   0.384066   0.005339
              37         38         39         40
     1  C    0.000073  -0.000117   0.000016   0.000085
     2  N    0.000229  -0.000028   0.000015   0.000047
     3  C    0.000749   0.000118   0.000059  -0.000404
     4  O    0.000001   0.000000  -0.000000  -0.000000
     5  N   -0.000093   0.000093  -0.000046   0.000009
     6  C   -0.000906  -0.000430   0.000013   0.000999
     7  C    0.001136   0.000823  -0.000077  -0.000773
     8  C    0.000097   0.000329  -0.000000  -0.000364
     9  C   -0.000324   0.000082  -0.000039  -0.000006
    10  C    0.000015  -0.000010  -0.000006  -0.000023
    11  C    0.000009  -0.000002   0.000000  -0.000003
    12  C    0.000005  -0.000001   0.000000   0.000001
    13  C    0.000014  -0.000014  -0.000000  -0.000001
    14  H   -0.000018   0.000008  -0.000002  -0.000017
    15  H    0.000056  -0.000054   0.000028  -0.000206
    16  H    0.000000   0.000000  -0.000000  -0.000000
    17  H    0.000000   0.000000  -0.000000  -0.000000
    18  H   -0.000001  -0.000025   0.000000  -0.000007
    19  H   -0.000001  -0.000009   0.000000  -0.000033
    20  H    0.000000  -0.000000  -0.000000   0.000000
    21  H   -0.000000   0.000000  -0.000000   0.000001
    22  H    0.000000  -0.000000  -0.000000  -0.000000
    23  H    0.000014   0.000000  -0.000000  -0.000000
    24  C   -0.000051   0.000000  -0.000003   0.000003
    25  Cl  -0.000000  -0.000000  -0.000000   0.000000
    26  H   -0.000000   0.000000  -0.000000  -0.000000
    27  H   -0.000000  -0.000000  -0.000000   0.000000
    28  F    0.000000   0.000000  -0.000000   0.000000
[...]
 -0.00000063,-0.00000779,-0.00000614,0.00000409,0.00000015,-0.00000052,
 0.00000135,0.00000204,-0.00000020,-0.00000059,-0.00000049,-0.00000025,
 0.00000073,-0.00000224,0.00000013,0.00000050,-0.00000110,-0.00000110,-
 0.00000092,-0.00000603,-0.00000208,0.00000102,-0.00000401,-0.00001190,
 0.00000258,0.00000381,-0.00000206,-0.00000069,0.00000066,-0.00000046,-
 0.00000042,-0.00000032,0.00000082,-0.00000068,0.00000082,0.00000228,-0
 .00000063,0.00000229,0.00000219,-0.00000005,-0.00000136,0.00000575,-0.
 00000219,0.00309892,0.00049112,0.00218236,0.00122458,-0.00334644,0.005
 66463,-0.02893947,-0.01103563,-0.01011439,-0.10055303,-0.09332383,-0.0
 1896382,0.02069365,0.00881091,0.00393889,0.10478952,0.10048392,-0.0000
 1272,-0.00000322,0.00000708,0.00001248,-0.00003537,0.00003450,0.000041
 55,-0.00000904,0.00000183,-0.00001032,0.00000232,-0.00000885,0.0000105
 7,0.00007197,0.00003202,-0.00000578,0.00000062,0.00000413,-0.00000076,
 -0.00000174,0.00000158,-0.00000019,-0.00000135,-0.00000104,0.00000070,
 0.00000122,-0.00000119,-0.00000014,0.00000149,-0.00000102,-0.00000027,
 -0.00000023,0.00000005,-0.00000057,-0.00000091,0.00000012,0.00000401,-
 0.00000272,-0.00000184,-0.00003827,0.00005249,-0.00006166,-0.00005226,
 -0.00012591,-0.00005321,0.00000250,0.00000118,0.00000033,0.00000040,0.
 00000080,0.00000013,-0.00000055,-0.00000027,-0.00000047,0.00000018,0.0
 0000107,0.00000110,-0.00000002,0.00000036,0.00000026,0.00000019,0.0000
 0003,0.00000009,0.00000014,0.00000043,-0.00000004,0.00000020,-0.000000
 53,0.00000131,0.00000147,-0.00000563,0.00000507,0.00000090,-0.00000017
 ,0.00000002,0.00000049,0.00000005,0.00000003,-0.00000004,0.00000066,0.
 00000022,0.00000016,0.00000092,-0.00000115,-0.00000064,0.00000079,-0.0
 0000148,-0.00000085,0.00000351,-0.00000227,-0.00046528,-0.00199889,-0.
 00048651,-0.00117975,0.00192971,-0.00346176,0.01542447,0.00788680,0.00
 251132,-0.03745272,-0.01727394,-0.04870446,0.01127806,0.00531356,0.001
 50608,0.04045573,0.01888273,0.05251785,0.00003173,-0.00000335,-0.00001
 044,0.00000572,0.00007291,-0.00001069,-0.00005315,-0.00001317,0.000006
 28,0.00001677,0.00001681,-0.00000329,-0.00000135,-0.00004383,-0.000007
 01,0.00000235,-0.00000260,-0.00000182,0.00000269,0.00000215,0.00001172
 ,-0.00000218,-0.00000039,-0.00000408,-0.00000343,-0.00000338,0.0000052
 1,0.00000047,-0.00000273,-0.00000147,0.00000034,0.00000191,0.00000305,
 0.00000076,-0.00000073,-0.00000261,-0.00000776,0.00000586,0.00000078,0
 .00000309,-0.00016243,0.00003805,-0.00000240,0.00003296,0.00001420,-0.
 00000004,-0.00000082,0.00000008,-0.00000002,0.00000124,0.00000012,-0.0
 0000063,0.00000087,0.00000034,0.00000079,0.00000309,-0.00000350,0.0000
 0062,0.00000063,-0.00000041,0.00000029,-0.00000036,0.00000047,0.000000
 28,-0.00000033,0.00000017,0.00000070,-0.00000081,-0.00000086,0.0000011
 7,0.00000672,-0.00000592,-0.00000249,0.00000116,0.00000015,-0.00000066
 ,0.00000026,0.00000009,0.00000048,-0.00000043,0.00000026,-0.00000087,-
 0.00000041,0.00000164,-0.00000077,-0.00000126,0.00000080,0.00000155,-0
 .00000453,0.00000240,-0.00053389,0.00202007,-0.00033610,-0.00004378,-0
 .00109669,-0.00019335,-0.00159042,-0.00223025,0.00320413,-0.04626760,-
 0.00035858,-0.02472874,0.00216461,0.00300516,0.02525633,-0.00275549,-0
 .00207746,-0.02915554,0.05014112,-0.00004473,0.00002198,0.00000566,0.0
 0007651,0.00001030,0.00002102,-0.00019402,0.00011528,0.00002807,0.0000
 3800,-0.00013348,-0.00000082,0.00004867,-0.00038178,0.00001793,0.00007
 890,-0.00000870,-0.00001705,-0.00000655,-0.00000287,0.00000551,0.00000
 276,0.00000309,-0.00000262,0.00001220,-0.00000596,-0.00000215,-0.00000
 056,-0.00000051,-0.00000395,0.00000013,0.00000020,0.00000087,-0.000002
 51,0.00000038,0.00000045,0.00000987,-0.00000976,0.00000093,-0.00006536
 ,0.00008443,-0.00007806,0.00006745,0.00061321,-0.00007381,-0.00001985,
 -0.00001345,0.00000339,-0.00001548,-0.00000980,0.00000767,-0.00000222,
 0.00000080,-0.00000533,-0.00000092,0.00000441,0.00000251,-0.00000104,-
 0.00000124,0.00000094,-0.00000399,-0.00000021,0.00000111,-0.00000175,-
 0.00000215,-0.00000043,-0.00000223,0.00000742,0.00000079,-0.00000350,-
 0.00000140,0.00000580,0.00000439,-0.00000170,-0.00000062,0.00000110,-0
 .00000038,0.00000049,-0.00000039,0.00000185,-0.00000085,0.00000113,-0.
 00000070,-0.00000268,0.00000150,0.00000070,-0.00000083,-0.00000064,0.0
 0000154,-0.00000128,-0.00154076,-0.00095743,-0.00203398,-0.00399327,-0
 .00610421,0.00090374,0.00664498,0.00625712,0.03149786,0.00033800,-0.04
 899389,-0.02868062,-0.00209815,-0.00359991,-0.02071542,-0.00114056,-0.
 00180967,-0.01433122,-0.00080742,0.05555743,0.00001651,-0.00001249,-0.
 00000118,-0.00005477,-0.00001775,-0.00001256,0.00015577,-0.00006895,-0
 .00002990,-0.00003199,0.00007784,0.00000329,-0.00002550,0.00022844,-0.
 00000121,-0.00004894,0.00001370,0.00000908,0.00000173,0.00000219,-0.00
 000323,-0.00000197,-0.00000218,0.00000245,-0.00000515,0.00000137,-0.00
 000073,0.00000069,0.00000092,0.00000278,-0.00000354,-0.00000086,-0.000
 00055,0.00000301,-0.00000074,0.00000082,-0.00000428,0.00000582,0.00000
 048,0.00004328,0.00005144,0.00002927,-0.00005942,-0.00034701,0.0000257
 9,0.00001203,0.00000876,-0.00000239,0.00001010,0.00000668,-0.00000389,
 0.00000240,-0.00000261,0.00000582,0.00000211,-0.00000203,-0.00000410,0
 .00000113,0.00000072,-0.00000058,0.00000221,-0.00000003,-0.00000086,0.
 00000180,0.00000170,-0.00000033,0.00000043,0.00000106,-0.00000021,-0.0
 0000335,0.00000367,-0.00000826,-0.00000158,0.00000094,0.00000022,-0.00
 000059,0.00000021,-0.00000011,0.00000012,-0.00000142,0.00000061,-0.000
 00027,0.,0.00000243,0.00000070,-0.00000031,0.00000162,0.00000058,-0.00
 000348,0.00000196,0.00102901,-0.00032482,0.00277523,0.00086752,0.00387
 496,-0.00057203,-0.00119668,-0.00402010,-0.01525639,-0.02570924,-0.030
 06580,-0.30961573,-0.00071578,-0.00140280,-0.00870346,-0.00110295,-0.0
 0053029,-0.00466588,0.02496076,0.03353404,0.33441682,0.00001123,-0.000
 00158,-0.00000280,-0.00000604,0.00002561,-0.00000675,0.00000131,-0.000
 00797,-0.00000030,0.00000163,0.00001171,-0.00000105,0.00000063,0.00001
 679,-0.00000111,-0.00000461,-0.00000114,0.00000140,-0.00000084,-0.0000
 0211,-0.00000283,-0.00000040,0.00000063,0.00000106,-0.00000197,-0.0000
 0270,0.00000087,0.00000034,0.00000028,0.00000039,-0.00000029,0.0000001
 3,0.00000038,0.00000015,-0.00000014,-0.00000116,-0.00000268,0.00000234
 ,0.00000048,0.00000489,-0.00004359,0.00001255,-0.00000987,-0.00003304,
 0.00000565,0.00000107,0.00000141,-0.00000011,0.00000140,0.00000110,-0.
 00000037,0.00000247,0.00000144,0.00000096,0.00000172,0.00000329,-0.000
 00069,-0.00000006,-0.00000086,-0.00000033,-0.00000020,0.00000058,-0.00
 000052,0.00000047,0.00000009,0.00000048,0.00000086,0.00000016,0.000000
 03,0.00000183,0.00000124,0.00000066,-0.00000108,0.00000054,0.00000007,
 -0.00000021,0.00000014,0.00000015,0.00000011,0.00000004,0.00000033,-0.
 00000030,-0.00000024,-0.00000008,-0.00000108,-0.00000062,-0.00000055,-
 0.00000002,-0.00000055,-0.00000020,-0.00019285,0.00013716,-0.00025191,
 0.00011718,0.00036953,-0.00040101,0.00064139,-0.00101699,0.00020063,0.
 00266565,0.00342568,0.02606828,-0.05106461,-0.00515800,-0.02921481,0.0
 0111309,-0.00105054,-0.00029101,-0.00300212,0.00368417,0.00162509,0.05
 288724,-0.00000259,-0.00000070,0.00000086,-0.00000423,-0.00001375,0.00
 000578,0.00001783,-0.00000903,-0.00000382,-0.00000358,0.00000429,0.000
 00137,-0.00000120,0.00002258,0.00000264,-0.00000171,0.00000265,0.00000
 107,-0.00000185,0.00000380,-0.00000516,0.00000243,0.00000096,0.0000010
 1,0.00000048,0.00000093,-0.00000074,0.00000081,0.00000022,0.00000073,-
 0.00000109,0.00000026,-0.00000082,-0.00000028,-0.00000080,0.00000076,0
 .00000175,0.00000137,0.00000117,0.00000044,0.00001981,-0.00000241,-0.0
 0001293,-0.00002788,-0.00000459,-0.00000035,0.00000173,-0.00000015,0.0
 0000001,0.00000114,-0.00000002,-0.00000080,-0.00000108,0.00000406,-0.0
 0000134,-0.00000177,-0.00000063,-0.00000016,-0.00000092,-0.00000027,-0
 .00000107,0.00000035,-0.00000026,0.00000067,-0.00000010,0.00000035,-0.
 00000095,-0.00000019,0.00000004,-0.00000113,0.00000115,-0.00000247,0.0
 0000042,-0.00000021,0.00000002,0.00000003,-0.00000025,-0.00000005,-0.0
 0000012,-0.00000041,-0.00000022,0.00000006,-0.00000011,0.00000053,0.00
 000063,-0.00000001,0.00000079,0.00000034,-0.00000111,0.00000085,0.0001
 3536,-0.00010288,0.00031964,-0.00007166,-0.00030596,0.00008869,-0.0005
 9227,0.00060396,-0.00074896,-0.00275457,-0.00352448,-0.02028478,-0.004
 48392,-0.05311752,-0.03767690,-0.00041378,0.00079307,0.00069378,0.0031
 9028,-0.00202516,-0.00106711,0.00190838,0.05430659,-0.00001490,0.00000
 141,0.00000467,0.00000282,-0.00004643,0.00002100,0.00001794,0.00000654
 ,-0.00000560,-0.00000630,-0.00001203,0.00000241,0.00000246,-0.00000680
 ,0.00000925,0.00000475,0.00000282,-0.00000206,-0.00000393,-0.00000369,
 -0.00000301,0.00000163,-0.00000064,0.00000109,0.00000275,0.00000194,-0
 .00000237,0.00000075,0.00000126,0.00000147,-0.00000108,-0.00000109,-0.
 00000081,0.00000037,0.00000032,0.00000125,0.00000381,-0.00000284,0.000
 00027,-0.00000542,0.00007073,-0.00003191,-0.00000114,0.00001076,-0.000
 00159,-0.00000091,0.00000019,-0.00000063,-0.00000124,-0.00000119,0.000
 00088,0.00000009,-0.00000107,0.00000196,-0.00000019,0.00000075,0.00000
 004,-0.00000022,0.00000006,0.00000116,-0.00000116,0.00000051,-0.000000
 22,0.00000007,0.00000062,-0.00000091,-0.00000102,-0.00000032,-0.000001
 19,-0.00000459,0.00000024,-0.00000462,0.00000127,-0.00000068,-0.000000
 51,0.00000027,-0.00000026,0.00000017,-0.00000024,-0.00000028,-0.000000
 09,0.00000040,0.00000029,0.00000098,0.00000176,0.00000050,0.00000121,0
 .00000150,-0.00000220,0.00000086,-0.00008920,-0.00066585,0.00038961,-0
 .00094584,0.00081575,0.00122892,0.00095000,0.00157238,-0.00127484,-0.0
 0077988,-0.00183365,-0.01003338,-0.02804498,-0.03976512,-0.31153334,0.
 00028577,0.00016539,0.00052636,0.00205662,-0.00122321,0.00068151,0.029
 03883,0.04313726,0.33647516,0.00006969,-0.00000705,-0.00002294,-0.0000
 0369,0.00019693,-0.00007204,-0.00006907,-0.00003783,0.00000887,0.00002
 595,0.00005912,-0.00000666,0.00000961,0.00004004,-0.00000367,-0.000019
 11,-0.00000296,0.00000388,0.00000296,0.00000531,-0.00000029,-0.0000004
 2,-0.00000122,-0.00000002,-0.00001226,-0.00001201,0.00000846,0.0000013
 8,-0.00000056,0.00000087,-0.00000031,-0.00000112,-0.00000027,0.0000017
 3,0.00000220,-0.00000302,-0.00001734,0.00001174,0.00000189,0.00002456,
 -0.00030812,0.00013187,-0.00002434,-0.00009164,0.00001679,0.00000457,0
 .00000194,-0.00000046,0.00000496,0.00000222,-0.00000189,-0.00000050,0.
 00000045,-0.00000120,0.00000046,0.00000276,-0.00000084,0.00000012,-0.0
 0000004,0.00000001,0.00000201,0.00000004,-0.00000044,0.00000015,0.0000
 0011,0.00000007,0.00000288,0.00000215,-0.00000167,0.00000737,0.0000042
 9,-0.00000502,-0.00000564,0.00000332,0.00000085,-0.00000169,0.00000087
 ,0.00000022,0.00000065,-0.00000079,0.00000043,-0.00000209,0.00000008,0
 .00000305,-0.00000355,-0.00000169,0.,-0.00000086,-0.00000187,0.0000016
 3,-0.00103934,0.00321190,-0.00035153,0.00097788,-0.00003190,-0.0006317
 6,-0.00316797,-0.00080460,0.00381645,0.00101442,0.02325918,-0.01298772
 ,-0.04856335,-0.01226036,0.00556654,0.00084431,-0.00084298,-0.00064210
 ,0.00090316,-0.00083725,0.00001350,-0.00117508,0.00374041,-0.00166199,
 0.04990143,-0.00008079,0.00001115,0.00002522,0.00001602,-0.00019905,0.
 00006834,0.00004174,0.00006419,-0.00000470,-0.00002149,-0.00008475,0.0
 0000885,-0.00000780,-0.00009214,0.00000292,0.00002911,0.00000233,-0.00
 000728,-0.00000238,-0.00000258,0.00000230,0.00000165,0.00000096,-0.000
 00015,0.00001361,0.00001220,-0.00001013,-0.00000267,0.00000107,-0.0000
 0116,0.00000228,-0.00000030,0.00000029,-0.00000253,-0.00000212,0.00000
 282,0.00002020,-0.00001475,-0.00000102,-0.00003622,0.00034596,-0.00013
 661,0.00004943,0.00019203,-0.00003264,-0.00000743,-0.00000477,0.000000
 23,-0.00000638,-0.00000431,0.00000329,-0.00000054,0.00000109,-0.000002
 97,0.00000136,0.00000254,0.00000183,-0.00000101,-0.00000058,0.00000102
 ,-0.00000181,0.00000076,0.00000032,-0.00000142,-0.00000116,-0.00000086
 ,-0.00000196,-0.00000176,0.00000246,-0.00000750,-0.00000477,0.00000755
 ,0.00000684,-0.00000373,-0.00000100,0.00000177,-0.00000033,-0.00000049
 ,-0.00000065,0.00000121,-0.00000068,0.00000231,-0.00000003,-0.00000401
 ,0.00000343,0.00000168,-0.00000076,0.00000104,0.00000172,-0.00000238,0
 .00134900,-0.00315356,0.00016282,0.00003756,-0.00091691,0.00046064,0.0
 0215256,0.00260208,-0.00256002,-0.00226033,-0.01683370,0.00931453,-0.0
 1096863,-0.26200978,0.10970001,0.00007754,0.00083728,0.00016013,-0.000
 58529,0.00048880,-0.00027813,0.00048074,0.00611178,-0.00197692,0.01000
 026,0.28304593,-0.00002217,0.00000043,0.00000687,-0.00000438,-0.000074
 93,0.00003291,0.00003986,0.00000200,-0.00000455,-0.00001177,-0.0000106
 1,0.00000132,-0.00000324,0.00001002,0.00000483,0.00000126,0.00000110,-
 0.00000119,-0.00000103,-0.00000041,-0.00000042,-0.00000092,0.00000066,
 0.00000026,0.00000332,0.00000397,-0.00000339,0.00000078,-0.00000050,0.
 00000011,-0.00000091,0.00000183,0.00000040,-0.00000077,-0.00000195,0.0
 0000061,0.00000588,-0.00000204,-0.00000006,-0.00000185,0.00010579,-0.0
 0004649,-0.00000945,-0.00001927,-0.00001069,-0.00000060,0.00000045,0.0
 0000050,-0.00000039,0.00000023,-0.00000009,-0.00000013,0.00000077,0.00
 000133,0.00000020,0.00000081,-0.00000098,0.00000005,0.00000006,-0.0000
 0013,-0.00000015,-0.00000031,-0.00000010,0.00000057,0.00000057,0.00000
 035,-0.00000062,-0.00000062,0.00000080,-0.00000216,-0.00000027,0.00000
 187,0.00000165,-0.00000114,-0.00000019,0.00000063,-0.00000069,-0.00000
 003,-0.00000021,0.00000006,-0.00000008,0.00000073,-0.00000042,-0.00000
 126,0.00000108,0.00000035,0.00000006,0.00000041,0.00000054,-0.00000054
 ,0.00033361,-0.00128019,0.00032823,-0.00073638,0.00060348,0.00056397,0
 .00257854,-0.00010572,-0.00136975,-0.00083856,-0.01310718,0.00566671,0
 .00491956,0.11087630,-0.10496773,-0.00042659,0.00055021,0.00018402,-0.
 00075319,0.00035956,0.00052602,0.00225101,0.02857731,-0.01260792,-0.00
 794142,-0.11995114,0.10932965,0.00001489,0.00000026,-0.00000650,0.0000
 0231,0.00005401,-0.00001803,-0.00003133,-0.00000572,0.00000171,0.00000
 853,0.00001332,-0.00000044,0.00000584,0.00000954,0.00000143,-0.0000047
 7,0.00000145,-0.00000109,-0.00000043,0.00000651,0.00000144,-0.00000073
 ,0.00000181,-0.00000028,-0.00000175,-0.00000210,0.00000373,0.00000067,
 -0.00000017,0.00000023,0.00000156,-0.00000261,0.00000029,-0.00000032,0
 .00000220,-0.00000168,-0.00000392,0.00000215,0.00000156,0.00001023,-0.
 00007800,0.00003300,-0.00001212,-0.00001773,-0.00000553,0.00000199,-0.
 00000008,-0.00000081,0.00000199,0.00000076,0.00000086,-0.00000087,0.00
 000374,-0.00000287,-0.00000054,0.00001629,-0.00001036,0.00000054,-0.00
 000086,0.00000031,0.00000281,-0.00000039,-0.00000062,-0.00000040,-0.00
 000019,0.00000013,0.00000019,-0.00000064,-0.00000167,0.00000123,-0.000
 00445,-0.00000347,-0.00000181,0.00000144,0.00000004,-0.00000060,0.0000
 0059,0.00000002,0.00000022,0.00000009,-0.00000004,-0.00000102,0.000001
 79,0.00000229,-0.00000061,0.00000060,0.00000031,-0.00000076,0.00000173
 ,0.00000006,0.00014685,0.00074993,-0.00024719,0.00141561,-0.00008607,-
 0.00059166,-0.00045491,-0.00199150,0.00129499,-0.02153550,-0.00882493,
 -0.00426570,-0.26844016,-0.09683631,-0.04210659,-0.00222636,0.00358849
 ,0.00207557,0.00099037,-0.00022660,0.00021552,-0.00199033,-0.00064877,
 -0.00080963,0.00030634,-0.00029166,0.00061776,0.29179706,0.00000464,-0
 .00000154,0.00000070,-0.00000231,0.00000873,-0.00000037,0.00000795,-0.
 00000745,-0.00000127,-0.00000080,0.00000674,-0.00000160,-0.00000504,0.
 00001866,0.00000335,0.00000162,0.00000053,-0.00000216,0.00000145,-0.00
 000561,0.00002071,-0.00000359,0.00000580,-0.00000715,-0.00000159,-0.00
 000083,0.00000007,0.00000047,-0.00000027,-0.00000071,-0.00000140,0.000
 00102,-0.00000032,0.00000114,0.00000010,0.00000095,-0.00000167,0.00000
 073,-0.00000063,-0.00000499,-0.00001016,-0.00000114,-0.00000635,-0.000
 01165,-0.00001431,-0.00000024,0.00000119,0.00000006,-0.00000156,0.0000
 0112,-0.00000148,0.00000085,0.00000502,0.00000014,-0.00000165,0.000011
 89,-0.00001771,0.00000208,0.00000118,-0.00000089,0.00000147,-0.0000005
 2,0.00000023,0.00000111,0.00000047,0.00000055,-0.00000057,0.00000077,0
 .00000041,0.00000003,0.00000168,-0.00000056,-0.00000026,-0.00000001,0.
 ,-0.00000006,-0.00000007,0.00000016,0.00000002,-0.00000014,0.,0.000000
 05,-0.00000014,-0.00000001,0.00000004,-0.00000020,0.00000024,0.0000000
 9,-0.00000089,0.00000007,-0.00016590,-0.00001477,-0.00032901,0.0005906
 5,-0.00036298,0.00004015,-0.00014466,0.00070413,0.00096467,0.01997138,
 0.00875984,0.00433381,-0.09908650,-0.09010937,-0.01872169,0.00330131,-
 0.00219534,-0.00121547,-0.00096484,0.00089541,0.00033444,-0.00275311,-
 0.00274230,-0.00024545,-0.02530132,-0.01039367,-0.00653910,0.10456207,
 0.09543289,-0.00000843,0.00000204,0.00000191,0.00000861,-0.00001338,0.
 00000014,-0.00001264,0.00001361,0.00000287,0.00000141,-0.00001327,0.00
 000067,0.00000298,-0.00002792,-0.00000649,0.00000127,-0.00000032,-0.00
 000074,0.00000363,0.00000318,0.00000354,0.,-0.00000093,0.00000006,0.00
 000224,0.00000194,0.00000024,-0.00000047,-0.00000054,-0.00000077,-0.00
 000010,0.00000039,-0.00000017,-0.00000044,-0.00000038,-0.00000017,0.00
 000238,-0.00000145,0.00000064,-0.00000505,0.00002172,-0.00000740,0.000
 01312,0.00004623,0.00000107,-0.00000053,-0.00000273,-0.00000018,0.0000
 0002,-0.00000133,0.00000098,-0.00000310,-0.00000257,-0.00000657,0.0000
 0057,0.00000309,0.00000249,-0.00000035,-0.00000075,0.00000051,0.000001
 30,-0.00000016,-0.00000008,-0.00000116,-0.00000128,-0.00000054,-0.0000
 0042,0.00000077,0.00000113,-0.00000083,-0.00000029,0.00000126,0.000000
 89,-0.00000041,-0.00000004,0.00000017,-0.00000004,0.00000002,-0.000000
 02,0.00000029,-0.00000005,0.00000020,-0.00000011,-0.00000073,0.0000004
 0,0.00000016,-0.00000011,-0.00000021,0.00000012,-0.00000056,-0.0000057
 6,-0.00010609,-0.00008380,-0.00008158,-0.00029182,0.00018018,-0.000527
 96,0.00053999,-0.00000755,0.01197361,0.00557436,0.00173835,-0.04256147
 ,-0.01816338,-0.05649507,0.00198951,-0.00176382,0.00011731,-0.00034462
 ,0.00077659,0.00039738,-0.02903170,-0.01303936,-0.00384522,0.01476158,
 0.00504749,0.00236475,0.04382294,0.02140036,0.05564073\\0.00001125,0.0
 0000477,-0.00001195,-0.00001552,0.00000229,0.00000458,0.00000497,0.000
 00141,-0.00000574,-0.00000229,0.00000098,-0.00000480,0.00000814,0.0000
 0472,0.00000950,-0.00000361,0.00000162,-0.00000498,0.00000036,-0.00000
 074,-0.00000361,-0.00000123,0.00000039,-0.00000102,-0.00001514,-0.0000
 0127,0.00000645,0.00001069,-0.00001077,0.00000532,0.,0.00001411,-0.000
 01188,-0.00001345,-0.00000372,0.00000575,0.00001034,-0.00000889,0.0000
 0104,0.00000002,0.00000112,-0.00000030,-0.00000856,-0.00001995,-0.0000
 0163,-0.00000133,0.00000113,-0.00000442,-0.00000106,-0.00000333,-0.000
 00454,0.00000008,-0.00000116,-0.00000018,-0.00000081,0.00000087,-0.000
 00092,-0.00000106,0.,-0.00000349,-0.00000088,-0.00000052,-0.00000431,-
 0.00000043,-0.00000111,-0.00000326,0.00000340,0.,-0.00000040,0.0000040
 8,0.00000172,0.00000232,-0.00000038,-0.00000110,0.00000053,-0.00000005
 ,-0.00000147,-0.00000374,-0.00000342,-0.00000115,-0.00000307,0.0000013
 2,-0.00000045,0.00000095,-0.00000261,0.00000092,0.00000069,0.00000058,
 0.00000142,0.00000353,0.00000445,0.00000064,0.00000219,0.00000374,0.00
 000639,-0.00000333,-0.00000029,0.00000685,0.00000716,-0.00000143,-0.00
 000004,0.00000640,0.00000491,-0.00000199,0.00000129,0.00000244,-0.0000
 0028,0.00000301,0.00000063,0.00000341,0.00000339,0.00000111,-0.0000006
 5,0.00000499,0.00000029,0.00000135,0.00000486,0.00000075,0.00000249,0.
 00000365\\\@


 A MAN IS EXACTLY AS GREAT AS THE TIDE SURGING
 BENEATH HIM.      - BISMARCK
 Job cpu time:       0 days 11 hours 28 minutes 41.7 seconds.
 File lengths (MBytes):  RWF=   1410 Int=      0 D2E=      0 Chk=     37 Scr=      1
 Normal termination of Gaussian 09 at Fri Nov 15 05:28:18 2019.
pbs_rusage has been removed.
Please contact help@nci.org.au if you require this functionality.
