 Entering Gaussian System, Link 0=/apps/gaussian/g09e01/g09/g09
 Initial command:
 /apps/gaussian/g09e01/g09/l1.exe "/jobfs/local/3594995.r-man2/Gau-21914.inp" -scrdir="/jobfs/local/3594995.r-man2/"
 Entering Link 1 = /apps/gaussian/g09e01/g09/l1.exe PID=     21915.
  
 Copyright (c) 1988,1990,1992,1993,1995,1998,2003,2009,2015,
            Gaussian, Inc.  All Rights Reserved.
  
 This is part of the Gaussian(R) 09 program.  It is based on
 the Gaussian(R) 03 system (copyright 2003, Gaussian, Inc.),
 the Gaussian(R) 98 system (copyright 1998, Gaussian, Inc.),
 the Gaussian(R) 94 system (copyright 1995, Gaussian, Inc.),
 the Gaussian 92(TM) system (copyright 1992, Gaussian, Inc.),
 the Gaussian 90(TM) system (copyright 1990, Gaussian, Inc.),
 the Gaussian 88(TM) system (copyright 1988, Gaussian, Inc.),
 the Gaussian 86(TM) system (copyright 1986, Carnegie Mellon
 University), and the Gaussian 82(TM) system (copyright 1983,
 Carnegie Mellon University). Gaussian is a federally registered
 trademark of Gaussian, Inc.
  
 This software contains proprietary and confidential information,
 including trade secrets, belonging to Gaussian, Inc.
  
 This software is provided under written license and may be
 used, copied, transmitted, or stored only in accord with that
 written license.
  
 The following legend is applicable only to US Government
 contracts under FAR:
  
                    RESTRICTED RIGHTS LEGEND
  
 Use, reproduction and disclosure by the US Government is
 subject to restrictions as set forth in subparagraphs (a)
 and (c) of the Commercial Computer Software - Restricted
 Rights clause in FAR 52.227-19.
  
 Gaussian, Inc.
 340 Quinnipiac St., Bldg. 40, Wallingford CT 06492
  
  
 ---------------------------------------------------------------
 Warning -- This program may not be used in any manner that
 competes with the business of Gaussian, Inc. or will provide
 assistance to any competitor of Gaussian, Inc.  The licensee
 of this program is prohibited from giving any competitor of
 Gaussian, Inc. access to this program.  By using this program,
 the user acknowledges that Gaussian, Inc. is engaged in the
 business of creating and licensing software in the field of
 computational chemistry and represents and warrants to the
 licensee that it is not a competitor of Gaussian, Inc. and that
 it will not use this program in any manner prohibited above.
 ---------------------------------------------------------------
  

 Cite this work as:
 Gaussian 09, Revision E.01,
 M. J. Frisch, G. W. Trucks, H. B. Schlegel, G. E. Scuseria, 
 M. A. Robb, J. R. Cheeseman, G. Scalmani, V. Barone, B. Mennucci, 
 G. A. Petersson, H. Nakatsuji, M. Caricato, X. Li, H. P. Hratchian, 
 A. F. Izmaylov, J. Bloino, G. Zheng, J. L. Sonnenberg, M. Hada, 
 M. Ehara, K. Toyota, R. Fukuda, J. Hasegawa, M. Ishida, T. Nakajima, 
 Y. Honda, O. Kitao, H. Nakai, T. Vreven, J. A. Montgomery, Jr., 
 J. E. Peralta, F. Ogliaro, M. Bearpark, J. J. Heyd, E. Brothers, 
 K. N. Kudin, V. N. Staroverov, T. Keith, R. Kobayashi, J. Normand, 
 K. Raghavachari, A. Rendell, J. C. Burant, S. S. Iyengar, J. Tomasi, 
 M. Cossi, N. Rega, J. M. Millam, M. Klene, J. E. Knox, J. B. Cross, 
 V. Bakken, C. Adamo, J. Jaramillo, R. Gomperts, R. E. Stratmann, 
 O. Yazyev, A. J. Austin, R. Cammi, C. Pomelli, J. W. Ochterski, 
 R. L. Martin, K. Morokuma, V. G. Zakrzewski, G. A. Voth, 
 P. Salvador, J. J. Dannenberg, S. Dapprich, A. D. Daniels, 
 O. Farkas, J. B. Foresman, J. V. Ortiz, J. Cioslowski, 
 and D. J. Fox, Gaussian, Inc., Wallingford CT, 2013.
 
 ******************************************
 Gaussian 09:  ES64L-G09RevE.01 30-Nov-2015
                14-Nov-2019 
 ******************************************
 %chk=29_c2_carboxy.M062X_6-311pGd_opt_GD3.chk
 %mem=196608000
 %nproc=8
 Will use up to    8 processors via shared memory.
 ----------------------------------------------------------------------
 # M062X/6-311+G* SCF=Tight INT(grid=ultrafine) OPT IOP(2/17=4) Empiric
 alDispersion=GD3 maxdisk=2684354560
 ----------------------------------------------------------------------
 1/14=-1,18=20,19=15,26=4,38=1/1,3;
 2/9=110,12=2,17=4,18=5,40=1/2;
 3/5=4,6=6,7=11,11=2,16=1,25=1,30=1,71=1,74=-55,75=-5,124=31/1,2,3;
 4//1;
 5/5=2,32=2,38=5/2;
 6/7=2,8=2,9=2,10=2,28=1/1;
 7//1,2,3,16;
 1/14=-1,18=20,19=15,26=4/3(2);
 2/9=110,17=4/2;
 99//99;
 2/9=110,17=4/2;
 3/5=4,6=6,7=11,11=2,16=1,25=1,30=1,71=1,74=-55,75=-5,124=31/1,2,3;
 4/5=5,16=3,69=1/1;
 5/5=2,32=2,38=5/2;
 7//1,2,3,16;
 1/14=-1,18=20,19=15,26=4/3(-5);
 2/9=110,17=4/2;
 6/7=2,8=2,9=2,10=2,19=2,28=1/1;
 99/9=1/99;
 ------------------------------------
 29_c2_carboxy.M062X_6-311pGd_opt_GD3
 ------------------------------------
 Symbolic Z-matrix:
 Charge = -1 Multiplicity = 1
 C                    -6.11674   1.42095   0.64203 
 N                    -4.86619   0.8437    0.61027 
 C                    -3.65985   1.47421   0.33993 
 O                    -3.55049   2.67187   0.09304 
 N                    -2.60805   0.62258   0.38694 
 C                    -1.28114   1.08001   0.04416 
 C                    -0.25283   0.03189   0.45109 
 C                     1.16094   0.44565   0.05551 
 C                    -7.20033   0.56192   0.91408 
 C                    -8.49856   1.0426    0.97092 
 C                    -8.7482    2.4007    0.75572 
 C                    -7.69033   3.25207   0.48727 
 C                    -6.38425   2.78162   0.42858 
 H                    -4.84576  -0.17946   0.79265 
 H                    -2.75589  -0.39233   0.49357 
 H                    -1.08655   2.03026   0.55093 
 H                    -1.20417   1.28218  -1.03383 
 H                    -0.5157   -0.92663  -0.00585 
 H                    -0.31767  -0.12329   1.53224 
 H                     1.24538   0.57308  -1.02758 
 H                     1.89676  -0.30256   0.35909 
 H                     1.44035   1.39572   0.5207 
 H                    -6.99583  -0.49158   1.07809 
 C                    -9.62142   0.08745   1.26421 
 Cl                   -10.36798   3.06401   0.8154 
 H                    -7.89084   4.30419   0.32128 
 H                    -5.56733   3.45502   0.21841 
 F                    -10.3003   0.42433   2.37712 
 F                    -10.52488   0.04012   0.26697 
 F                    -9.19061  -1.16567   1.4466 
 O                    -5.04496  -1.86459   1.08247 
 O                    -2.87456  -2.18277   0.64342 
 C                    -4.02293  -2.5832    0.93572 
 C                    -4.23234  -4.09085   1.14089 
 C                    -2.97407  -4.92835   0.96045 
 H                    -5.01892  -4.40219   0.44647 
 H                    -4.65612  -4.22199   2.14137 
 H                    -2.56403  -4.79838  -0.04248 
 H                    -3.17671  -5.99226   1.1181 
 H                    -2.19801  -4.61546   1.66101 
 
 Add virtual bond connecting atoms O31        and H14        Dist= 3.25D+00.
 Add virtual bond connecting atoms O32        and H15        Dist= 3.40D+00.

 GradGradGradGradGradGradGradGradGradGradGradGradGradGradGradGradGradGrad
 Berny optimization.
 Initialization pass.
                           ----------------------------
                           !    Initial Parameters    !
                           ! (Angstroms and Degrees)  !
 --------------------------                            --------------------------
 ! Name  Definition              Value          Derivative Info.                !
 --------------------------------------------------------------------------------
 ! R1    R(1,2)                  1.3777         estimate D2E/DX2                !
 ! R2    R(1,9)                  1.4093         estimate D2E/DX2                !
 ! R3    R(1,13)                 1.403          estimate D2E/DX2                !
 ! R4    R(2,3)                  1.3878         estimate D2E/DX2                !
 ! R5    R(2,14)                 1.0395         estimate D2E/DX2                !
 ! R6    R(3,4)                  1.2277         estimate D2E/DX2                !
 ! R7    R(3,5)                  1.3542         estimate D2E/DX2                !
 ! R8    R(5,6)                  1.4448         estimate D2E/DX2                !
 ! R9    R(5,15)                 1.0311         estimate D2E/DX2                !
 ! R10   R(6,7)                  1.5237         estimate D2E/DX2                !
 ! R11   R(6,16)                 1.0944         estimate D2E/DX2                !
 ! R12   R(6,17)                 1.0995         estimate D2E/DX2                !
 ! R13   R(7,8)                  1.5253         estimate D2E/DX2                !
 ! R14   R(7,18)                 1.0939         estimate D2E/DX2                !
 ! R15   R(7,19)                 1.0942         estimate D2E/DX2                !
 ! R16   R(8,20)                 1.0938         estimate D2E/DX2                !
 ! R17   R(8,21)                 1.0924         estimate D2E/DX2                !
 ! R18   R(8,22)                 1.0941         estimate D2E/DX2                !
 ! R19   R(9,10)                 1.3855         estimate D2E/DX2                !
 ! R20   R(9,23)                 1.0856         estimate D2E/DX2                !
 ! R21   R(10,11)                1.3975         estimate D2E/DX2                !
 ! R22   R(10,24)                1.503          estimate D2E/DX2                !
 ! R23   R(11,12)                1.3842         estimate D2E/DX2                !
 ! R24   R(11,25)                1.7513         estimate D2E/DX2                !
 ! R25   R(12,13)                1.3895         estimate D2E/DX2                !
 ! R26   R(12,26)                1.0838         estimate D2E/DX2                !
 ! R27   R(13,27)                1.0794         estimate D2E/DX2                !
 ! R28   R(14,31)                1.7214         estimate D2E/DX2                !
 ! R29   R(15,32)                1.8006         estimate D2E/DX2                !
 ! R30   R(24,28)                1.3465         estimate D2E/DX2                !
 ! R31   R(24,29)                1.3465         estimate D2E/DX2                !
 ! R32   R(24,30)                1.3376         estimate D2E/DX2                !
 ! R33   R(31,33)                1.258          estimate D2E/DX2                !
 ! R34   R(32,33)                1.2508         estimate D2E/DX2                !
 ! R35   R(33,34)                1.5359         estimate D2E/DX2                !
 ! R36   R(34,35)                1.5222         estimate D2E/DX2                !
 ! R37   R(34,36)                1.0945         estimate D2E/DX2                !
 ! R38   R(34,37)                1.0944         estimate D2E/DX2                !
 ! R39   R(35,38)                1.0913         estimate D2E/DX2                !
 ! R40   R(35,39)                1.0944         estimate D2E/DX2                !
 ! R41   R(35,40)                1.0913         estimate D2E/DX2                !
 ! A1    A(2,1,9)              116.5498         estimate D2E/DX2                !
 ! A2    A(2,1,13)             125.1623         estimate D2E/DX2                !
 ! A3    A(9,1,13)             118.2878         estimate D2E/DX2                !
 ! A4    A(1,2,3)              127.097          estimate D2E/DX2                !
 ! A5    A(1,2,14)             115.2266         estimate D2E/DX2                !
 ! A6    A(3,2,14)             117.6645         estimate D2E/DX2                !
 ! A7    A(2,3,4)              124.0431         estimate D2E/DX2                !
 ! A8    A(2,3,5)              112.5002         estimate D2E/DX2                !
 ! A9    A(4,3,5)              123.4552         estimate D2E/DX2                !
 ! A10   A(3,5,6)              120.3972         estimate D2E/DX2                !
 ! A11   A(3,5,15)             120.7447         estimate D2E/DX2                !
 ! A12   A(6,5,15)             117.8939         estimate D2E/DX2                !
 ! A13   A(5,6,7)              109.7956         estimate D2E/DX2                !
 ! A14   A(5,6,16)             109.1686         estimate D2E/DX2                !
 ! A15   A(5,6,17)             110.8011         estimate D2E/DX2                !
 ! A16   A(7,6,16)             110.7092         estimate D2E/DX2                !
 ! A17   A(7,6,17)             109.9435         estimate D2E/DX2                !
 ! A18   A(16,6,17)            106.3741         estimate D2E/DX2                !
 ! A19   A(6,7,8)              111.6962         estimate D2E/DX2                !
 ! A20   A(6,7,18)             109.2089         estimate D2E/DX2                !
 ! A21   A(6,7,19)             108.7511         estimate D2E/DX2                !
 ! A22   A(8,7,18)             110.6156         estimate D2E/DX2                !
 ! A23   A(8,7,19)             110.4675         estimate D2E/DX2                !
 ! A24   A(18,7,19)            105.9167         estimate D2E/DX2                !
 ! A25   A(7,8,20)             111.0981         estimate D2E/DX2                !
 ! A26   A(7,8,21)             111.4972         estimate D2E/DX2                !
 ! A27   A(7,8,22)             111.2225         estimate D2E/DX2                !
 ! A28   A(20,8,21)            107.6358         estimate D2E/DX2                !
 ! A29   A(20,8,22)            107.4651         estimate D2E/DX2                !
 ! A30   A(21,8,22)            107.7319         estimate D2E/DX2                !
 ! A31   A(1,9,10)             121.1241         estimate D2E/DX2                !
 ! A32   A(1,9,23)             118.4142         estimate D2E/DX2                !
 ! A33   A(10,9,23)            120.4617         estimate D2E/DX2                !
 ! A34   A(9,10,11)            119.881          estimate D2E/DX2                !
 ! A35   A(9,10,24)            119.1785         estimate D2E/DX2                !
 ! A36   A(11,10,24)           120.9405         estimate D2E/DX2                !
 ! A37   A(10,11,12)           119.4103         estimate D2E/DX2                !
 ! A38   A(10,11,25)           121.872          estimate D2E/DX2                !
 ! A39   A(12,11,25)           118.7177         estimate D2E/DX2                !
 ! A40   A(11,12,13)           121.2199         estimate D2E/DX2                !
 ! A41   A(11,12,26)           119.0369         estimate D2E/DX2                !
 ! A42   A(13,12,26)           119.7432         estimate D2E/DX2                !
 ! A43   A(1,13,12)            120.0769         estimate D2E/DX2                !
 ! A44   A(1,13,27)            119.3647         estimate D2E/DX2                !
 ! A45   A(12,13,27)           120.5584         estimate D2E/DX2                !
 ! A46   A(10,24,28)           112.2691         estimate D2E/DX2                !
 ! A47   A(10,24,29)           112.2773         estimate D2E/DX2                !
 ! A48   A(10,24,30)           112.4166         estimate D2E/DX2                !
 ! A49   A(28,24,29)           106.4186         estimate D2E/DX2                !
 ! A50   A(28,24,30)           106.5034         estimate D2E/DX2                !
 ! A51   A(29,24,30)           106.5093         estimate D2E/DX2                !
 ! A52   A(14,31,33)           116.4584         estimate D2E/DX2                !
 ! A53   A(15,32,33)           113.4709         estimate D2E/DX2                !
 ! A54   A(31,33,32)           126.1775         estimate D2E/DX2                !
 ! A55   A(31,33,34)           115.7464         estimate D2E/DX2                !
 ! A56   A(32,33,34)           118.0761         estimate D2E/DX2                !
 ! A57   A(33,34,35)           114.3009         estimate D2E/DX2                !
 ! A58   A(33,34,36)           107.0063         estimate D2E/DX2                !
 ! A59   A(33,34,37)           107.0098         estimate D2E/DX2                !
 ! A60   A(35,34,36)           111.244          estimate D2E/DX2                !
 ! A61   A(35,34,37)           111.2542         estimate D2E/DX2                !
 ! A62   A(36,34,37)           105.5241         estimate D2E/DX2                !
 ! A63   A(34,35,38)           110.732          estimate D2E/DX2                !
 ! A64   A(34,35,39)           111.3894         estimate D2E/DX2                !
 ! A65   A(34,35,40)           110.7306         estimate D2E/DX2                !
 ! A66   A(38,35,39)           108.5259         estimate D2E/DX2                !
 ! A67   A(38,35,40)           106.7752         estimate D2E/DX2                !
 ! A68   A(39,35,40)           108.537          estimate D2E/DX2                !
 ! A69   L(2,14,31,7,-1)       187.7314         estimate D2E/DX2                !
 ! A70   L(5,15,32,7,-1)       175.5343         estimate D2E/DX2                !
 ! A71   L(2,14,31,7,-2)       180.8608         estimate D2E/DX2                !
 ! A72   L(5,15,32,7,-2)       181.2487         estimate D2E/DX2                !
 ! D1    D(9,1,2,3)            178.678          estimate D2E/DX2                !
 ! D2    D(9,1,2,14)            -0.0308         estimate D2E/DX2                !
 ! D3    D(13,1,2,3)            -1.4364         estimate D2E/DX2                !
 ! D4    D(13,1,2,14)          179.8548         estimate D2E/DX2                !
 ! D5    D(2,1,9,10)           179.8795         estimate D2E/DX2                !
 ! D6    D(2,1,9,23)            -0.1962         estimate D2E/DX2                !
 ! D7    D(13,1,9,10)           -0.0142         estimate D2E/DX2                !
 ! D8    D(13,1,9,23)          179.91           estimate D2E/DX2                !
 ! D9    D(2,1,13,12)         -179.9089         estimate D2E/DX2                !
 ! D10   D(2,1,13,27)            0.1446         estimate D2E/DX2                !
 ! D11   D(9,1,13,12)           -0.0251         estimate D2E/DX2                !
 ! D12   D(9,1,13,27)         -179.9716         estimate D2E/DX2                !
 ! D13   D(1,2,3,4)              0.4313         estimate D2E/DX2                !
 ! D14   D(1,2,3,5)           -179.9913         estimate D2E/DX2                !
 ! D15   D(14,2,3,4)           179.1124         estimate D2E/DX2                !
 ! D16   D(14,2,3,5)            -1.3101         estimate D2E/DX2                !
 ! D17   D(1,2,31,33)          171.6629         estimate D2E/DX2                !
 ! D18   D(3,2,31,33)           -6.381          estimate D2E/DX2                !
 ! D19   D(2,3,5,6)            175.8305         estimate D2E/DX2                !
 ! D20   D(2,3,5,15)             7.3013         estimate D2E/DX2                !
 ! D21   D(4,3,5,6)             -4.5892         estimate D2E/DX2                !
 ! D22   D(4,3,5,15)          -173.1184         estimate D2E/DX2                !
 ! D23   D(3,5,6,7)            168.3044         estimate D2E/DX2                !
 ! D24   D(3,5,6,16)            46.7695         estimate D2E/DX2                !
 ! D25   D(3,5,6,17)           -70.0591         estimate D2E/DX2                !
 ! D26   D(15,5,6,7)           -22.8461         estimate D2E/DX2                !
 ! D27   D(15,5,6,16)         -144.381          estimate D2E/DX2                !
 ! D28   D(15,5,6,17)           98.7904         estimate D2E/DX2                !
 ! D29   D(3,5,32,33)          -11.4365         estimate D2E/DX2                !
 ! D30   D(6,5,32,33)         -179.7705         estimate D2E/DX2                !
 ! D31   D(5,6,7,8)            177.6141         estimate D2E/DX2                !
 ! D32   D(5,6,7,18)            54.9368         estimate D2E/DX2                !
 ! D33   D(5,6,7,19)           -60.2115         estimate D2E/DX2                !
 ! D34   D(16,6,7,8)           -61.7785         estimate D2E/DX2                !
 ! D35   D(16,6,7,18)          175.5442         estimate D2E/DX2                !
 ! D36   D(16,6,7,19)           60.3959         estimate D2E/DX2                !
 ! D37   D(17,6,7,8)            55.4658         estimate D2E/DX2                !
 ! D38   D(17,6,7,18)          -67.2115         estimate D2E/DX2                !
 ! D39   D(17,6,7,19)          177.6403         estimate D2E/DX2                !
 ! D40   D(6,7,8,20)           -60.5989         estimate D2E/DX2                !
 ! D41   D(6,7,8,21)           179.3367         estimate D2E/DX2                !
 ! D42   D(6,7,8,22)            59.0655         estimate D2E/DX2                !
 ! D43   D(18,7,8,20)           61.2715         estimate D2E/DX2                !
 ! D44   D(18,7,8,21)          -58.7929         estimate D2E/DX2                !
 ! D45   D(18,7,8,22)         -179.064          estimate D2E/DX2                !
 ! D46   D(19,7,8,20)          178.2176         estimate D2E/DX2                !
 ! D47   D(19,7,8,21)           58.1532         estimate D2E/DX2                !
 ! D48   D(19,7,8,22)          -62.1179         estimate D2E/DX2                !
 ! D49   D(1,9,10,11)            0.0263         estimate D2E/DX2                !
 ! D50   D(1,9,10,24)          179.9913         estimate D2E/DX2                !
 ! D51   D(23,9,10,11)        -179.8964         estimate D2E/DX2                !
 ! D52   D(23,9,10,24)           0.0686         estimate D2E/DX2                !
 ! D53   D(9,10,11,12)           0.0013         estimate D2E/DX2                !
 ! D54   D(9,10,11,25)        -179.9956         estimate D2E/DX2                !
 ! D55   D(24,10,11,12)       -179.9631         estimate D2E/DX2                !
 ! D56   D(24,10,11,25)          0.04           estimate D2E/DX2                !
 ! D57   D(9,10,24,28)         120.3608         estimate D2E/DX2                !
 ! D58   D(9,10,24,29)        -119.7827         estimate D2E/DX2                !
 ! D59   D(9,10,24,30)           0.2958         estimate D2E/DX2                !
 ! D60   D(11,10,24,28)        -59.6745         estimate D2E/DX2                !
 ! D61   D(11,10,24,29)         60.182          estimate D2E/DX2                !
 ! D62   D(11,10,24,30)       -179.7396         estimate D2E/DX2                !
 ! D63   D(10,11,12,13)         -0.0412         estimate D2E/DX2                !
 ! D64   D(10,11,12,26)        179.9966         estimate D2E/DX2                !
 ! D65   D(25,11,12,13)        179.9558         estimate D2E/DX2                !
 ! D66   D(25,11,12,26)         -0.0064         estimate D2E/DX2                !
 ! D67   D(11,12,13,1)           0.0534         estimate D2E/DX2                !
 ! D68   D(11,12,13,27)        179.9992         estimate D2E/DX2                !
 ! D69   D(26,12,13,1)        -179.9846         estimate D2E/DX2                !
 ! D70   D(26,12,13,27)         -0.0388         estimate D2E/DX2                !
 ! D71   D(14,31,33,32)          2.4829         estimate D2E/DX2                !
 ! D72   D(14,31,33,34)       -177.5382         estimate D2E/DX2                !
 ! D73   D(15,32,33,31)          2.1876         estimate D2E/DX2                !
 ! D74   D(15,32,33,34)       -177.7909         estimate D2E/DX2                !
 ! D75   D(31,33,34,35)       -179.7901         estimate D2E/DX2                !
 ! D76   D(31,33,34,36)         56.5784         estimate D2E/DX2                !
 ! D77   D(31,33,34,37)        -56.143          estimate D2E/DX2                !
 ! D78   D(32,33,34,35)          0.1906         estimate D2E/DX2                !
 ! D79   D(32,33,34,36)       -123.4409         estimate D2E/DX2                !
 ! D80   D(32,33,34,37)        123.8377         estimate D2E/DX2                !
 ! D81   D(33,34,35,38)        -59.1895         estimate D2E/DX2                !
 ! D82   D(33,34,35,39)        179.9388         estimate D2E/DX2                !
 ! D83   D(33,34,35,40)         59.054          estimate D2E/DX2                !
 ! D84   D(36,34,35,38)         62.1325         estimate D2E/DX2                !
 ! D85   D(36,34,35,39)        -58.7392         estimate D2E/DX2                !
 ! D86   D(36,34,35,40)       -179.624          estimate D2E/DX2                !
 ! D87   D(37,34,35,38)        179.4762         estimate D2E/DX2                !
 ! D88   D(37,34,35,39)         58.6045         estimate D2E/DX2                !
 ! D89   D(37,34,35,40)        -62.2803         estimate D2E/DX2                !
 --------------------------------------------------------------------------------
 Trust Radius=3.00D-01 FncErr=1.00D-07 GrdErr=1.00D-06
 Number of steps in this run=    212 maximum allowed number of steps=    240.
 GradGradGradGradGradGradGradGradGradGradGradGradGradGradGradGradGradGrad

                          Input orientation:                          
 ---------------------------------------------------------------------
 Center     Atomic      Atomic             Coordinates (Angstroms)
 Number     Number       Type             X           Y           Z
 ---------------------------------------------------------------------
      1          6           0       -6.116739    1.420949    0.642028
      2          7           0       -4.866189    0.843704    0.610273
      3          6           0       -3.659855    1.474209    0.339935
      4          8           0       -3.550491    2.671870    0.093041
      5          7           0       -2.608046    0.622579    0.386945
      6          6           0       -1.281138    1.080013    0.044160
      7          6           0       -0.252826    0.031888    0.451087
      8          6           0        1.160940    0.445647    0.055506
      9          6           0       -7.200328    0.561915    0.914076
     10          6           0       -8.498562    1.042595    0.970922
     11          6           0       -8.748204    2.400701    0.755718
     12          6           0       -7.690327    3.252073    0.487273
     13          6           0       -6.384255    2.781616    0.428583
     14          1           0       -4.845762   -0.179456    0.792648
     15          1           0       -2.755891   -0.392331    0.493569
     16          1           0       -1.086546    2.030264    0.550931
     17          1           0       -1.204172    1.282183   -1.033830
     18          1           0       -0.515698   -0.926632   -0.005855
     19          1           0       -0.317670   -0.123286    1.532236
     20          1           0        1.245380    0.573079   -1.027580
     21          1           0        1.896755   -0.302560    0.359088
     22          1           0        1.440352    1.395723    0.520703
     23          1           0       -6.995833   -0.491577    1.078091
     24          6           0       -9.621420    0.087454    1.264205
     25         17           0      -10.367981    3.064014    0.815401
     26          1           0       -7.890843    4.304186    0.321281
     27          1           0       -5.567333    3.455024    0.218410
     28          9           0      -10.300304    0.424331    2.377118
     29          9           0      -10.524881    0.040124    0.266969
     30          9           0       -9.190612   -1.165674    1.446605
     31          8           0       -5.044957   -1.864587    1.082474
     32          8           0       -2.874564   -2.182768    0.643416
     33          6           0       -4.022930   -2.583196    0.935723
     34          6           0       -4.232341   -4.090848    1.140887
     35          6           0       -2.974071   -4.928354    0.960448
     36          1           0       -5.018918   -4.402192    0.446471
     37          1           0       -4.656124   -4.221991    2.141374
     38          1           0       -2.564027   -4.798378   -0.042480
     39          1           0       -3.176713   -5.992256    1.118096
     40          1           0       -2.198008   -4.615456    1.661008
 ---------------------------------------------------------------------
                    Distance matrix (angstroms):
                    1          2          3          4          5
     1  C    0.000000
     2  N    1.377713   0.000000
     3  C    2.475960   1.387754   0.000000
     4  O    2.907201   2.311013   1.227725   0.000000
     5  N    3.607408   2.279909   1.354174   2.274682   0.000000
     6  C    4.884334   3.637158   2.429232   2.772428   1.444795
     7  C    6.029214   4.686951   3.701417   4.239375   2.429010
     8  C    7.366128   6.065683   4.937500   5.211052   3.787666
     9  C    1.409296   2.370634   3.700928   4.295034   4.622836
    10  C    2.434010   3.655647   4.898727   5.282861   5.934276
    11  C    2.810240   4.185144   5.188696   5.246799   6.403067
    12  C    2.419327   3.713640   4.407632   4.198845   5.723102
    13  C    1.403046   2.468407   3.023165   2.855670   4.350049
    14  H    2.049235   1.039488   2.084690   3.208931   2.411479
    15  H    3.821691   2.448420   2.079597   3.190789   1.031149
    16  H    5.067781   3.961963   2.641143   2.586957   2.079286
    17  H    5.192405   4.038033   2.820369   2.950640   2.103459
    18  H    6.107581   4.737138   3.971061   4.708393   2.632919
    19  H    6.066822   4.740687   3.891500   4.509469   2.667176
    20  H    7.596530   6.333015   5.171408   5.353605   4.105145
    21  H    8.201623   6.863996   5.833797   6.212126   4.598901
    22  H    7.558107   6.331288   5.104013   5.169135   4.123732
    23  H    2.149585   2.556798   3.941820   4.779970   4.579488
    24  C    3.801066   4.859194   6.190123   6.701270   7.088256
    25  Cl   4.561007   5.936461   6.910319   6.866859   8.146213
    26  H    3.400497   4.605104   5.090224   4.642759   6.439448
    27  H    2.149130   2.732059   2.752611   2.167187   4.099821
    28  F    4.637456   5.729504   7.024808   7.471842   7.948014
    29  F    4.634551   5.725766   7.013595   7.456437   7.939139
    30  F    4.097152   4.841248   6.227597   6.954843   6.902963
    31  O    3.483885   2.754955   3.690180   4.877689   3.550816
    32  O    4.847523   3.623149   3.752634   4.932271   2.829625
    33  C    4.528076   3.544101   4.116955   5.343129   3.546836
    34  C    5.846342   5.003311   5.651470   6.877300   5.042138
    35  C    7.091642   6.084356   6.469014   7.671248   5.592471
    36  H    5.928948   5.250675   6.032452   7.233501   5.573524
    37  H    6.018654   5.296194   6.056767   7.276222   5.544592
    38  H    7.195160   6.128550   6.379061   7.536317   5.438116
    39  H    7.989117   7.059926   7.522436   8.732555   6.679371
    40  H    7.268629   6.166496   6.400488   7.575807   5.406328
                    6          7          8          9         10
     6  C    0.000000
     7  C    1.523674   0.000000
     8  C    2.523152   1.525259   0.000000
     9  C    6.005164   6.983057   8.406038   0.000000
    10  C    7.276778   8.323697   9.721128   1.385531   0.000000
    11  C    7.616273   8.824712  10.124410   2.408761   1.397529
    12  C    6.781733   8.104772   9.295557   2.767527   2.401865
    13  C    5.393054   6.719816   7.907332   2.414280   2.790810
    14  H    3.853964   4.610465   6.083963   2.471510   3.855923
    15  H    2.131821   2.539114   4.029351   4.565133   5.938447
    16  H    1.094376   2.167617   2.794217   6.298116   7.489317
    17  H    1.099481   2.161776   2.734996   6.345630   7.568657
    18  H    2.148261   1.093918   2.167494   6.909872   8.279980
    19  H    2.142562   1.094151   2.165803   6.944250   8.282594
    20  H    2.790860   2.173469   1.093821   8.666034   9.957855
    21  H    3.479899   2.177388   1.092428   9.154904  10.499829
    22  H    2.780876   2.175257   1.094132   8.689726   9.955371
    23  H    6.016366   6.792297   8.273876   1.085618   2.150201
    24  C    8.487284   9.403979  10.855808   2.491865   1.503037
    25  Cl   9.332834  10.566120  11.846912   4.037853   2.757725
    26  H    7.359367   8.752639   9.843462   3.851338   3.380729
    27  H    4.903316   6.325819   7.372418   3.394216   3.870167
    28  F    9.339056  10.237940  11.694035   3.430637   2.367680
    29  F    9.304719  10.273709  11.694768   3.426903   2.367798
    30  F    8.340847   9.072443  10.568166   2.688751   2.362553
    31  O    4.890307   5.192281   6.701120   3.249907   4.515700
    32  O    3.680197   3.437324   4.851751   5.130184   6.491501
    33  C    4.661696   4.613808   6.068046   4.470800   5.760112
    34  C    6.053942   5.771422   7.130590   5.523459   6.676958
    35  C    6.309206   5.680547   6.840842   6.928669   8.134638
    36  H    6.647362   6.509740   7.864161   5.442386   6.482953
    37  H    6.625714   6.351503   7.744412   5.555627   6.621945
    38  H    6.017374   5.377427   6.433100   7.151435   8.388245
    39  H    7.400238   6.729363   7.835236   7.693390   8.822293
    40  H    5.991095   5.181259   6.282908   7.237838   8.496279
                   11         12         13         14         15
    11  C    0.000000
    12  C    1.384197   0.000000
    13  C    2.416686   1.389460   0.000000
    14  H    4.678422   4.467684   3.356702   0.000000
    15  H    6.616462   6.134360   4.821118   2.121868   0.000000
    16  H    7.673342   6.716160   5.352123   4.367264   2.942612
    17  H    7.833645   6.947261   5.587505   4.328232   2.746776
    18  H    8.912087   8.317455   6.955558   4.466020   2.356558
    19  H    8.834444   8.175639   6.816154   4.588438   2.663857
    20  H   10.314654   9.450854   8.075232   6.401683   4.388175
    21  H   10.990000  10.225654   8.836973   6.757564   4.655455
    22  H   10.240698   9.317535   7.946927   6.486168   4.561395
    23  H    3.397058   3.853090   3.392592   2.191279   4.281195
    24  C    2.524317   3.787817   4.293718   4.806300   6.925285
    25  Cl   1.751349   2.704231   4.012413   6.404336   8.366230
    26  H    2.132383   1.083836   2.144654   5.440382   6.960940
    27  H    3.393853   2.149554   1.079358   3.749648   4.773055
    28  F    2.990651   4.287146   4.968805   5.712016   7.818750
    29  F    2.994625   4.289504   4.968570   5.707622   7.784316
    30  F    3.659519   4.763157   4.949051   4.503110   6.550723
    31  O    5.658047   5.790722   4.879395   1.721437   2.784631
    32  O    7.451205   7.263157   6.083518   2.814454   1.800612
    33  C    6.870215   6.906611   5.883388   2.544698   2.569198
    34  C    7.917170   8.142688   7.236633   3.974486   4.034595
    35  C    9.332608   9.454435   8.447240   5.107192   4.565203
    36  H    7.764185   8.107149   7.312425   4.240438   4.604617
    37  H    7.907289   8.234323   7.414215   4.265807   4.581751
    38  H    9.524070   9.558731   8.501314   5.219022   4.442681
    39  H   10.080404  10.306709   9.367207   6.056424   5.650335
    40  H    9.641115   9.666501   8.588376   5.238583   4.416892
                   16         17         18         19         20
    16  H    0.000000
    17  H    1.756396   0.000000
    18  H    3.062533   2.531717   0.000000
    19  H    2.488354   3.057110   1.746512   0.000000
    20  H    3.170640   2.550132   2.528725   3.079075   0.000000
    21  H    3.791959   3.750651   2.518448   2.512388   1.764619
    22  H    2.605526   3.069685   3.081676   2.534014   1.764068
    23  H    6.446492   6.414810   6.584555   6.703712   8.572336
    24  C    8.782218   8.806726   9.249627   9.309996  11.116450
    25  Cl   9.342571   9.516826  10.661482  10.567947  12.019630
    26  H    7.177877   7.461930   9.047720   8.855613   9.960480
    27  H    4.713594   5.032546   6.690906   6.487635   7.501410
    28  F    9.529288   9.752440  10.160816  10.033279  12.038144
    29  F    9.650050   9.492650  10.059463  10.286631  11.853225
    30  F    8.757405   8.713655   8.798915   8.934372  10.865301
    31  O    5.578658   5.397457   4.751674   5.057832   7.068443
    32  O    4.577685   4.196337   2.750214   3.401349   5.230760
    33  C    5.482192   5.173557   3.991422   4.487309   6.447614
    34  C    6.907393   6.539775   5.014052   5.587428   7.513979
    35  C    7.221690   6.758732   4.794905   5.520153   7.212613
    36  H    7.539957   7.003977   5.706409   6.449004   8.134345
    37  H    7.373065   7.231447   5.710789   5.999385   8.237883
    38  H    7.011807   6.309136   4.380344   5.420548   6.658420
    39  H    8.309711   7.838314   5.831365   6.541441   8.201369
    40  H    6.828852   6.559879   4.383609   4.871534   6.782796
                   21         22         23         24         25
    21  H    0.000000
    22  H    1.765953   0.000000
    23  H    8.923611   8.662668   0.000000
    24  C   11.560265  11.163654   2.695111   0.000000
    25  Cl  12.726579  11.929240   4.907404   3.101400   0.000000
    26  H   10.817607   9.775997   4.936917   4.654549   2.813964
    27  H    8.357741   7.310249   4.284312   5.373066   4.853402
    28  F   12.384227  11.926143   3.666863   1.346456   3.067812
    29  F   12.426704  12.044452   3.659891   1.346462   3.077224
    30  F   11.173959  10.974308   2.325351   1.337609   4.435637
    31  O    7.151964   7.280415   2.385601   4.978706   7.259272
    32  O    5.136293   5.607063   4.475928   7.145584   9.149295
    33  C    6.369968   6.771373   3.637759   6.211551   8.495006
    34  C    7.247631   7.916220   4.538235   6.820234   9.431016
    35  C    6.744224   7.724924   5.989440   8.332938  10.888934
    36  H    8.039972   8.680063   4.427194   6.481407   9.191997
    37  H    7.840836   8.447030   4.529988   6.632866   9.352507
    38  H    6.346039   7.397237   6.280535   8.682487  11.111024
    39  H    7.660863   8.732491   6.696621   8.861065  11.568145
    40  H    6.087952   7.118443   6.353369   8.796697  11.244456
                   26         27         28         29         30
    26  H    0.000000
    27  H    2.475956   0.000000
    28  F    5.008517   6.020477   0.000000
    29  F    5.012318   6.020065   2.156566   0.000000
    30  F    5.733683   5.998955   2.150671   2.150759   0.000000
    31  O    6.836099   5.414586   5.876557   5.858544   4.219896
    32  O    8.206546   6.262294   8.058803   7.975608   6.447639
    33  C    7.923025   6.273741   7.108323   7.043040   5.382871
    34  C    9.194182   7.718377   7.663895   7.577910   5.764942
    35  C   10.479645   8.806625   9.183239   9.065396   7.282821
    36  H    9.168677   7.879633   7.410517   7.076865   5.373857
    37  H    9.299023   7.966470   7.314414   7.491417   5.512291
    38  H   10.552912   8.786725   9.642672   9.321054   7.702307
    39  H   11.352297   9.786500   9.669708   9.545134   7.718211
    40  H   10.665986   8.863752   9.568671   9.641296   7.800223
                   31         32         33         34         35
    31  O    0.000000
    32  O    2.237101   0.000000
    33  C    1.257964   1.250813   0.000000
    34  C    2.370652   2.394119   1.535890   0.000000
    35  C    3.700017   2.765620   2.569140   1.522241   0.000000
    36  H    2.616222   3.092391   2.130752   1.094464   2.173112
    37  H    2.613391   3.094554   2.130769   1.094425   2.173209
    38  H    4.003456   2.721819   2.827067   2.164307   1.091281
    39  H    4.530921   3.850820   3.517247   2.174907   1.094442
    40  H    4.000888   2.722351   2.826033   2.164313   1.091313
                   36         37         38         39         40
    36  H    0.000000
    37  H    1.742638   0.000000
    38  H    2.534270   3.078686   0.000000
    39  H    2.524500   2.523805   1.774166   0.000000
    40  H    3.078655   2.535331   1.751943   1.774315   0.000000
 Stoichiometry    C14H17ClF3N2O3(1-)
 Framework group  C1[X(C14H17ClF3N2O3)]
 Deg. of freedom   114
 Full point group                 C1      NOp   1
 Largest Abelian subgroup         C1      NOp   1
 Largest concise Abelian subgroup C1      NOp   1
                         Standard orientation:                         
 ---------------------------------------------------------------------
 Center     Atomic      Atomic             Coordinates (Angstroms)
 Number     Number       Type             X           Y           Z
 ---------------------------------------------------------------------
      1          6           0        0.678087   -1.006095    0.004222
      2          7           0       -0.685258   -0.809470    0.031139
      3          6           0       -1.672605   -1.783244   -0.021489
      4          8           0       -1.446739   -2.987834   -0.094003
      5          7           0       -2.920374   -1.259143    0.025191
      6          6           0       -4.077684   -2.113610   -0.108788
      7          6           0       -5.336277   -1.339896    0.263897
      8          6           0       -6.592631   -2.185301    0.081467
      9          6           0        1.482212    0.150673    0.041436
     10          6           0        2.864802    0.062731    0.021285
     11          6           0        3.482011   -1.189744   -0.037415
     12          6           0        2.700460   -2.331574   -0.074868
     13          6           0        1.313221   -2.255780   -0.054331
     14          1           0       -0.988818    0.183637    0.077236
     15          1           0       -3.065811   -0.239321   -0.020392
     16          1           0       -3.955405   -2.988179    0.537616
     17          1           0       -4.163330   -2.496788   -1.135772
     18          1           0       -5.392477   -0.430751   -0.341870
     19          1           0       -5.248405   -1.004123    1.301539
     20          1           0       -6.707370   -2.500497   -0.959653
     21          1           0       -7.491896   -1.631399    0.360601
     22          1           0       -6.554128   -3.089710    0.696029
     23          1           0        0.992890    1.118769    0.085262
     24          6           0        3.680016    1.324814    0.062433
     25         17           0        5.224694   -1.361515   -0.065196
     26          1           0        3.185454   -3.299774   -0.120395
     27          1           0        0.714114   -3.153113   -0.083966
     28          9           0        4.498724    1.368832    1.130479
     29          9           0        4.463781    1.461852   -1.023797
     30          9           0        2.918016    2.422526    0.122274
     31          8           0       -1.267110    1.881949    0.117669
     32          8           0       -3.460638    1.514461   -0.123173
     33          6           0       -2.460649    2.257575   -0.012115
     34          6           0       -2.683387    3.777090   -0.032644
     35          6           0       -4.139140    4.194824   -0.185932
     36          1           0       -2.067783    4.179936   -0.842952
     37          1           0       -2.251063    4.176535    0.890018
     38          1           0       -4.558840    3.799897   -1.112635
     39          1           0       -4.243077    5.284293   -0.193652
     40          1           0       -4.743851    3.794382    0.629503
 ---------------------------------------------------------------------
 Rotational constants (GHZ):      0.3334117      0.1090890      0.0836964
 Standard basis: 6-311+G(d) (5D, 7F)
 There are   588 symmetry adapted cartesian basis functions of A   symmetry.
 There are   565 symmetry adapted basis functions of A   symmetry.
   565 basis functions,   930 primitive gaussians,   588 cartesian basis functions
    92 alpha electrons       92 beta electrons
       nuclear repulsion energy      2113.8672846975 Hartrees.
 NAtoms=   40 NActive=   40 NUniq=   40 SFac= 1.00D+00 NAtFMM=   60 NAOKFM=F Big=F
 Integral buffers will be    131072 words long.
 Raffenetti 2 integral format.
 Two-electron integral symmetry is turned on.
 Nuclear repulsion after empirical dispersion term =     2113.8648398451 Hartrees.
 One-electron integrals computed using PRISM.
 NBasis=   565 RedAO= T EigKep=  1.04D-06  NBF=   565
 NBsUse=   563 1.00D-06 EigRej=  5.86D-07 NBFU=   563
 ExpMin= 4.38D-02 ExpMax= 1.06D+05 ExpMxC= 3.62D+03 IAcc=3 IRadAn=         5 AccDes= 0.00D+00
 Harris functional with IExCor= 1009 and IRadAn=       5 diagonalized for initial guess.
 HarFok:  IExCor= 1009 AccDes= 0.00D+00 IRadAn=         5 IDoV= 1 UseB2=F ITyADJ=14
 ICtDFT=  3500011 ScaDFX=  1.000000  1.000000  1.000000  1.000000
 FoFCou: FMM=F IPFlag=           0 FMFlag=      100000 FMFlg1=           0
         NFxFlg=           0 DoJE=T BraDBF=F KetDBF=T FulRan=T
         wScrn=  0.000000 ICntrl=     500 IOpCl=  0 I1Cent=   200000004 NGrid=           0
         NMat0=    1 NMatS0=      1 NMatT0=    0 NMatD0=    1 NMtDS0=    0 NMtDT0=    0
 Petite list used in FoFCou.
 Requested convergence on RMS density matrix=1.00D-08 within 128 cycles.
 Requested convergence on MAX density matrix=1.00D-06.
 Requested convergence on             energy=1.00D-06.
 No special actions if energy rises.
 SCF Done:  E(RM062X) =  -1638.67348664     A.U. after   16 cycles
            NFock= 16  Conv=0.89D-08     -V/T= 2.0029

 **********************************************************************

            Population analysis using the SCF density.

 **********************************************************************

 Orbital symmetries:
       Occupied  (A) (A) (A) (A) (A) (A) (A) (A) (A) (A) (A) (A)
                 (A) (A) (A) (A) (A) (A) (A) (A) (A) (A) (A) (A)
                 (A) (A) (A) (A) (A) (A) (A) (A) (A) (A) (A) (A)
                 (A) (A) (A) (A) (A) (A) (A) (A) (A) (A) (A) (A)
                 (A) (A) (A) (A) (A) (A) (A) (A) (A) (A) (A) (A)
                 (A) (A) (A) (A) (A) (A) (A) (A) (A) (A) (A) (A)
                 (A) (A) (A) (A) (A) (A) (A) (A) (A) (A) (A) (A)
                 (A) (A) (A) (A) (A) (A) (A) (A)
       Virtual   (A) (A) (A) (A) (A) (A) (A) (A) (A) (A) (A) (A)
                 (A) (A) (A) (A) (A) (A) (A) (A) (A) (A) (A) (A)
                 (A) (A) (A) (A) (A) (A) (A) (A) (A) (A) (A) (A)
                 (A) (A) (A) (A) (A) (A) (A) (A) (A) (A) (A) (A)
                 (A) (A) (A) (A) (A) (A) (A) (A) (A) (A) (A) (A)
                 (A) (A) (A) (A) (A) (A) (A) (A) (A) (A) (A) (A)
                 (A) (A) (A) (A) (A) (A) (A) (A) (A) (A) (A) (A)
                 (A) (A) (A) (A) (A) (A) (A) (A) (A) (A) (A) (A)
                 (A) (A) (A) (A) (A) (A) (A) (A) (A) (A) (A) (A)
                 (A) (A) (A) (A) (A) (A) (A) (A) (A) (A) (A) (A)
                 (A) (A) (A) (A) (A) (A) (A) (A) (A) (A) (A) (A)
                 (A) (A) (A) (A) (A) (A) (A) (A) (A) (A) (A) (A)
                 (A) (A) (A) (A) (A) (A) (A) (A) (A) (A) (A) (A)
                 (A) (A) (A) (A) (A) (A) (A) (A) (A) (A) (A) (A)
                 (A) (A) (A) (A) (A) (A) (A) (A) (A) (A) (A) (A)
                 (A) (A) (A) (A) (A) (A) (A) (A) (A) (A) (A) (A)
                 (A) (A) (A) (A) (A) (A) (A) (A) (A) (A) (A) (A)
                 (A) (A) (A) (A) (A) (A) (A) (A) (A) (A) (A) (A)
                 (A) (A) (A) (A) (A) (A) (A) (A) (A) (A) (A) (A)
                 (A) (A) (A) (A) (A) (A) (A) (A) (A) (A) (A) (A)
                 (A) (A) (A) (A) (A) (A) (A) (A) (A) (A) (A) (A)
                 (A) (A) (A) (A) (A) (A) (A) (A) (A) (A) (A) (A)
                 (A) (A) (A) (A) (A) (A) (A) (A) (A) (A) (A) (A)
                 (A) (A) (A) (A) (A) (A) (A) (A) (A) (A) (A) (A)
                 (A) (A) (A) (A) (A) (A) (A) (A) (A) (A) (A) (A)
                 (A) (A) (A) (A) (A) (A) (A) (A) (A) (A) (A) (A)
                 (A) (A) (A) (A) (A) (A) (A) (A) (A) (A) (A) (A)
                 (A) (A) (A) (A) (A) (A) (A) (A) (A) (A) (A) (A)
                 (A) (A) (A) (A) (A) (A) (A) (A) (A) (A) (A) (A)
                 (A) (A) (A) (A) (A) (A) (A) (A) (A) (A) (A) (A)
                 (A) (A) (A) (A) (A) (A) (A) (A) (A) (A) (A) (A)
                 (A) (A) (A) (A) (A) (A) (A) (A) (A) (A) (A) (A)
                 (A) (A) (A) (A) (A) (A) (A) (A) (A) (A) (A) (A)
                 (A) (A) (A) (A) (A) (A) (A) (A) (A) (A) (A) (A)
                 (A) (A) (A) (A) (A) (A) (A) (A) (A) (A) (A) (A)
                 (A) (A) (A) (A) (A) (A) (A) (A) (A) (A) (A) (A)
                 (A) (A) (A) (A) (A) (A) (A) (A) (A) (A) (A) (A)
                 (A) (A) (A) (A) (A) (A) (A) (A) (A) (A) (A) (A)
                 (A) (A) (A) (A) (A) (A) (A) (A) (A) (A) (A) (A)
                 (A) (A) (A)
 The electronic state is 1-A.
 Alpha  occ. eigenvalues -- -102.58943 -25.18449 -25.18163 -25.18160 -19.46788
 Alpha  occ. eigenvalues --  -19.44382 -19.44107 -14.65046 -14.63257 -10.71056
 Alpha  occ. eigenvalues --  -10.55127 -10.51550 -10.50585 -10.49801 -10.48407
 Alpha  occ. eigenvalues --  -10.46456 -10.46113 -10.45621 -10.44806 -10.44188
 Alpha  occ. eigenvalues --  -10.43521 -10.41610 -10.41572  -9.73219  -7.45728
 Alpha  occ. eigenvalues --   -7.45059  -7.45057  -1.37702  -1.28298  -1.27970
 Alpha  occ. eigenvalues --   -1.05586  -1.03435  -0.94229  -0.93564  -0.91410
 Alpha  occ. eigenvalues --   -0.90070  -0.84113  -0.79662  -0.78371  -0.74911
 Alpha  occ. eigenvalues --   -0.73798  -0.71056  -0.67602  -0.63808  -0.61809
 Alpha  occ. eigenvalues --   -0.61277  -0.60046  -0.59357  -0.58965  -0.57393
 Alpha  occ. eigenvalues --   -0.53410  -0.51616  -0.48793  -0.48287  -0.48147
 Alpha  occ. eigenvalues --   -0.47063  -0.45813  -0.45236  -0.44729  -0.44017
 Alpha  occ. eigenvalues --   -0.43261  -0.42696  -0.41955  -0.41533  -0.41144
 Alpha  occ. eigenvalues --   -0.40957  -0.40592  -0.39694  -0.38648  -0.38184
 Alpha  occ. eigenvalues --   -0.37753  -0.36779  -0.35928  -0.35190  -0.34238
 Alpha  occ. eigenvalues --   -0.33738  -0.33127  -0.32709  -0.32127  -0.30920
 Alpha  occ. eigenvalues --   -0.30573  -0.29778  -0.29087  -0.28736  -0.26145
 Alpha  occ. eigenvalues --   -0.23157  -0.23047  -0.20285  -0.19806  -0.19363
 Alpha  occ. eigenvalues --   -0.19151  -0.15606
 Alpha virt. eigenvalues --    0.09326   0.09697   0.09726   0.10498   0.10736
 Alpha virt. eigenvalues --    0.11162   0.11660   0.11915   0.12182   0.12513
 Alpha virt. eigenvalues --    0.13332   0.13733   0.14092   0.14306   0.14647
 Alpha virt. eigenvalues --    0.15111   0.15324   0.15524   0.15993   0.16299
 Alpha virt. eigenvalues --    0.16823   0.17068   0.17597   0.17926   0.18243
 Alpha virt. eigenvalues --    0.18283   0.18594   0.19505   0.19887   0.19944
 Alpha virt. eigenvalues --    0.20621   0.20966   0.21010   0.21795   0.21870
 Alpha virt. eigenvalues --    0.22111   0.22564   0.23305   0.23803   0.24478
 Alpha virt. eigenvalues --    0.24887   0.24944   0.25310   0.25659   0.26566
 Alpha virt. eigenvalues --    0.26937   0.27079   0.27617   0.28148   0.28816
 Alpha virt. eigenvalues --    0.28875   0.29265   0.29957   0.30035   0.30540
 Alpha virt. eigenvalues --    0.30688   0.30775   0.31151   0.31279   0.31366
 Alpha virt. eigenvalues --    0.31829   0.32382   0.32543   0.32788   0.33513
 Alpha virt. eigenvalues --    0.33642   0.33856   0.34154   0.34464   0.34519
 Alpha virt. eigenvalues --    0.35511   0.35596   0.35974   0.36146   0.36346
 Alpha virt. eigenvalues --    0.36761   0.37236   0.37380   0.37523   0.37785
 Alpha virt. eigenvalues --    0.38448   0.38762   0.39145   0.39438   0.39666
 Alpha virt. eigenvalues --    0.40040   0.40224   0.40576   0.40967   0.41192
 Alpha virt. eigenvalues --    0.41810   0.42011   0.42353   0.42700   0.42930
 Alpha virt. eigenvalues --    0.43559   0.44014   0.44412   0.44696   0.45046
 Alpha virt. eigenvalues --    0.45569   0.45877   0.46143   0.46837   0.47650
 Alpha virt. eigenvalues --    0.48072   0.48459   0.48746   0.48917   0.49358
 Alpha virt. eigenvalues --    0.49637   0.49861   0.50672   0.50899   0.52412
 Alpha virt. eigenvalues --    0.52602   0.53150   0.53923   0.54249   0.54328
 Alpha virt. eigenvalues --    0.55016   0.55189   0.56050   0.56658   0.57201
 Alpha virt. eigenvalues --    0.58571   0.59021   0.59371   0.59778   0.59991
 Alpha virt. eigenvalues --    0.61408   0.61694   0.62653   0.63400   0.63834
 Alpha virt. eigenvalues --    0.64471   0.65110   0.65787   0.66748   0.67051
 Alpha virt. eigenvalues --    0.67618   0.67939   0.68731   0.69615   0.70394
 Alpha virt. eigenvalues --    0.70637   0.71358   0.71662   0.73205   0.73780
 Alpha virt. eigenvalues --    0.74441   0.74818   0.75770   0.76520   0.76686
 Alpha virt. eigenvalues --    0.77336   0.77691   0.78510   0.78754   0.79218
 Alpha virt. eigenvalues --    0.80341   0.80842   0.81068   0.81529   0.82426
 Alpha virt. eigenvalues --    0.82587   0.83122   0.83286   0.84123   0.84665
 Alpha virt. eigenvalues --    0.84843   0.85411   0.86783   0.86874   0.87862
 Alpha virt. eigenvalues --    0.88540   0.88590   0.89117   0.89244   0.90181
 Alpha virt. eigenvalues --    0.90668   0.90860   0.91454   0.92763   0.93691
 Alpha virt. eigenvalues --    0.94141   0.96279   0.98437   0.99255   1.00631
 Alpha virt. eigenvalues --    1.01698   1.01984   1.04240   1.04750   1.04885
 Alpha virt. eigenvalues --    1.05717   1.06245   1.06539   1.07503   1.08587
 Alpha virt. eigenvalues --    1.08913   1.10091   1.10672   1.10951   1.12078
 Alpha virt. eigenvalues --    1.12804   1.15282   1.15854   1.16149   1.18162
 Alpha virt. eigenvalues --    1.18878   1.20769   1.20994   1.21309   1.22706
 Alpha virt. eigenvalues --    1.24522   1.25272   1.27123   1.27880   1.28541
 Alpha virt. eigenvalues --    1.29598   1.30478   1.32128   1.33344   1.34701
 Alpha virt. eigenvalues --    1.35023   1.35694   1.37653   1.38047   1.39112
 Alpha virt. eigenvalues --    1.40178   1.40340   1.43117   1.44008   1.44586
 Alpha virt. eigenvalues --    1.45388   1.46225   1.48403   1.48953   1.50495
 Alpha virt. eigenvalues --    1.51751   1.53069   1.55146   1.56235   1.56596
 Alpha virt. eigenvalues --    1.57021   1.57605   1.58966   1.59609   1.60443
 Alpha virt. eigenvalues --    1.61501   1.62913   1.63164   1.64090   1.64357
 Alpha virt. eigenvalues --    1.64687   1.65946   1.67832   1.68982   1.69734
 Alpha virt. eigenvalues --    1.69750   1.70358   1.71181   1.72077   1.73044
 Alpha virt. eigenvalues --    1.73138   1.73575   1.75413   1.76237   1.78340
 Alpha virt. eigenvalues --    1.79498   1.79969   1.82128   1.83368   1.85542
 Alpha virt. eigenvalues --    1.86367   1.88198   1.89241   1.89480   1.90119
 Alpha virt. eigenvalues --    1.91409   1.91950   1.92424   1.93650   1.94078
 Alpha virt. eigenvalues --    1.94897   1.96768   1.97092   1.98867   2.00127
 Alpha virt. eigenvalues --    2.00864   2.01875   2.05526   2.06789   2.07372
 Alpha virt. eigenvalues --    2.08515   2.08875   2.09081   2.11984   2.14430
 Alpha virt. eigenvalues --    2.16688   2.17393   2.18926   2.19641   2.22178
 Alpha virt. eigenvalues --    2.25932   2.27518   2.27957   2.29789   2.32660
 Alpha virt. eigenvalues --    2.35682   2.36676   2.39211   2.41023   2.41374
 Alpha virt. eigenvalues --    2.42974   2.44837   2.45590   2.49063   2.51679
 Alpha virt. eigenvalues --    2.51843   2.57598   2.59372   2.60259   2.63371
 Alpha virt. eigenvalues --    2.64429   2.64658   2.65032   2.66367   2.67986
 Alpha virt. eigenvalues --    2.69453   2.69995   2.70863   2.71196   2.72903
 Alpha virt. eigenvalues --    2.74007   2.75163   2.77648   2.78955   2.80788
 Alpha virt. eigenvalues --    2.81630   2.84471   2.88499   2.91852   2.94132
 Alpha virt. eigenvalues --    2.96792   2.97201   2.98884   3.02424   3.03142
 Alpha virt. eigenvalues --    3.03745   3.06678   3.08624   3.08980   3.11015
 Alpha virt. eigenvalues --    3.12160   3.13554   3.13806   3.14812   3.15096
 Alpha virt. eigenvalues --    3.17409   3.17540   3.20580   3.22798   3.23270
 Alpha virt. eigenvalues --    3.24913   3.26991   3.28716   3.31630   3.33769
 Alpha virt. eigenvalues --    3.36176   3.36331   3.36794   3.37984   3.41023
 Alpha virt. eigenvalues --    3.44329   3.44774   3.47990   3.50289   3.50959
 Alpha virt. eigenvalues --    3.52459   3.53712   3.55067   3.55218   3.55758
 Alpha virt. eigenvalues --    3.57079   3.60361   3.63934   3.72246   3.76076
 Alpha virt. eigenvalues --    3.80038   3.83933   3.84090   3.87685   3.89960
 Alpha virt. eigenvalues --    3.90431   3.90999   3.93734   3.93993   3.95367
 Alpha virt. eigenvalues --    3.96317   3.97195   3.98167   4.01544   4.08781
 Alpha virt. eigenvalues --    4.10169   4.12812   4.12858   4.13523   4.17864
 Alpha virt. eigenvalues --    4.18920   4.19486   4.23015   4.32497   4.33246
 Alpha virt. eigenvalues --    4.35633   4.37009   4.41193   4.76497   4.81860
 Alpha virt. eigenvalues --    4.87338   4.93536   5.05798   5.07493   5.12640
 Alpha virt. eigenvalues --    5.30909   5.33338   5.33981   5.36133   5.53473
 Alpha virt. eigenvalues --    5.56259   5.58208   5.90393   6.03630   6.16517
 Alpha virt. eigenvalues --    6.54370   6.58395   6.59495   6.63539   6.66279
 Alpha virt. eigenvalues --    6.67743   6.73681   6.96108   7.01536  10.09479
 Alpha virt. eigenvalues --   23.56548  23.69521  23.73828  23.76412  23.85974
 Alpha virt. eigenvalues --   23.91645  23.92409  24.04393  24.06257  24.08480
 Alpha virt. eigenvalues --   24.10731  24.18202  24.23764  24.30064  26.05276
 Alpha virt. eigenvalues --   26.40242  26.91130  35.77063  35.87053  50.21428
 Alpha virt. eigenvalues --   50.28576  50.29777  66.98316  67.01871  67.07004
 Alpha virt. eigenvalues --  216.20468
          Condensed to atoms (all electrons):
               1          2          3          4          5          6
     1  C   24.762817   0.102406  -0.920790  -0.281757  -0.297154  -0.492625
     2  N    0.102406   8.235449   0.205343  -0.064803  -0.565359  -0.617828
     3  C   -0.920790   0.205343   9.375191   0.689659   0.238985  -1.496646
     4  O   -0.281757  -0.064803   0.689659   8.126782  -0.203859  -0.157734
     5  N   -0.297154  -0.565359   0.238985  -0.203859   8.026922   0.611551
     6  C   -0.492625  -0.617828  -1.496646  -0.157734   0.611551   8.967706
     7  C   -0.018018   0.049205   0.356254   0.023941  -0.067501  -1.002857
     8  C   -0.004682  -0.021656  -0.318442  -0.001813  -0.038952   0.496896
     9  C    0.803431  -0.046344   0.630946  -0.091738  -0.138128   0.090335
    10  C   -8.520794   0.015435  -0.926989  -0.051327  -0.011681  -0.052910
    11  C   -4.059831  -0.064622  -0.078560   0.010206  -0.024266  -0.029690
    12  C   -0.170247   0.166157  -1.122492   0.207614   0.004006  -0.171155
    13  C   -2.332894   0.090812  -0.538104   0.209550  -0.097608  -0.460394
    14  H   -0.225364   0.078247  -0.012570  -0.004802   0.008839   0.031056
    15  H    0.004068   0.017956  -0.035289  -0.006645   0.103495   0.022829
    16  H    0.003252   0.010535   0.051302   0.003337  -0.076817   0.348856
    17  H    0.016610   0.006995   0.071629  -0.003521  -0.071411   0.397686
    18  H   -0.005396  -0.001420  -0.021085  -0.000271   0.008912  -0.068118
    19  H    0.004898   0.000524   0.030506  -0.000187   0.003469  -0.067028
    20  H    0.000197   0.000073   0.006932  -0.000006   0.000543  -0.023386
    21  H    0.000129  -0.000011   0.005507   0.000015  -0.001996   0.078906
    22  H   -0.000433  -0.000073  -0.010358  -0.000073   0.000272  -0.054664
    23  H   -0.062517  -0.027884  -0.001705   0.000072  -0.000275  -0.000005
    24  C   -2.423929   0.000694  -0.278895  -0.003350   0.000546  -0.010300
    25  Cl   0.108039   0.002449  -0.017740   0.000152   0.000213  -0.000523
    26  H   -0.004186  -0.002050   0.001071   0.000121   0.000052  -0.000023
    27  H    0.108903  -0.031973   0.112571   0.004769   0.007768   0.013946
    28  F    0.025898   0.000608   0.000610   0.000001   0.000012   0.000007
    29  F    0.025030   0.000557   0.000189   0.000001   0.000008   0.000001
    30  F    0.200843   0.002917  -0.003525  -0.000002   0.000026  -0.000035
    31  O   -0.097152   0.026238   0.005047  -0.000678  -0.055336  -0.012835
    32  O    0.020364  -0.038255  -0.053242   0.000448  -0.009077   0.069762
    33  C    0.151348   0.007319   0.022284  -0.000893   0.037857   0.005925
    34  C   -0.056605  -0.064633  -0.069220  -0.001153  -0.073024   0.094003
    35  C   -0.015407   0.003751   0.007632   0.000082   0.013237  -0.016467
    36  H    0.000600   0.000216  -0.000367  -0.000001   0.000249   0.000162
    37  H    0.001469   0.000603   0.000612   0.000001  -0.000125  -0.000568
    38  H    0.000191  -0.000009  -0.000189  -0.000000   0.000175  -0.000145
    39  H    0.000138   0.000029   0.000241   0.000000  -0.000088  -0.000132
    40  H    0.000151  -0.000037  -0.000570  -0.000000   0.000145   0.000898
               7          8          9         10         11         12
     1  C   -0.018018  -0.004682   0.803431  -8.520794  -4.059831  -0.170247
     2  N    0.049205  -0.021656  -0.046344   0.015435  -0.064622   0.166157
     3  C    0.356254  -0.318442   0.630946  -0.926989  -0.078560  -1.122492
     4  O    0.023941  -0.001813  -0.091738  -0.051327   0.010206   0.207614
     5  N   -0.067501  -0.038952  -0.138128  -0.011681  -0.024266   0.004006
     6  C   -1.002857   0.496896   0.090335  -0.052910  -0.029690  -0.171155
     7  C    6.629535  -0.522035   0.007111   0.000383   0.000695   0.000888
     8  C   -0.522035   6.520441  -0.000685  -0.000141  -0.000506  -0.002604
     9  C    0.007111  -0.000685  21.170025   4.264865 -16.115656  -1.494171
    10  C    0.000383  -0.000141   4.264865  42.149466 -16.425804  -6.713203
    11  C    0.000695  -0.000506 -16.115656 -16.425804  51.582068  -2.166428
    12  C    0.000888  -0.002604  -1.494171  -6.713203  -2.166428  24.655681
    13  C    0.014994  -0.016204  -4.465202  -5.313261  -0.279907  -5.171744
    14  H   -0.006602   0.000250   0.099821   0.064964   0.019355  -0.035849
    15  H   -0.044172   0.010384   0.000985  -0.006535  -0.001032  -0.000979
    16  H    0.018942  -0.013807   0.006699   0.000386   0.000088  -0.003780
    17  H   -0.081773  -0.024075  -0.002115   0.000378  -0.000052   0.000790
    18  H    0.474161  -0.057118   0.001780   0.000016   0.000024  -0.000123
    19  H    0.431057  -0.074817  -0.000898   0.000003  -0.000012   0.000100
    20  H    0.039675   0.322576  -0.000026   0.000000  -0.000000   0.000005
    21  H   -0.139440   0.407611  -0.000028  -0.000000  -0.000000   0.000003
    22  H   -0.002849   0.412585   0.000068  -0.000001   0.000001  -0.000012
    23  H   -0.000007   0.000008   0.235654   0.006636   0.067106  -0.030829
    24  C    0.000010  -0.000042   0.709329  -1.647625  -5.022911  -1.783844
    25  Cl  -0.000007  -0.000003   0.340124   0.511896  -1.750535   0.420416
    26  H    0.000003  -0.000000  -0.013422   0.070318   0.067208   0.094910
    27  H   -0.000472   0.000120  -0.034419  -0.063964  -0.027209  -0.058289
    28  F    0.000000   0.000000  -0.023938   0.204185  -0.098674   0.050791
    29  F   -0.000000   0.000000  -0.021515   0.212644  -0.106239   0.049745
    30  F    0.000002  -0.000000   0.467261  -0.526518  -0.318537   0.022030
    31  O   -0.003047  -0.000222   0.195237  -0.046868  -0.028523   0.014213
    32  O   -0.018804   0.008430  -0.018097  -0.002257  -0.000018   0.000128
    33  C    0.006873  -0.011410  -0.087342  -0.056224  -0.004803  -0.011017
    34  C   -0.043745   0.011160   0.042286   0.024387   0.010777  -0.010065
    35  C    0.013420  -0.004336   0.001607   0.012863   0.002835  -0.000788
    36  H   -0.000220  -0.000023   0.000979  -0.000938  -0.000199   0.000011
    37  H    0.000500   0.000015  -0.000455  -0.001495  -0.000161   0.000048
    38  H    0.000318   0.000177  -0.000088  -0.000096  -0.000010   0.000003
    39  H   -0.000026  -0.000015  -0.000142  -0.000041  -0.000001   0.000002
    40  H   -0.000488   0.000022   0.000039  -0.000032  -0.000006  -0.000000
              13         14         15         16         17         18
     1  C   -2.332894  -0.225364   0.004068   0.003252   0.016610  -0.005396
     2  N    0.090812   0.078247   0.017956   0.010535   0.006995  -0.001420
     3  C   -0.538104  -0.012570  -0.035289   0.051302   0.071629  -0.021085
     4  O    0.209550  -0.004802  -0.006645   0.003337  -0.003521  -0.000271
     5  N   -0.097608   0.008839   0.103495  -0.076817  -0.071411   0.008912
     6  C   -0.460394   0.031056   0.022829   0.348856   0.397686  -0.068118
     7  C    0.014994  -0.006602  -0.044172   0.018942  -0.081773   0.474161
     8  C   -0.016204   0.000250   0.010384  -0.013807  -0.024075  -0.057118
     9  C   -4.465202   0.099821   0.000985   0.006699  -0.002115   0.001780
    10  C   -5.313261   0.064964  -0.006535   0.000386   0.000378   0.000016
    11  C   -0.279907   0.019355  -0.001032   0.000088  -0.000052   0.000024
    12  C   -5.171744  -0.035849  -0.000979  -0.003780   0.000790  -0.000123
    13  C   23.580522   0.014732  -0.024462  -0.014815   0.005771  -0.001645
    14  H    0.014732   0.321414   0.029827  -0.000013  -0.000096   0.000044
    15  H   -0.024462   0.029827   0.341366   0.001427   0.002618   0.006373
    16  H   -0.014815  -0.000013   0.001427   0.488453  -0.052455   0.005649
    17  H    0.005771  -0.000096   0.002618  -0.052455   0.493051  -0.008606
    18  H   -0.001645   0.000044   0.006373   0.005649  -0.008606   0.426221
    19  H    0.000930   0.000049   0.001509  -0.010332   0.006765  -0.035636
    20  H    0.000074   0.000001  -0.000045  -0.000610   0.003437  -0.007875
    21  H    0.000054   0.000000  -0.000073  -0.000285  -0.000122  -0.003731
    22  H   -0.000147  -0.000000   0.000038   0.003586  -0.000985   0.006717
    23  H    0.015671   0.013112  -0.000065  -0.000000   0.000000  -0.000001
    24  C    0.781874   0.007690  -0.000673  -0.000012   0.000024  -0.000009
    25  Cl  -0.430464   0.000014  -0.000006  -0.000000   0.000000  -0.000000
    26  H    0.098640   0.000004  -0.000000   0.000000   0.000000   0.000000
    27  H    0.298802  -0.000674   0.000077  -0.000032  -0.000035   0.000000
    28  F    0.011000   0.000020  -0.000000   0.000000  -0.000000   0.000000
    29  F    0.009972   0.000012   0.000000  -0.000000   0.000000  -0.000000
    30  F   -0.032619  -0.000438  -0.000002   0.000000  -0.000000   0.000000
    31  O    0.007068   0.082554   0.014626  -0.000006  -0.000014  -0.000094
    32  O   -0.009283   0.008851   0.075575  -0.001274   0.000800  -0.007146
    33  C   -0.062709  -0.023739  -0.009906  -0.001227   0.000773   0.003573
    34  C   -0.033754   0.055284   0.057570  -0.000687   0.000235  -0.001729
    35  C   -0.002420  -0.004245  -0.007879   0.000122  -0.000030   0.002626
    36  H    0.000154  -0.000375  -0.000113   0.000000   0.000000   0.000005
    37  H    0.000168  -0.000369  -0.000021   0.000000   0.000000   0.000003
    38  H    0.000017  -0.000016  -0.000344  -0.000000   0.000001  -0.000059
    39  H    0.000018  -0.000003   0.000062  -0.000000   0.000000  -0.000003
    40  H   -0.000002  -0.000015  -0.000370  -0.000000   0.000000  -0.000048
              19         20         21         22         23         24
     1  C    0.004898   0.000197   0.000129  -0.000433  -0.062517  -2.423929
     2  N    0.000524   0.000073  -0.000011  -0.000073  -0.027884   0.000694
     3  C    0.030506   0.006932   0.005507  -0.010358  -0.001705  -0.278895
     4  O   -0.000187  -0.000006   0.000015  -0.000073   0.000072  -0.003350
     5  N    0.003469   0.000543  -0.001996   0.000272  -0.000275   0.000546
     6  C   -0.067028  -0.023386   0.078906  -0.054664  -0.000005  -0.010300
     7  C    0.431057   0.039675  -0.139440  -0.002849  -0.000007   0.000010
     8  C   -0.074817   0.322576   0.407611   0.412585   0.000008  -0.000042
     9  C   -0.000898  -0.000026  -0.000028   0.000068   0.235654   0.709329
    10  C    0.000003   0.000000  -0.000000  -0.000001   0.006636  -1.647625
    11  C   -0.000012  -0.000000  -0.000000   0.000001   0.067106  -5.022911
    12  C    0.000100   0.000005   0.000003  -0.000012  -0.030829  -1.783844
    13  C    0.000930   0.000074   0.000054  -0.000147   0.015671   0.781874
    14  H    0.000049   0.000001   0.000000  -0.000000   0.013112   0.007690
    15  H    0.001509  -0.000045  -0.000073   0.000038  -0.000065  -0.000673
    16  H   -0.010332  -0.000610  -0.000285   0.003586  -0.000000  -0.000012
    17  H    0.006765   0.003437  -0.000122  -0.000985   0.000000   0.000024
    18  H   -0.035636  -0.007875  -0.003731   0.006717  -0.000001  -0.000009
    19  H    0.452980   0.006787  -0.004159  -0.009008   0.000000   0.000005
    20  H    0.006787   0.471506  -0.028152  -0.039818   0.000000   0.000000
    21  H   -0.004159  -0.028152   0.460893  -0.027837   0.000000   0.000000
    22  H   -0.009008  -0.039818  -0.027837   0.478518  -0.000000  -0.000000
    23  H    0.000000   0.000000   0.000000  -0.000000   0.311664   0.053374
    24  C    0.000005   0.000000   0.000000  -0.000000   0.053374  14.949374
    25  Cl   0.000000  -0.000000   0.000000  -0.000000  -0.001010  -0.270234
    26  H   -0.000000  -0.000000  -0.000000   0.000000   0.000038   0.025789
    27  H    0.000000   0.000000   0.000000  -0.000000  -0.000084  -0.003075
    28  F   -0.000000  -0.000000   0.000000  -0.000000   0.000259  -0.011578
    29  F    0.000000   0.000000   0.000000  -0.000000   0.000169  -0.011470
    30  F   -0.000000  -0.000000  -0.000000   0.000000   0.010697   0.321555
    31  O   -0.000033   0.000002   0.000001  -0.000003   0.008459   0.000139
    32  O   -0.000705   0.000160   0.000091  -0.000151   0.001095  -0.000193
    33  C    0.001227   0.000291  -0.000113  -0.000075   0.006738  -0.015445
    34  C    0.001325   0.000016   0.000110  -0.000054   0.000365  -0.005376
    35  C    0.000040   0.000009  -0.000067   0.000029   0.000378  -0.002173
    36  H    0.000001   0.000000  -0.000000   0.000000  -0.000135   0.000318
    37  H   -0.000002   0.000000  -0.000000   0.000000  -0.000007  -0.000009
    38  H   -0.000007  -0.000000   0.000000  -0.000000   0.000000   0.000010
    39  H    0.000000  -0.000000   0.000000  -0.000000  -0.000001  -0.000005
    40  H    0.000004   0.000000   0.000001  -0.000000  -0.000001   0.000011
              25         26         27         28         29         30
     1  C    0.108039  -0.004186   0.108903   0.025898   0.025030   0.200843
     2  N    0.002449  -0.002050  -0.031973   0.000608   0.000557   0.002917
     3  C   -0.017740   0.001071   0.112571   0.000610   0.000189  -0.003525
     4  O    0.000152   0.000121   0.004769   0.000001   0.000001  -0.000002
     5  N    0.000213   0.000052   0.007768   0.000012   0.000008   0.000026
     6  C   -0.000523  -0.000023   0.013946   0.000007   0.000001  -0.000035
     7  C   -0.000007   0.000003  -0.000472   0.000000  -0.000000   0.000002
     8  C   -0.000003  -0.000000   0.000120   0.000000   0.000000  -0.000000
     9  C    0.340124  -0.013422  -0.034419  -0.023938  -0.021515   0.467261
    10  C    0.511896   0.070318  -0.063964   0.204185   0.212644  -0.526518
    11  C   -1.750535   0.067208  -0.027209  -0.098674  -0.106239  -0.318537
    12  C    0.420416   0.094910  -0.058289   0.050791   0.049745   0.022030
    13  C   -0.430464   0.098640   0.298802   0.011000   0.009972  -0.032619
    14  H    0.000014   0.000004  -0.000674   0.000020   0.000012  -0.000438
    15  H   -0.000006  -0.000000   0.000077  -0.000000   0.000000  -0.000002
    16  H   -0.000000   0.000000  -0.000032   0.000000  -0.000000   0.000000
    17  H    0.000000   0.000000  -0.000035  -0.000000   0.000000  -0.000000
    18  H   -0.000000   0.000000   0.000000   0.000000  -0.000000   0.000000
    19  H    0.000000  -0.000000   0.000000  -0.000000   0.000000  -0.000000
    20  H   -0.000000  -0.000000   0.000000  -0.000000   0.000000  -0.000000
    21  H    0.000000  -0.000000   0.000000   0.000000   0.000000  -0.000000
    22  H   -0.000000   0.000000  -0.000000  -0.000000  -0.000000   0.000000
    23  H   -0.001010   0.000038  -0.000084   0.000259   0.000169   0.010697
    24  C   -0.270234   0.025789  -0.003075  -0.011578  -0.011470   0.321555
    25  Cl  17.734085  -0.021774   0.000154  -0.016823  -0.016027   0.010886
    26  H   -0.021774   0.435722  -0.004175   0.000011   0.000012   0.000025
    27  H    0.000154  -0.004175   0.373735  -0.000000  -0.000001  -0.000008
    28  F   -0.016823   0.000011  -0.000000   8.994231  -0.049901  -0.038284
    29  F   -0.016027   0.000012  -0.000001  -0.049901   8.993080  -0.038645
    30  F    0.010886   0.000025  -0.000008  -0.038284  -0.038645   9.049971
    31  O   -0.000141  -0.000005   0.000037   0.000017   0.000025   0.000859
    32  O   -0.000002   0.000000  -0.000003  -0.000000   0.000000  -0.000007
    33  C   -0.000726  -0.000013   0.000480   0.000189   0.000160   0.002591
    34  C    0.000019  -0.000001   0.000066  -0.000012   0.000002  -0.001596
    35  C   -0.000004   0.000000  -0.000001   0.000000  -0.000001  -0.000054
    36  H   -0.000000  -0.000000   0.000000  -0.000000   0.000000   0.000009
    37  H   -0.000000  -0.000000   0.000000   0.000000   0.000000   0.000002
    38  H    0.000000  -0.000000   0.000000   0.000000   0.000000  -0.000000
    39  H    0.000000  -0.000000  -0.000000   0.000000   0.000000  -0.000000
    40  H    0.000000  -0.000000   0.000000   0.000000   0.000000   0.000000
              31         32         33         34         35         36
     1  C   -0.097152   0.020364   0.151348  -0.056605  -0.015407   0.000600
     2  N    0.026238  -0.038255   0.007319  -0.064633   0.003751   0.000216
     3  C    0.005047  -0.053242   0.022284  -0.069220   0.007632  -0.000367
     4  O   -0.000678   0.000448  -0.000893  -0.001153   0.000082  -0.000001
     5  N   -0.055336  -0.009077   0.037857  -0.073024   0.013237   0.000249
     6  C   -0.012835   0.069762   0.005925   0.094003  -0.016467   0.000162
     7  C   -0.003047  -0.018804   0.006873  -0.043745   0.013420  -0.000220
     8  C   -0.000222   0.008430  -0.011410   0.011160  -0.004336  -0.000023
     9  C    0.195237  -0.018097  -0.087342   0.042286   0.001607   0.000979
    10  C   -0.046868  -0.002257  -0.056224   0.024387   0.012863  -0.000938
    11  C   -0.028523  -0.000018  -0.004803   0.010777   0.002835  -0.000199
    12  C    0.014213   0.000128  -0.011017  -0.010065  -0.000788   0.000011
    13  C    0.007068  -0.009283  -0.062709  -0.033754  -0.002420   0.000154
    14  H    0.082554   0.008851  -0.023739   0.055284  -0.004245  -0.000375
    15  H    0.014626   0.075575  -0.009906   0.057570  -0.007879  -0.000113
    16  H   -0.000006  -0.001274  -0.001227  -0.000687   0.000122   0.000000
    17  H   -0.000014   0.000800   0.000773   0.000235  -0.000030   0.000000
    18  H   -0.000094  -0.007146   0.003573  -0.001729   0.002626   0.000005
    19  H   -0.000033  -0.000705   0.001227   0.001325   0.000040   0.000001
    20  H    0.000002   0.000160   0.000291   0.000016   0.000009   0.000000
    21  H    0.000001   0.000091  -0.000113   0.000110  -0.000067  -0.000000
    22  H   -0.000003  -0.000151  -0.000075  -0.000054   0.000029   0.000000
    23  H    0.008459   0.001095   0.006738   0.000365   0.000378  -0.000135
    24  C    0.000139  -0.000193  -0.015445  -0.005376  -0.002173   0.000318
    25  Cl  -0.000141  -0.000002  -0.000726   0.000019  -0.000004  -0.000000
    26  H   -0.000005   0.000000  -0.000013  -0.000001   0.000000  -0.000000
    27  H    0.000037  -0.000003   0.000480   0.000066  -0.000001   0.000000
    28  F    0.000017  -0.000000   0.000189  -0.000012   0.000000  -0.000000
    29  F    0.000025   0.000000   0.000160   0.000002  -0.000001   0.000000
    30  F    0.000859  -0.000007   0.002591  -0.001596  -0.000054   0.000009
    31  O    8.445631  -0.138487   0.292112  -0.225818   0.021277  -0.005942
    32  O   -0.138487   8.312795   0.377334  -0.154260   0.012446   0.001193
    33  C    0.292112   0.377334   6.571600  -1.630603   0.396778  -0.019585
    34  C   -0.225818  -0.154260  -1.630603   8.247981  -0.632081   0.400624
    35  C    0.021277   0.012446   0.396778  -0.632081   6.125273  -0.043626
    36  H   -0.005942   0.001193  -0.019585   0.400624  -0.043626   0.460086
    37  H   -0.006270   0.001932  -0.016196   0.402780  -0.046655  -0.034333
    38  H    0.000111  -0.009158  -0.008612  -0.023808   0.390725  -0.007271
    39  H   -0.000715   0.004375   0.067681  -0.128424   0.402907  -0.003129
    40  H   -0.000336  -0.008767  -0.010158  -0.025150   0.392232   0.006001
              37         38         39         40
     1  C    0.001469   0.000191   0.000138   0.000151
     2  N    0.000603  -0.000009   0.000029  -0.000037
     3  C    0.000612  -0.000189   0.000241  -0.000570
     4  O    0.000001  -0.000000   0.000000  -0.000000
     5  N   -0.000125   0.000175  -0.000088   0.000145
     6  C   -0.000568  -0.000145  -0.000132   0.000898
     7  C    0.000500   0.000318  -0.000026  -0.000488
     8  C    0.000015   0.000177  -0.000015   0.000022
     9  C   -0.000455  -0.000088  -0.000142   0.000039
    10  C   -0.001495  -0.000096  -0.000041  -0.000032
    11  C   -0.000161  -0.000010  -0.000001  -0.000006
    12  C    0.000048   0.000003   0.000002  -0.000000
    13  C    0.000168   0.000017   0.000018  -0.000002
    14  H   -0.000369  -0.000016  -0.000003  -0.000015
    15  H   -0.000021  -0.000344   0.000062  -0.000370
    16  H    0.000000  -0.000000  -0.000000  -0.000000
    17  H    0.000000   0.000001   0.000000   0.000000
    18  H    0.000003  -0.000059  -0.000003  -0.000048
    19  H   -0.000002  -0.000007   0.000000   0.000004
    20  H    0.000000  -0.000000  -0.000000   0.000000
    21  H   -0.000000   0.000000   0.000000   0.000001
    22  H    0.000000  -0.000000  -0.000000  -0.000000
    23  H   -0.000007   0.000000  -0.000001  -0.000001
    24  C   -0.000009   0.000010  -0.000005   0.000011
    25  Cl  -0.000000   0.000000   0.000000   0.000000
    26  H   -0.000000  -0.000000  -0.000000  -0.000000
    27  H    0.000000   0.000000  -0.000000   0.000000
    28  F    0.000000   0.000000   0.000000   0.000000
    29  F    0.000000   0.000000   0.000000   0.000000
    30  F    0.000002  -0.000000  -0.000000   0.000000
    31  O   -0.006270   0.000111  -0.000715  -0.000336
    32  O    0.001932  -0.009158   0.004375  -0.008767
    33  C   -0.016196  -0.008612   0.067681  -0.010158
    34  C    0.402780  -0.023808  -0.128424  -0.025150
    35  C   -0.046655   0.390725   0.402907   0.392232
    36  H   -0.034333  -0.007271  -0.003129   0.006001
    37  H    0.457003   0.005911  -0.003133  -0.007143
    38  H    0.005911   0.461459  -0.033689  -0.031996
    39  H   -0.003133  -0.033689   0.497445  -0.033564
    40  H   -0.007143  -0.031996  -0.033564   0.461673
 Mulliken charges:
               1
     1  C   -0.351001
     2  N   -0.477562
     3  C    0.094266
     4  O   -0.402139
     5  N   -0.334622
     6  C   -0.494456
     7  C   -0.115904
     8  C   -1.077083
     9  C   -0.514174
    10  C   -1.170123
    11  C    0.843827
    12  C   -0.739921
    13  C    0.146816
    14  H    0.479029
    15  H    0.447828
    16  H    0.233518
    17  H    0.237729
    18  H    0.284011
    19  H    0.260645
    20  H    0.247635
    21  H    0.252694
    22  H    0.244728
    23  H    0.393033
    24  C    0.640405
    25  Cl   0.397572
    26  H    0.251726
    27  H    0.302986
    28  F   -0.048629
    29  F   -0.047807
    30  F   -0.129404
    31  O   -0.491129
    32  O   -0.426594
    33  C    0.017663
    34  C   -0.167191
    35  C   -1.024032
    36  H    0.245649
    37  H    0.245896
    38  H    0.256397
    39  H    0.230214
    40  H    0.257507
 Sum of Mulliken charges =  -1.00000
 Mulliken charges with hydrogens summed into heavy atoms:
               1
     1  C   -0.351001
     2  N    0.001467
     3  C    0.094266
     4  O   -0.402139
     5  N    0.113206
     6  C   -0.023209
     7  C    0.428752
     8  C   -0.332027
     9  C   -0.121141
    10  C   -1.170123
    11  C    0.843827
    12  C   -0.488195
    13  C    0.449801
    24  C    0.640405
    25  Cl   0.397572
    28  F   -0.048629
    29  F   -0.047807
    30  F   -0.129404
    31  O   -0.491129
    32  O   -0.426594
    33  C    0.017663
    34  C    0.324354
    35  C   -0.279914
 Electronic spatial extent (au):  <R**2>=          11993.1079
 Charge=             -1.0000 electrons
 Dipole moment (field-independent basis, Debye):
    X=              1.5079    Y=             -1.1070    Z=              0.0484  Tot=              1.8713
 Quadrupole moment (field-independent basis, Debye-Ang):
[...]
 285,0.00000405,-0.00000383,-0.00001096,-0.00000881,0.00000016,-0.00004
 838,-0.00003353,-0.00002966,0.00001897,-0.00016646,-0.00002599,0.00001
 143,-0.00001178,0.00000362,0.00000345,-0.00000600,0.00000160,-0.000011
 48,0.00000699,-0.00000735,-0.00000901,0.00004333,0.00003830,0.00001475
 ,0.00003708,0.00001436,-0.00001534,0.00009186,0.00001081,0.00262764,0.
 00042202,0.00373933,-0.00121080,-0.00529108,0.00490450,-0.02430461,-0.
 00674141,-0.02596755,-0.05473345,-0.06908136,-0.05358733,0.01504816,0.
 00536327,0.01387602,0.05687032,0.07494912,-0.00020184,0.00007905,-0.00
 000909,0.00015453,-0.00011520,0.00002200,-0.00013229,0.00007700,0.0000
 0792,0.00002334,-0.00007161,0.00000612,0.00006444,-0.00007623,0.000058
 00,0.00000661,0.00000143,-0.00001270,0.00000056,0.00000814,-0.00000795
 ,0.00000368,-0.00000585,0.00000225,0.00006513,0.00001196,-0.00000377,-
 0.00000927,0.00002957,0.00001455,-0.00000515,0.00000296,-0.00001346,-0
 .00001461,0.00002234,0.00000652,0.00005035,-0.00005291,0.00000571,-0.0
 0001146,0.00016724,-0.00006422,0.00000738,0.00006889,-0.00009183,-0.00
 000267,-0.00000377,-0.00000157,0.00000145,-0.00000309,0.00000720,0.000
 00473,-0.00000109,-0.00001192,0.00000536,0.00000704,0.00000995,-0.0000
 0243,-0.00000083,0.00000556,0.00000068,0.00000180,-0.00000104,-0.00000
 348,-0.00000417,-0.00000191,-0.00003719,-0.00004215,-0.00000654,-0.000
 01485,-0.00026025,0.00000419,0.00002429,-0.00000470,-0.00000015,0.0000
 0181,0.00000056,0.00000039,-0.00001000,0.00000679,-0.00000092,0.000001
 26,0.00004642,0.00001321,0.00001099,0.00004423,-0.00000030,-0.00001318
 ,0.00015806,-0.00001511,0.00134300,-0.00103123,0.00024799,0.00076884,0
 .00059590,-0.00130200,0.00333580,0.00389196,0.00378385,-0.12076081,-0.
 05058195,-0.15367868,0.00459795,0.00225078,0.00382956,0.13201186,0.054
 10937,0.16590403,0.00002762,-0.00000498,-0.00008103,0.00005191,0.00013
 079,-0.00000269,-0.00020743,-0.00000181,0.00006824,0.00004395,-0.00000
 247,-0.00002149,0.00006264,-0.00020191,0.00002025,-0.00000839,-0.00000
 644,-0.00001937,0.00000790,0.00002637,0.00003474,-0.00000719,-0.000011
 73,-0.00001339,0.00005541,-0.00003933,0.00003138,-0.00000473,0.0000207
 1,0.00012431,-0.00005611,0.00000563,-0.00008052,0.00001608,0.00006890,
 0.00001690,0.00002980,-0.00006972,0.00001055,-0.00004372,-0.00024700,-
 0.00001798,-0.00002090,0.00025740,-0.00005761,-0.00000447,-0.00000485,
 0.00000507,0.00000489,0.00000229,-0.00000086,0.00000462,0.00000166,-0.
 00000943,-0.00000628,-0.00000454,-0.00000500,0.00000203,0.00000516,-0.
 00000347,0.00000534,0.00000231,0.00000784,-0.00000210,-0.00000579,0.00
 000108,0.00003469,0.00000572,-0.00001550,-0.00002639,0.00010704,-0.000
 05872,0.00000438,0.00000929,-0.00000124,-0.00000356,0.00000672,0.00000
 043,-0.00000522,0.00000252,0.00000655,-0.00000235,-0.00003605,-0.00001
 402,-0.00000280,-0.00002941,0.00002332,0.00001115,-0.00005827,0.000012
 16,-0.00005546,0.00180875,-0.00115780,-0.00027253,-0.00250094,-0.00100
 223,-0.00462985,-0.00160689,0.00722761,-0.08248210,-0.01081676,0.09290
 712,-0.01049011,-0.00354445,0.02571694,0.00910144,0.00388836,-0.022040
 85,0.09140420,-0.00016767,0.00008334,-0.00004033,0.00020433,0.00008009
 ,0.00002810,-0.00040161,0.00015397,0.00005059,0.00008339,-0.00016805,-
 0.00000122,0.00013540,-0.00054083,0.00012589,0.00010001,0.00001304,-0.
 00003646,-0.00001405,0.00002338,0.00002329,0.00000527,-0.00001705,-0.0
 0001042,0.00008021,-0.00001348,-0.00001172,-0.00000405,0.00001901,0.00
 005784,-0.00002026,0.00000199,-0.00004040,-0.00000821,0.00004529,0.000
 00601,0.00005076,-0.00007755,0.00001069,-0.00005854,-0.00000889,-0.000
 12053,-0.00001552,0.00082259,-0.00027135,-0.00002422,-0.00002037,0.000
 00447,-0.00000929,-0.00000681,0.00001642,0.00003705,-0.00000877,-0.000
 03303,0.00000909,0.00001140,0.00000780,-0.00000236,-0.00000316,0.00000
 545,-0.00001192,0.00000435,-0.00000013,-0.00000937,-0.00000714,0.00000
 304,-0.00002571,-0.00000277,0.00003129,-0.00001596,-0.00007118,0.00003
 772,0.00002152,-0.00000106,-0.00000252,0.00000003,0.00000235,0.0000008
 8,-0.00001198,0.00000799,0.00000406,0.00000728,0.00000191,-0.00002661,
 -0.00000737,0.00000431,-0.00001004,-0.00000863,0.00004951,-0.00002206,
 0.00056943,-0.00025937,-0.00416147,-0.00305344,-0.00607469,-0.00285589
 ,-0.01118046,-0.00084763,0.03441145,-0.01049673,-0.04943565,0.03415541
 ,0.00762285,0.00164747,-0.01905332,0.00421328,0.00083205,-0.01001583,0
 .01040164,0.05474831,0.00022236,-0.00009354,0.00001994,-0.00021413,0.0
 0006488,0.00002046,0.00031439,-0.00012634,-0.00003955,-0.00006380,0.00
 012185,-0.00000512,-0.00010888,0.00029637,-0.00001088,-0.00003076,-0.0
 0000149,0.00001957,-0.00000198,-0.00002911,-0.00002029,-0.00000418,0.0
 0001267,0.00000715,-0.00008035,-0.00000486,0.00000910,0.00000968,-0.00
 003570,-0.00005964,0.00000071,0.00000862,0.00004290,0.00001329,-0.0000
 4601,-0.00000270,-0.00005837,0.00007831,-0.00000495,0.00002699,-0.0000
 8797,0.00002401,-0.00002585,-0.00038494,0.00002536,0.00001075,0.000016
 23,-0.00000219,-0.00000238,-0.00000128,-0.00000629,-0.00001904,0.00000
 561,0.00002035,-0.00000173,-0.00000550,-0.00000389,0.00000017,-0.00000
 201,-0.00000262,0.00000125,-0.00000553,-0.00000318,0.00000847,0.000012
 23,0.00000065,0.00002746,0.00003303,-0.00003526,0.00001358,0.00022256,
 -0.00009099,-0.00002585,-0.00000008,0.00000478,-0.00000037,-0.00000327
 ,0.00000049,0.00001245,-0.00000966,-0.00000635,-0.00001357,-0.00003211
 ,0.00003271,0.00001006,-0.00003104,0.00003642,0.00001511,-0.00014027,0
 .00004356,-0.00142473,0.00048687,0.00208604,-0.00051031,0.00162577,0.0
 0030900,0.00315200,-0.00238909,-0.00497861,0.09154763,0.03109902,-0.27
 010171,0.00017243,-0.00012066,-0.00093192,0.00767729,0.00331007,-0.020
 54013,-0.10142480,-0.03264659,0.29180485,-0.00000403,0.00000787,-0.000
 04114,-0.00000390,0.00007692,-0.00003591,-0.00002465,-0.00002905,0.000
 03634,-0.00000078,0.00003246,-0.00001683,-0.00000509,0.00001030,-0.000
 02316,0.00001380,0.00000764,0.00001211,-0.00001095,-0.00002608,-0.0000
 3176,-0.00000529,0.00000011,0.00000641,0.00003470,-0.00002652,0.000009
 29,-0.00000572,0.00002379,0.00009210,-0.00001305,-0.00000936,-0.000059
 18,0.00000539,0.00005143,0.00000614,0.00002320,-0.00004325,0.00000432,
 -0.00000205,-0.00011567,0.00004133,-0.00000172,-0.00002094,0.00002697,
 -0.00000610,0.00000739,-0.00000030,0.00000537,0.00000451,-0.00000391,0
 .00001395,-0.00000749,0.00002089,-0.00000115,0.00000234,0.00000089,0.0
 0000236,-0.00000060,-0.00000303,-0.00000783,-0.00000263,-0.00000238,0.
 00000340,0.00000917,0.00000254,0.00001178,-0.00001972,0.00001541,0.000
 02404,-0.00005206,0.00002644,-0.00000378,0.00001334,-0.00000379,-0.000
 00267,0.00000670,-0.00000148,-0.00000193,0.00000228,0.00000645,-0.0000
 0701,-0.00000280,-0.00001647,-0.00002524,-0.00000315,-0.00002243,-0.00
 001428,0.00004274,-0.00001924,0.00038111,0.00023223,-0.00046220,0.0009
 4620,0.00010309,-0.00074329,-0.00084857,-0.00134568,0.00063810,-0.0112
 6697,-0.00300299,0.02771740,-0.08265367,-0.01241664,0.09121957,0.00064
 845,-0.00104766,-0.00023872,-0.00428213,0.00370601,0.00001423,0.091576
 26,0.00014177,-0.00005447,-0.00000913,-0.00014475,0.00005220,0.0000200
 9,0.00021600,-0.00013176,0.00000387,-0.00004384,0.00011404,-0.00001642
 ,-0.00006262,0.00022640,-0.00000750,-0.00001948,0.00000063,0.00001686,
 -0.00001091,-0.00005845,-0.00004189,-0.00001159,0.00002207,0.00001356,
 -0.00003644,-0.00001716,0.00000976,0.00000248,-0.00001045,-0.00001469,
 -0.00000235,0.00000782,0.00000577,0.00000670,-0.00000828,0.00000396,-0
 .00002257,0.00003040,-0.00000352,0.00002079,-0.00010290,-0.00000255,-0
 .00004156,-0.00031038,0.00000757,0.00000284,0.00002033,0.00000028,-0.0
 0000132,-0.00000396,-0.00000715,-0.00002909,-0.00000570,0.00002390,-0.
 00000017,0.00000199,0.00000531,-0.00000094,-0.00000193,-0.00000511,0.0
 0000426,-0.00000810,-0.00000014,0.00001478,0.00001533,0.00000099,0.000
 02195,-0.00000185,-0.00000569,0.00004175,0.00005899,-0.00002379,-0.000
 02237,0.00000748,0.00000275,-0.00000103,0.00000136,0.00000112,0.000007
 05,-0.00000509,-0.00000235,-0.00001524,-0.00000959,0.00001498,-0.00001
 453,-0.00001344,0.00000350,-0.00000533,-0.00003064,0.00000937,-0.00087
 593,0.00016409,0.00039189,-0.00101816,-0.00023112,0.00089286,0.0018216
 9,0.00060551,-0.00148432,0.00653505,0.00213411,-0.01845133,-0.01318262
 ,-0.05108022,0.03249404,-0.00070363,0.00074563,0.00044846,0.00334221,-
 0.00206456,-0.00037510,0.01080688,0.05235914,0.00002679,-0.00002787,0.
 00000698,-0.00009256,-0.00009549,0.00004708,0.00017926,-0.00001358,-0.
 00003502,-0.00004989,-0.00000390,0.00001424,-0.00007847,0.00005586,0.0
 0002239,0.00006056,0.00001635,0.00000262,-0.00002160,-0.00004661,-0.00
 005091,-0.00000023,0.00001109,0.00001529,-0.00000917,0.00001135,0.0000
 0090,-0.00000513,-0.00000850,-0.00002741,-0.00001062,0.00000233,0.0000
 2000,0.00000862,-0.00001911,-0.00000111,-0.00001261,0.00002275,0.00000
 138,0.00001742,0.00012972,-0.00004584,-0.00000119,-0.00003259,-0.00002
 823,-0.00000953,0.00000899,-0.00000214,-0.00000981,-0.00000841,0.00000
 845,0.00001039,-0.00001796,0.00001390,0.00000741,0.00000881,0.00001123
 ,-0.00000263,-0.00000963,0.00000453,-0.00001529,-0.00000514,-0.0000109
 8,0.00000562,0.00001595,0.00000260,-0.00000561,0.00001273,-0.00000763,
 -0.00001829,0.00006686,-0.00003109,0.00000269,-0.00000671,0.00000231,0
 .00000141,-0.00000288,0.00000033,0.00000431,-0.00000324,-0.00000351,0.
 00000272,-0.00000887,0.00000909,0.00001346,-0.00000784,0.00001775,0.00
 001129,-0.00004373,0.00001355,-0.00072001,-0.00061836,0.00019503,-0.00
 189348,0.00045042,0.00108864,0.00233926,0.00178608,-0.00064082,0.00106
 020,-0.00058671,-0.00246801,0.09169154,0.03008579,-0.27959390,0.000425
 56,-0.00029289,0.00069561,0.00046953,-0.00014062,0.00164662,-0.1011265
 6,-0.03454982,0.30110650,0.00008688,-0.00000184,-0.00001604,0.00008105
 ,0.00033129,-0.00007733,-0.00026762,0.00001514,0.00003037,0.00007578,0
 .00003157,-0.00001382,0.00008772,-0.00007158,0.00000987,-0.00005672,-0
 .00001798,-0.00000055,0.00001605,0.00003096,0.00000439,0.00000973,-0.0
 0001220,-0.00000270,-0.00002593,-0.00003011,0.00002066,0.00000927,0.00
 000451,0.00004401,0.00001967,-0.00001099,-0.00002596,-0.00000223,0.000
 02304,-0.00000352,-0.00001369,-0.00000236,-0.00000208,-0.00007023,-0.0
 0047643,0.00010102,-0.00000954,0.00005866,0.00000225,0.00000795,-0.000
 00659,0.00000085,0.00001346,0.00000315,-0.00000051,-0.00000570,0.00000
 954,-0.00002473,-0.00000053,0.00001290,0.00001120,-0.00000096,0.000001
 16,0.00000398,0.00001073,0.00000490,0.00000123,-0.00000758,-0.00001098
 ,-0.00000087,0.00003930,-0.00001246,-0.00000618,0.00003702,0.00003604,
 0.00000443,-0.00001680,0.00001414,-0.00000389,-0.00000410,0.00000437,-
 0.00000339,-0.00000108,0.00000132,0.00000335,-0.00001212,-0.00001121,-
 0.00000142,-0.00002062,-0.00001080,-0.00001785,-0.00001134,-0.00001782
 ,-0.00000214,-0.00031483,0.00333147,-0.00027993,0.00227662,-0.00067164
 ,-0.00028878,-0.00700165,-0.00171751,0.00182223,0.00709339,0.03023715,
 -0.00507757,-0.05803224,-0.04995202,0.00699647,0.00097597,-0.00090244,
 -0.00056527,0.00108721,-0.00093873,0.00030219,-0.00362736,-0.01092253,
 -0.00012088,0.06171459,-0.00040373,0.00010195,0.00002566,0.00019456,-0
 .00053069,0.00007002,-0.00005279,0.00030858,-0.00005373,-0.00002211,-0
 .00031466,0.00006214,0.00000221,-0.00035617,0.00005491,0.00011175,0.00
 002793,-0.00004972,0.00000135,0.00004091,0.00002925,0.00001532,-0.0000
 1611,-0.00000933,0.00012855,0.00007861,-0.00004427,-0.00002870,0.00001
 402,-0.00004881,-0.00007475,0.00001144,0.00003304,0.00000679,-0.000015
 37,0.00000221,0.00006296,-0.00006409,0.00001451,0.00001218,0.00087220,
 -0.00014798,0.00010983,0.00056691,-0.00008163,-0.00001881,-0.00003034,
 -0.00000201,-0.00001599,-0.00001151,0.00003000,0.00003881,0.00000220,-
 0.00004880,0.00001295,0.00001335,0.00001690,-0.00000594,-0.00000560,0.
 00001635,-0.00001387,0.00001208,-0.00000515,-0.00001485,-0.00001878,-0
 .00000185,-0.00009699,0.00005383,0.00001184,-0.00021740,-0.00004458,0.
 00001565,0.00009261,-0.00004935,0.00000274,0.00000860,-0.00001219,0.00
 000537,-0.00001384,0.00000773,-0.00000336,0.00007287,0.00001185,-0.000
 04338,0.00008847,0.00002365,0.00004825,0.00005674,0.00000715,-0.000000
 97,0.00168535,-0.00327648,0.00000391,0.00054110,-0.00104496,0.00004566
 ,0.00184482,0.00261226,-0.00058166,-0.00564720,-0.01614145,0.00281375,
 -0.04984940,-0.29357185,0.03691065,0.00032385,0.00049688,0.00054377,0.
 00000512,0.00028991,-0.00070579,-0.00069482,-0.00272858,0.00069116,0.0
 5321768,0.32102841,0.00000350,-0.00000929,-0.00003135,-0.00003404,-0.0
 0000891,0.00000420,0.00005486,-0.00003908,0.00000652,-0.00001801,0.000
 02741,-0.00000462,-0.00000918,0.00005424,0.00002485,-0.00000805,0.0000
 0309,-0.00000426,-0.00000343,-0.00002382,-0.00002233,-0.00000432,0.000
 00452,0.00000494,0.00002874,-0.00001069,0.00000904,-0.00000685,0.00001
 591,0.00008218,-0.00001145,-0.00001326,-0.00005039,0.00001116,0.000040
 28,0.00000630,0.00001438,-0.00003192,0.00000245,0.00001243,0.00000804,
 -0.00000541,-0.00001527,-0.00008098,-0.00002083,-0.00000091,0.00000619
 ,0.00000404,0.00000325,-0.00000357,0.00000159,-0.00000861,-0.00000298,
 -0.00000491,0.00000219,0.00001192,0.00001185,-0.00000137,-0.00000245,-
 0.00000014,0.00000207,-0.00000147,0.00000054,0.00000371,0.00000422,0.0
 0000199,0.00000240,-0.00000499,-0.00000048,0.00000487,-0.00000026,0.00
 000622,-0.00000218,0.00001002,-0.00000338,-0.00000200,0.00000494,-0.00
 000222,0.00000009,-0.00000002,0.00000402,-0.00000304,-0.00001025,-0.00
 001437,-0.00001439,-0.00000800,-0.00001069,-0.00000481,0.00000723,-0.0
 0000882,-0.00009682,-0.00035558,0.00011912,-0.00040529,0.00032741,0.00
 069299,0.00143365,0.00015268,0.00030306,-0.00119918,-0.00489916,-0.000
 51854,0.00701226,0.03693822,-0.05590346,-0.00006592,0.00045709,-0.0000
 4246,-0.00042473,-0.00015127,0.00005773,0.00489635,0.03024307,-0.00222
 731,-0.00882981,-0.04095339,0.05361318,0.00002175,0.00001264,0.0000349
 4,0.00005027,0.00010566,0.00000056,-0.00013166,-0.00000436,-0.00001725
 ,0.00004280,0.00001619,0.00000492,0.00004895,-0.00001550,0.00003275,-0
 .00001194,-0.00000489,0.00000876,-0.00000943,-0.00000539,-0.00003030,0
 .00000904,-0.00000054,0.00001056,-0.00005423,0.00000488,0.00001034,0.0
 0001738,-0.00001527,-0.00006834,0.00005931,-0.00000059,0.00004232,-0.0
 0002330,-0.00003422,-0.00001000,-0.00002009,0.00003993,-0.00000780,-0.
 00001319,-0.00015002,0.00000645,-0.00001463,-0.00000154,-0.00003187,0.
 00000312,0.00000198,-0.00000374,0.00000208,-0.00000073,0.00000050,0.00
 000534,0.00000682,0.00000329,0.00000874,0.00000969,0.00000672,-0.00000
 346,-0.00000198,0.00000409,-0.00000022,-0.00000186,-0.00000455,-0.0000
 0183,0.00000204,-0.00000163,0.00000720,-0.00002764,-0.00001568,0.00005
 942,-0.00009659,0.00000042,-0.00002044,0.00000569,0.00000023,-0.000000
 04,-0.00000166,-0.00000188,0.00000042,0.00000023,-0.00000444,-0.000018
 71,0.00002886,0.00003288,-0.00000814,0.00002305,-0.00001220,-0.0000195
 9,0.00005371,0.00000204,0.00079415,0.00051005,0.00009027,0.00198840,0.
 00009423,0.00036408,-0.00190090,-0.00201474,0.00030800,-0.02094492,-0.
 00759215,-0.01914906,-0.18065554,-0.05579613,-0.12382539,-0.00376902,0
 .00376224,0.00158000,0.00065855,-0.00076144,0.00045861,0.00913592,0.00
 420280,0.00786550,-0.00413951,-0.00146330,-0.00231627,0.19884794,0.000
 13919,-0.00004372,0.00000017,-0.00012683,0.00006749,0.00000579,0.00018
 835,-0.00012551,0.00001152,-0.00003508,0.00011412,-0.00002663,-0.00005
 850,0.00020726,-0.00003224,-0.00001962,-0.00000388,0.00002355,-0.00000
 324,-0.00002768,0.00000638,-0.00002020,0.00002005,-0.00000171,-0.00003
 995,-0.00002559,-0.00001786,0.00000548,-0.00001448,-0.00005070,-0.0000
 1839,0.00002776,0.00002610,0.00000168,-0.00002331,0.00000817,-0.000020
 80,0.00003594,0.00000042,0.00001731,-0.00012530,0.00001268,-0.00003394
 ,-0.00029123,0.00002425,0.00000438,0.00001710,-0.00000287,-0.00000256,
 0.00000350,-0.00001634,-0.00001788,-0.00000013,0.00004247,-0.00001341,
 -0.00002592,-0.00002670,0.00000633,0.00000415,-0.00000948,0.00000692,-
 0.00000882,0.00000195,0.00001348,0.00001368,-0.00000114,0.00002495,0.0
 0000254,0.00000964,0.00003756,0.00005108,-0.00003143,-0.00001829,0.000
 00018,0.00000680,0.00000038,-0.00000094,0.00000524,0.00000535,-0.00000
 452,-0.00000420,-0.00001378,-0.00000393,0.00002229,-0.00000733,-0.0000
 1050,0.00001647,-0.00000174,-0.00002663,0.00001222,-0.00081696,0.00023
 867,-0.00009589,-0.00082592,-0.00042450,-0.00024205,0.00173803,0.00048
 219,0.00062255,0.01362431,0.00580054,0.01350793,-0.05752708,-0.0704808
 2,-0.05278107,0.00345404,-0.00211032,-0.00030285,-0.00090522,0.0007867
 4,-0.00011618,0.00371989,0.00031114,0.00317425,-0.02157075,-0.00834910
 ,-0.02170513,0.05910983,0.07394268,-0.00007098,0.00003601,-0.00001908,
 0.00012797,0.00004882,-0.00001941,-0.00021307,0.00005260,0.00001368,0.
 00005540,-0.00003411,0.00000412,0.00010423,-0.00010019,0.00003316,-0.0
 0007370,-0.00001553,-0.00002590,0.00002652,0.00003702,0.00003241,0.000
 00487,-0.00000931,-0.00001525,0.00003028,-0.00000071,0.00001099,0.0000
 0117,0.00001106,0.00003574,-0.00000256,-0.00000239,-0.00002350,-0.0000
 0434,0.00002415,0.00000326,0.00002139,-0.00003578,0.00000478,-0.000022
 44,-0.00005167,0.00000592,-0.00000102,0.00009237,-0.00003308,0.0000105
 4,-0.00001137,0.00000547,0.00001263,-0.00000632,0.00000805,-0.00001874
 ,0.00002141,-0.00006649,-0.00000325,0.00002453,0.00002316,-0.00000350,
 -0.00000203,0.00001123,0.00002532,0.00000622,0.00000332,-0.00000877,-0
 .00001861,-0.00000052,-0.00000475,-0.00000443,-0.00000284,-0.00001573,
 -0.00005383,-0.00000536,0.00000869,0.00000188,-0.00000160,-0.00000094,
 0.00000162,-0.00000157,-0.00000668,0.00000358,0.00000083,0.00000205,0.
 00000596,-0.00000391,0.00000427,0.00000839,0.00000255,-0.00000158,0.00
 003170,-0.00000470,0.00061152,0.00039794,-0.00030760,0.00173224,-0.000
 27567,0.00021268,-0.00212081,-0.00115903,0.00057298,0.00418044,0.00226
 864,0.00350789,-0.12404113,-0.05092207,-0.16205618,0.00118840,-0.00068
 654,0.00118117,-0.00023131,0.00067142,0.00063458,-0.02194151,-0.009613
 46,-0.01977307,0.00600672,0.00133410,0.00391915,0.13463216,0.05792361,
 0.17213297\\-0.00000048,-0.00000770,-0.00000598,-0.00000398,0.00000887
 ,0.00000161,-0.00000598,0.00000349,-0.00000375,0.00000157,-0.00000452,
 0.00000077,0.00001112,-0.00000064,0.00000255,-0.00000161,-0.00000237,0
 .00000183,-0.00000059,-0.00000188,-0.00000239,0.00000086,0.00000031,0.
 00000100,-0.00000197,-0.00000345,-0.00000495,0.00000078,0.00000213,0.0
 0000064,0.00000055,-0.00000034,-0.00000036,-0.00000023,0.00000145,0.00
 000178,0.00000568,-0.00000121,0.00000815,-0.00000823,-0.00000475,-0.00
 000106,0.00000379,0.00001572,-0.00000448,-0.00000012,-0.00000025,0.000
 00099,-0.00000050,-0.00000096,0.00000009,-0.00000092,0.00000090,-0.000
 00155,0.00000158,0.00000167,0.00000155,-0.00000025,-0.00000010,0.00000
 021,-0.00000008,0.00000003,-0.00000029,-0.00000020,-0.00000001,0.00000
 021,0.00000164,0.00000154,0.00000411,0.00000251,-0.00000048,0.00000137
 ,-0.00000047,-0.00000049,0.00000010,0.00000001,0.00000001,0.00000019,0
 .00000160,0.00000022,-0.00000359,-0.00000081,0.00000025,0.00000025,-0.
 00000009,-0.00000011,-0.00000010,-0.00000138,0.00000062,-0.00000144,-0
 .00001382,-0.00000929,0.00001146,0.00000298,-0.00000652,0.00000788,0.0
 0000648,0.00000476,-0.00001360,0.00000029,0.00000192,-0.00000206,0.000
 00038,0.00000052,0.00000004,0.00000014,0.00000066,0.00000010,-0.000000
 04,-0.00000022,0.00000020,-0.00000003,0.,-0.00000051,-0.00000007,0.000
 00019,-0.00000051,-0.00000011,0.00000004,-0.00000049\\\@


 DON'T WORRY CHARLIE BROWN...WE LEARN MORE FROM LOSING  THAN WE DO FROM WINNING.
 THEN THAT MAKES ME THE SMARTEST PERSON IN THE WORLD...
 CHARLES SCHULZ 'PEANUTS'
 Job cpu time:       0 days 11 hours 35 minutes 43.5 seconds.
 File lengths (MBytes):  RWF=   1252 Int=      0 D2E=      0 Chk=     24 Scr=      1
 Normal termination of Gaussian 09 at Thu Nov 14 23:28:04 2019.
pbs_rusage has been removed.
Please contact help@nci.org.au if you require this functionality.
