 Entering Gaussian System, Link 0=/apps/gaussian/g16c01/g16/g16
 Initial command:
 /apps/gaussian/g16c01/g16/l1.exe "/jobfs/13164450.gadi-pbs/Gau-640946.inp" -scrdir="/jobfs/13164450.gadi-pbs/"
 Entering Link 1 = /apps/gaussian/g16c01/g16/l1.exe PID=    640947.
  
 Copyright (c) 1988-2019, Gaussian, Inc.  All Rights Reserved.
  
 This is part of the Gaussian(R) 16 program.  It is based on
 the Gaussian(R) 09 system (copyright 2009, Gaussian, Inc.),
 the Gaussian(R) 03 system (copyright 2003, Gaussian, Inc.),
 the Gaussian(R) 98 system (copyright 1998, Gaussian, Inc.),
 the Gaussian(R) 94 system (copyright 1995, Gaussian, Inc.),
 the Gaussian 92(TM) system (copyright 1992, Gaussian, Inc.),
 the Gaussian 90(TM) system (copyright 1990, Gaussian, Inc.),
 the Gaussian 88(TM) system (copyright 1988, Gaussian, Inc.),
 the Gaussian 86(TM) system (copyright 1986, Carnegie Mellon
 University), and the Gaussian 82(TM) system (copyright 1983,
 Carnegie Mellon University). Gaussian is a federally registered
 trademark of Gaussian, Inc.
  
 This software contains proprietary and confidential information,
 including trade secrets, belonging to Gaussian, Inc.
  
 This software is provided under written license and may be
 used, copied, transmitted, or stored only in accord with that
 written license.
  
 The following legend is applicable only to US Government
 contracts under FAR:
  
                    RESTRICTED RIGHTS LEGEND
  
 Use, reproduction and disclosure by the US Government is
 subject to restrictions as set forth in subparagraphs (a)
 and (c) of the Commercial Computer Software - Restricted
 Rights clause in FAR 52.227-19.
  
 Gaussian, Inc.
 340 Quinnipiac St., Bldg. 40, Wallingford CT 06492
  
  
 ---------------------------------------------------------------
 Warning -- This program may not be used in any manner that
 competes with the business of Gaussian, Inc. or will provide
 assistance to any competitor of Gaussian, Inc.  The licensee
 of this program is prohibited from giving any competitor of
 Gaussian, Inc. access to this program.  By using this program,
 the user acknowledges that Gaussian, Inc. is engaged in the
 business of creating and licensing software in the field of
 computational chemistry and represents and warrants to the
 licensee that it is not a competitor of Gaussian, Inc. and that
 it will not use this program in any manner prohibited above.
 ---------------------------------------------------------------
  

 Cite this work as:
 Gaussian 16, Revision C.01,
 M. J. Frisch, G. W. Trucks, H. B. Schlegel, G. E. Scuseria, 
 M. A. Robb, J. R. Cheeseman, G. Scalmani, V. Barone, 
 G. A. Petersson, H. Nakatsuji, X. Li, M. Caricato, A. V. Marenich, 
 J. Bloino, B. G. Janesko, R. Gomperts, B. Mennucci, H. P. Hratchian, 
 J. V. Ortiz, A. F. Izmaylov, J. L. Sonnenberg, D. Williams-Young, 
 F. Ding, F. Lipparini, F. Egidi, J. Goings, B. Peng, A. Petrone, 
 T. Henderson, D. Ranasinghe, V. G. Zakrzewski, J. Gao, N. Rega, 
 G. Zheng, W. Liang, M. Hada, M. Ehara, K. Toyota, R. Fukuda, 
 J. Hasegawa, M. Ishida, T. Nakajima, Y. Honda, O. Kitao, H. Nakai, 
 T. Vreven, K. Throssell, J. A. Montgomery, Jr., J. E. Peralta, 
 F. Ogliaro, M. J. Bearpark, J. J. Heyd, E. N. Brothers, K. N. Kudin, 
 V. N. Staroverov, T. A. Keith, R. Kobayashi, J. Normand, 
 K. Raghavachari, A. P. Rendell, J. C. Burant, S. S. Iyengar, 
 J. Tomasi, M. Cossi, J. M. Millam, M. Klene, C. Adamo, R. Cammi, 
 J. W. Ochterski, R. L. Martin, K. Morokuma, O. Farkas, 
 J. B. Foresman, and D. J. Fox, Gaussian, Inc., Wallingford CT, 2019.
 
 ******************************************
 Gaussian 16:  ES64L-G16RevC.01  3-Jul-2019
                 3-Nov-2020 
 ******************************************
 %NprocShared=32
 Will use up to   32 processors via shared memory.
 %Mem=1194000MB
 %chk=29_c2_carboxy.DSDPBEP86_AUG-cc-PVTZ.chk
 ----------------------------------------------------------------------
 # DSDPBEP86/AUG-cc-PVTZ SCF=Tight INT(grid=ultrafine) IOP(8/23=30) Pop
 =NBO MaxDisk=1400000MB
 ----------------------------------------------------------------------
 1/38=1,172=1/1;
 2/12=2,17=6,18=5,40=1/2;
 3/5=16,6=1,7=10,11=9,25=1,30=1,74=-77,75=-5/1,2,3;
 4//1;
 5/5=2,32=2,38=5/2;
 8/10=1,23=30/1;
 9/16=-3/6;
 6/7=2,8=2,9=2,10=2,40=1/1,7;
 99/5=1,9=1/99;
 -----------------------------------
 29_c2_carboxy.DSDPBEP86_AUG-cc-PVTZ
 -----------------------------------
 Symbolic Z-matrix:
 Charge = -1 Multiplicity = 1
 C                    -6.11691   1.42097   0.64194 
 N                    -4.86646   0.84351   0.61001 
 C                    -3.65999   1.4741    0.34043 
 O                    -3.55042   2.67204   0.09502 
 N                    -2.60827   0.62231   0.38643 
 C                    -1.28128   1.08016   0.04451 
 C                    -0.25312   0.03129   0.44988 
 C                     1.16074   0.44557   0.05517 
 C                    -7.20065   0.562     0.91363 
 C                    -8.49881   1.04285   0.97058 
 C                    -8.74824   2.40107   0.75585 
 C                    -7.69021   3.25239   0.48782 
 C                    -6.38421   2.78176   0.42904 
 H                    -4.84636  -0.17971   0.79215 
 H                    -2.75621  -0.39277   0.49113 
 H                    -1.08666   2.02957   0.55284 
 H                    -1.20417   1.28408  -1.03315 
 H                    -0.516    -0.92647  -0.00864 
 H                    -0.31814  -0.12564   1.53076 
 H                     1.24535   0.57474  -1.0277 
 H                     1.89645  -0.30318   0.35765 
 H                     1.44016   1.39488   0.52193 
 H                    -6.99631  -0.49156   1.0774 
 C                    -9.62183   0.08779   1.26347 
 Cl                   -10.36792   3.06459   0.81567 
 H                    -7.89056   4.3046    0.32222 
 H                    -5.56717   3.45513   0.21919 
 F                    -10.30068   0.42435   2.3765 
 F                    -10.52528   0.041     0.2662 
 F                    -9.19124  -1.16548   1.44538 
 O                    -5.04481  -1.86499   1.08199 
 O                    -2.87439  -2.18298   0.64279 
 C                    -4.02264  -2.58344   0.93549 
 C                    -4.23171  -4.09101   1.14161 
 C                    -2.97327  -4.92836   0.96162 
 H                    -5.01826  -4.40296   0.44744 
 H                    -4.6554   -4.22162   2.14221 
 H                    -2.56331  -4.79891  -0.04141 
 H                    -3.17569  -5.99221   1.11993 
 H                    -2.19724  -4.61487   1.66195 
 
                          Input orientation:                          
 ---------------------------------------------------------------------
 Center     Atomic      Atomic             Coordinates (Angstroms)
 Number     Number       Type             X           Y           Z
 ---------------------------------------------------------------------
      1          6           0       -6.116912    1.420965    0.641941
      2          7           0       -4.866463    0.843514    0.610006
      3          6           0       -3.659986    1.474096    0.340434
      4          8           0       -3.550424    2.672043    0.095018
      5          7           0       -2.608268    0.622306    0.386425
      6          6           0       -1.281282    1.080163    0.044508
      7          6           0       -0.253119    0.031290    0.449881
      8          6           0        1.160737    0.445573    0.055166
      9          6           0       -7.200645    0.562001    0.913630
     10          6           0       -8.498810    1.042854    0.970576
     11          6           0       -8.748236    2.401075    0.755855
     12          6           0       -7.690212    3.252393    0.487820
     13          6           0       -6.384205    2.781762    0.429038
     14          1           0       -4.846361   -0.179708    0.792155
     15          1           0       -2.756208   -0.392773    0.491132
     16          1           0       -1.086659    2.029571    0.552841
     17          1           0       -1.204171    1.284076   -1.033145
     18          1           0       -0.515999   -0.926472   -0.008638
     19          1           0       -0.318143   -0.125640    1.530762
     20          1           0        1.245350    0.574744   -1.027701
     21          1           0        1.896446   -0.303181    0.357654
     22          1           0        1.440158    1.394875    0.521934
     23          1           0       -6.996308   -0.491562    1.077398
     24          6           0       -9.621833    0.087790    1.263471
     25         17           0      -10.367924    3.064591    0.815671
     26          1           0       -7.890556    4.304601    0.322222
     27          1           0       -5.567169    3.455130    0.219186
     28          9           0      -10.300681    0.424347    2.376499
     29          9           0      -10.525278    0.040999    0.266198
     30          9           0       -9.191244   -1.165484    1.445382
     31          8           0       -5.044811   -1.864986    1.081992
     32          8           0       -2.874394   -2.182980    0.642786
     33          6           0       -4.022642   -2.583444    0.935486
     34          6           0       -4.231710   -4.091008    1.141615
     35          6           0       -2.973273   -4.928359    0.961623
     36          1           0       -5.018261   -4.402958    0.447441
     37          1           0       -4.655403   -4.221615    2.142210
     38          1           0       -2.563309   -4.798913   -0.041407
     39          1           0       -3.175685   -5.992207    1.119935
     40          1           0       -2.197238   -4.614869    1.661950
 ---------------------------------------------------------------------
                    Distance matrix (angstroms):
                    1          2          3          4          5
     1  C    0.000000
     2  N    1.377713   0.000000
     3  C    2.475927   1.387764   0.000000
     4  O    2.907091   2.310993   1.227726   0.000000
     5  N    3.607454   2.279992   1.354168   2.274642   0.000000
     6  C    4.884300   3.637212   2.429194   2.772298   1.444795
     7  C    6.029275   4.687034   3.701407   4.239307   2.429003
     8  C    7.366130   6.065751   4.937470   5.210930   3.787660
     9  C    1.409295   2.370621   3.700911   4.294941   4.622933
    10  C    2.434011   3.655639   4.898700   5.282744   5.934356
    11  C    2.810242   4.185144   5.188656   5.246655   6.403101
    12  C    2.419329   3.713649   4.407583   4.198684   5.723093
    13  C    1.403047   2.468420   3.023113   2.855508   4.350031
    14  H    2.049151   1.039503   2.084851   3.209040   2.411826
    15  H    3.821874   2.448614   2.079597   3.190734   1.031134
    16  H    5.067720   3.961933   2.641152   2.586988   2.079275
    17  H    5.192271   4.038121   2.820258   2.950273   2.103475
    18  H    6.107696   4.737311   3.971050   4.708269   2.632942
    19  H    6.066936   4.740703   3.891523   4.509549   2.667134
    20  H    7.596492   6.333133   5.171358   5.353373   4.105166
    21  H    8.201671   6.864075   5.833776   6.212031   4.598892
    22  H    7.558067   6.331289   5.103987   5.169073   4.123709
    23  H    2.149586   2.556780   3.941823   4.779914   4.579633
    24  C    3.801069   4.859185   6.190109   6.701168   7.088371
    25  Cl   4.561008   5.936460   6.910279   6.866713   8.146242
    26  H    3.400498   4.605115   5.090169   4.642587   6.439409
    27  H    2.149132   2.732081   2.752553   2.167003   4.099750
    28  F    4.637442   5.729479   7.024697   7.471497   7.948132
    29  F    4.634564   5.725769   7.013666   7.456560   7.939233
    30  F    4.097164   4.841245   6.227608   6.954778   6.903126
    31  O    3.484325   2.755096   3.690137   4.877698   3.550658
    32  O    4.847922   3.623407   3.752702   4.932374   2.829519
    33  C    4.528513   3.544293   4.116945   5.343175   3.546655
    34  C    5.846838   5.003502   5.651472   6.877381   5.041945
    35  C    7.092149   6.084597   6.469071   7.671389   5.592313
    36  H    5.929835   5.251184   6.032919   7.234251   5.573605
    37  H    6.018765   5.296011   6.056268   7.275610   5.544107
    38  H    7.195967   6.129098   6.379588   7.537121   5.438261
    39  H    7.989644   7.060158   7.522489   8.732703   6.679205
    40  H    7.268807   6.166466   6.400120   7.575320   5.405915
                    6          7          8          9         10
     6  C    0.000000
     7  C    1.523675   0.000000
     8  C    2.523149   1.525260   0.000000
     9  C    6.005225   6.983183   8.406142   0.000000
    10  C    7.276792   8.323810   9.721192   1.385530   0.000000
    11  C    7.616181   8.824768  10.124362   2.408760   1.397527
    12  C    6.781555   8.104770   9.295414   2.767526   2.401863
    13  C    5.392877   6.719803   7.907194   2.414279   2.790809
    14  H    3.854353   4.610808   6.084353   2.471344   3.855759
    15  H    2.131765   2.539092   4.029311   4.565426   5.938718
    16  H    1.094375   2.167607   2.794194   6.297997   7.489199
    17  H    1.099483   2.161791   2.735014   6.345789   7.568675
    18  H    2.148272   1.093917   2.167492   6.910183   8.280241
    19  H    2.142558   1.094148   2.165814   6.944246   8.282663
    20  H    2.790869   2.173476   1.093822   8.666243   9.957956
    21  H    3.479894   2.177385   1.092428   9.155038  10.499944
    22  H    2.780866   2.175257   1.094132   8.689683   9.955314
    23  H    6.016535   6.792477   8.274089   1.085618   2.150199
    24  C    8.487370   9.404144  10.855958   2.491869   1.503035
    25  Cl   9.332722  10.566172  11.846841   4.037847   2.757717
    26  H    7.359118   8.752596   9.843238   3.851337   3.380729
    27  H    4.903040   6.325743   7.372181   3.394215   3.870166
    28  F    9.339049  10.238157  11.694150   3.430621   2.367680
    29  F    9.304863  10.273806  11.694921   3.426922   2.367792
    30  F    8.341035   9.072672  10.568430   2.688763   2.362554
    31  O    4.890237   5.191891   6.700886   3.250574   4.516421
    32  O    3.680224   3.436755   4.851481   5.130763   6.492111
    33  C    4.661643   4.613237   6.067728   4.471466   5.760846
    34  C    6.053898   5.770704   7.130177   5.524223   6.677869
    35  C    6.309221   5.679721   6.840383   6.929432   8.135541
    36  H    6.647705   6.509158   7.863978   5.443431   6.484193
    37  H    6.625248   6.350692   7.743764   5.556136   6.622623
    38  H    6.017850   5.376728   6.432921   7.152368   8.389310
    39  H    7.400252   6.728512   7.834749   7.694186   8.823267
    40  H    5.990701   5.180300   6.282183   7.238373   8.496919
                   11         12         13         14         15
    11  C    0.000000
    12  C    1.384197   0.000000
    13  C    2.416687   1.389461   0.000000
    14  H    4.678289   4.467597   3.356654   0.000000
    15  H    6.616651   6.134463   4.821192   2.122440   0.000000
    16  H    7.673265   6.716132   5.352113   4.367327   2.942611
    17  H    7.833335   6.946678   5.586931   4.328965   2.746646
    18  H    8.912169   8.317375   6.955459   4.466650   2.356511
    19  H    8.834662   8.175955   6.816443   4.588380   2.663898
    20  H   10.314471   9.450443   8.074846   6.402344   4.388099
    21  H   10.990033  10.225608   8.836920   6.757920   4.655431
    22  H   10.240631   9.317467   7.946870   6.486343   4.561373
    23  H    3.397056   3.853090   3.392593   2.191093   4.281578
    24  C    2.524308   3.787810   4.293716   4.806123   6.925623
    25  Cl   1.751348   2.704237   4.012417   6.404193   8.366415
    26  H    2.132385   1.083837   2.144654   5.440311   6.960990
    27  H    3.393853   2.149553   1.079357   3.749654   4.773030
    28  F    2.990656   4.287133   4.968782   5.711798   7.819295
    29  F    2.994595   4.289496   4.968580   5.707490   7.784421
    30  F    3.659514   4.763156   4.949057   4.502940   6.551134
    31  O    5.658710   5.791266   4.879815   1.721496   2.784641
    32  O    7.451736   7.263567   6.083842   2.814972   1.800502
    33  C    6.870876   6.907132   5.883784   2.544996   2.569114
    34  C    7.918015   8.143355   7.237125   3.974693   4.034498
    35  C    9.333442   9.455089   8.447726   5.107530   4.565087
    36  H    7.765481   8.108350   7.313436   4.240780   4.604386
    37  H    7.907799   8.234554   7.414244   4.265692   4.581815
    38  H    9.525165   9.559746   8.502188   5.219598   4.442395
    39  H   10.081322  10.307432   9.367736   6.056710   5.650222
    40  H    9.641579   9.666704   8.588418   5.238803   4.416940
                   16         17         18         19         20
    16  H    0.000000
    17  H    1.756395   0.000000
    18  H    3.062533   2.531743   0.000000
    19  H    2.488349   3.057117   1.746491   0.000000
    20  H    3.170631   2.550163   2.528733   3.079088   0.000000
    21  H    3.791932   3.750671   2.518442   2.512391   1.764621
    22  H    2.605493   3.069694   3.081673   2.534032   1.764068
    23  H    6.446334   6.415304   6.585061   6.703531   8.572827
    24  C    8.782067   8.806962   9.250038   9.309976  11.116755
    25  Cl   9.342496   9.516445  10.661543  10.568209  12.019379
    26  H    7.177880   7.461122   9.047524   8.856018   9.959865
    27  H    4.713652   5.031656   6.690640   6.488022   7.500784
    28  F    9.528939   9.752503  10.161378  10.033386  12.038357
    29  F    9.650084   9.492975  10.059683  10.286521  11.853554
    30  F    8.757243   8.714171   8.799499   8.934231  10.865865
    31  O    5.578041   5.398232   4.751886   5.056492   7.068890
    32  O    4.577082   4.197484   2.750490   3.399348   5.231430
    33  C    5.481453   5.174650   3.991676   4.485362   6.448255
    34  C    6.906482   6.541185   5.014367   5.584943   7.514876
    35  C    7.220749   6.760412   4.795279   5.517223   7.213760
    36  H    7.539631   7.005838   5.706516   6.446716   8.135501
    37  H    7.371524   7.232325   5.711286   5.996892   8.238464
    38  H    7.011550   6.311383   4.380451   5.417746   6.659944
    39  H    8.308704   7.840084   5.831747   6.538420   8.202605
    40  H    6.827306   6.561043   4.384256   4.868408   6.783636
                   21         22         23         24         25
    21  H    0.000000
    22  H    1.765951   0.000000
    23  H    8.923821   8.662628   0.000000
    24  C   11.560454  11.163601   2.695116   0.000000
    25  Cl  12.726603  11.929167   4.907394   3.101374   0.000000
    26  H   10.817501   9.775920   4.936917   4.654542   2.813977
    27  H    8.357609   7.310194   4.284314   5.373064   4.853408
    28  F   12.384464  11.925965   3.666802   1.346454   3.067832
    29  F   12.426828  12.044503   3.659959   1.346461   3.077140
    30  F   11.174238  10.974283   2.325366   1.337607   4.435611
    31  O    7.151569   7.279778   2.386348   4.979498   7.259972
    32  O    5.135743   5.606336   4.476601   7.146298   9.149857
    33  C    6.369388   6.770542   3.638516   6.212407   8.495720
    34  C    7.246829   7.915112   4.539068   6.821336   9.431964
    35  C    6.743235   7.723664   5.990274   8.334039  10.889877
    36  H    8.039242   8.679377   4.428152   6.482715   9.193409
    37  H    7.839994   8.445480   4.530669   6.633896   9.353149
    38  H    6.345099   7.396494   6.281439   8.683624  11.112213
    39  H    7.659805   8.731128   6.697467   8.862267  11.569203
    40  H    6.086879   7.116693   6.354088   8.797636  11.245017
                   26         27         28         29         30
    26  H    0.000000
    27  H    2.475954   0.000000
    28  F    5.008505   6.020448   0.000000
    29  F    5.012305   6.020079   2.156565   0.000000
    30  F    5.733681   5.998962   2.150672   2.150750   0.000000
    31  O    6.836616   5.414880   5.877157   5.859507   4.220695
    32  O    8.206909   6.262489   8.059383   7.976461   6.448415
    33  C    7.923511   6.273997   7.108945   7.044141   5.383777
    34  C    9.194825   7.718713   7.664580   7.579501   5.766103
    35  C   10.480270   8.806952   9.183913   9.067024   7.283984
    36  H    9.169915   7.880542   7.411349   7.078760   5.375026
    37  H    9.299190   7.966289   7.314986   7.492979   5.513561
    38  H   10.553945   8.787509   9.643425   9.322678   7.703367
    39  H   11.353000   9.786865   9.670403   9.546987   7.719464
    40  H   10.666100   8.863571   9.569225   9.642691   7.801364
                   31         32         33         34         35
    31  O    0.000000
    32  O    2.237126   0.000000
    33  C    1.257964   1.250807   0.000000
    34  C    2.370625   2.394099   1.535886   0.000000
    35  C    3.700001   2.765599   2.569141   1.522241   0.000000
    36  H    2.616230   3.092350   2.130745   1.094464   2.173110
    37  H    2.613313   3.094560   2.130769   1.094425   2.173209
    38  H    4.003473   2.721764   2.827061   2.164308   1.091281
    39  H    4.530896   3.850799   3.517246   2.174906   1.094443
    40  H    4.000860   2.722374   2.826046   2.164314   1.091313
                   36         37         38         39         40
    36  H    0.000000
    37  H    1.742640   0.000000
    38  H    2.534273   3.078687   0.000000
    39  H    2.524489   2.523808   1.774167   0.000000
    40  H    3.078654   2.535325   1.751943   1.774316   0.000000
 Stoichiometry    C14H17ClF3N2O3(1-)
 Framework group  C1[X(C14H17ClF3N2O3)]
 Deg. of freedom   114
 Full point group                 C1      NOp   1
 Largest Abelian subgroup         C1      NOp   1
 Largest concise Abelian subgroup C1      NOp   1
                         Standard orientation:                         
 ---------------------------------------------------------------------
 Center     Atomic      Atomic             Coordinates (Angstroms)
 Number     Number       Type             X           Y           Z
 ---------------------------------------------------------------------
      1          6           0        0.678297   -1.005925    0.004133
      2          7           0       -0.685048   -0.809272    0.030822
      3          6           0       -1.672341   -1.783153   -0.021106
      4          8           0       -1.446337   -2.987803   -0.092177
      5          7           0       -2.920198   -1.259190    0.024550
      6          6           0       -4.077299   -2.114073   -0.108585
      7          6           0       -5.336168   -1.340030    0.262480
      8          6           0       -6.592295   -2.185958    0.080906
      9          6           0        1.482416    0.150855    0.041075
     10          6           0        2.865008    0.062913    0.021073
     11          6           0        3.482227   -1.189576   -0.037182
     12          6           0        2.700685   -2.331424   -0.074309
     13          6           0        1.313443   -2.255630   -0.053913
     14          1           0       -0.988451    0.183909    0.076710
     15          1           0       -3.065843   -0.239497   -0.022892
     16          1           0       -3.955097   -2.987631    0.539195
     17          1           0       -4.162493   -2.498834   -1.135018
     18          1           0       -5.392344   -0.431816   -0.344683
     19          1           0       -5.248709   -1.002639    1.299629
     20          1           0       -6.706624   -2.502763   -0.959772
     21          1           0       -7.491760   -1.631808    0.358896
     22          1           0       -6.553823   -3.089422    0.696857
     23          1           0        0.993090    1.118959    0.084684
     24          6           0        3.680223    1.325003    0.061926
     25         17           0        5.224914   -1.361333   -0.064775
     26          1           0        3.185685   -3.299637   -0.119470
     27          1           0        0.714344   -3.152976   -0.083294
     28          9           0        4.498788    1.369362    1.130065
     29          9           0        4.464130    1.461683   -1.024244
     30          9           0        2.918225    2.422740    0.121300
     31          8           0       -1.267701    1.882119    0.117319
     32          8           0       -3.461159    1.514176   -0.123704
     33          6           0       -2.461358    2.257467   -0.012186
     34          6           0       -2.684518    3.776931   -0.031622
     35          6           0       -4.140404    4.194377   -0.184430
     36          1           0       -2.069132    4.180508   -0.841733
     37          1           0       -2.252183    4.175853    0.891261
     38          1           0       -4.560124    3.799967   -1.111345
     39          1           0       -4.244634    5.283823   -0.191397
     40          1           0       -4.744899    3.793219    0.630813
 ---------------------------------------------------------------------
 Rotational constants (GHZ):           0.3334233           0.1090793           0.0836904
 Standard basis: Aug-CC-pVTZ (5D, 7F)
 There are  1694 symmetry adapted cartesian basis functions of A   symmetry.
 There are  1453 symmetry adapted basis functions of A   symmetry.
  1453 basis functions,  2157 primitive gaussians,  1694 cartesian basis functions
    92 alpha electrons       92 beta electrons
       nuclear repulsion energy      2113.8430806389 Hartrees.
 NAtoms=   40 NActive=   40 NUniq=   40 SFac= 1.00D+00 NAtFMM=   60 NAOKFM=F Big=F
 Integral buffers will be    131072 words long.
 Regular integral format.
 Two-electron integral symmetry is turned on.
 Nuclear repulsion after empirical dispersion term =     2113.8134638142 Hartrees.
 One-electron integrals computed using PRISM.
 NBasis=  1453 RedAO= T EigKep=  1.00D-06  NBF=  1453
 NBsUse=  1449 1.00D-06 EigRej=  6.27D-07 NBFU=  1449
 ExpMin= 2.53D-02 ExpMax= 4.56D+05 ExpMxC= 1.44D+03 IAcc=3 IRadAn=         5 AccDes= 0.00D+00
 Harris functional with IExCor= 1004 and IRadAn=       5 diagonalized for initial guess.
 HarFok:  IExCor= 1004 AccDes= 0.00D+00 IRadAn=         5 IDoV= 1 UseB2=F ITyADJ=14
 ICtDFT=  3500011 ScaDFX=  1.000000  1.000000  1.000000  1.000000
 FoFCou: FMM=F IPFlag=           0 FMFlag=      100000 FMFlg1=           0
         NFxFlg=           0 DoJE=T BraDBF=F KetDBF=T FulRan=T
         wScrn=  0.000000 ICntrl=       500 IOpCl=  0 I1Cent=   200000004 NGrid=           0
         NMat0=    1 NMatS0=      1 NMatT0=    0 NMatD0=    1 NMtDS0=    0 NMtDT0=    0
 Petite list used in FoFCou.
 Requested convergence on RMS density matrix=1.00D-08 within 128 cycles.
 Requested convergence on MAX density matrix=1.00D-06.
 Requested convergence on             energy=1.00D-06.
 No special actions if energy rises.
 SCF Done:  E(RDSDPBEP86) =  -1634.82252547     A.U. after   14 cycles
            NFock= 14  Conv=0.31D-08     -V/T= 2.0027
 DoSCS=T DFT=T ScalE2(SS,OS)=  0.220000  0.520000
 ExpMin= 2.53D-02 ExpMax= 4.56D+05 ExpMxC= 1.44D+03 IAcc=3 IRadAn=         5 AccDes= 0.00D+00
 HarFok:  IExCor=  205 AccDes= 0.00D+00 IRadAn=         5 IDoV=-2 UseB2=F ITyADJ=14
 ICtDFT= 12500011 ScaDFX=  1.000000  1.000000  1.000000  1.000000
 GSVD:  LWork=        -945 too small for GESVD, short by        4050 words or        4050 for optimal perf.
 Range of M.O.s used for correlation:    28  1449
 NBasis=  1453 NAE=    92 NBE=    92 NFC=    27 NFV=     0
 NROrb=   1422 NOA=    65 NOB=    65 NVA=  1357 NVB=  1357

 **** Warning!!: The largest alpha MO coefficient is  0.94806700D+02

 DoSCS=T DFT=T ScalE2(SS,OS)=  0.220000  0.520000
 Fully direct method using O(OVN) memory.
 JobTyp=1 Pass  1:  I=   1 to  52 NPSUse= 32 ParTrn=T ParDer=T DoDerP=F.
 JobTyp=1 Pass  2:  I=  53 to  65 NPSUse= 32 ParTrn=T ParDer=T DoDerP=F.
 Spin components of T(2) and E(2):
     alpha-alpha T2 =       0.2277312830D+00 E2=     -0.1425400457D+00
     alpha-beta  T2 =       0.1187673804D+01 E2=     -0.1924929662D+01
     beta-beta   T2 =       0.2277312830D+00 E2=     -0.1425400457D+00
 E2(DSDPBEP86) =    -0.2210009753D+01 E(DSDPBEP86) =    -0.16370325352246D+04

 **********************************************************************

            Population analysis using the SCF Density.

 **********************************************************************

 Orbital symmetries:
       Occupied  (A) (A) (A) (A) (A) (A) (A) (A) (A) (A) (A) (A)
                 (A) (A) (A) (A) (A) (A) (A) (A) (A) (A) (A) (A)
                 (A) (A) (A) (A) (A) (A) (A) (A) (A) (A) (A) (A)
                 (A) (A) (A) (A) (A) (A) (A) (A) (A) (A) (A) (A)
                 (A) (A) (A) (A) (A) (A) (A) (A) (A) (A) (A) (A)
                 (A) (A) (A) (A) (A) (A) (A) (A) (A) (A) (A) (A)
                 (A) (A) (A) (A) (A) (A) (A) (A) (A) (A) (A) (A)
                 (A) (A) (A) (A) (A) (A) (A) (A)
       Virtual   (A) (A) (A) (A) (A) (A) (A) (A) (A) (A) (A) (A)
                 (A) (A) (A) (A) (A) (A) (A) (A) (A) (A) (A) (A)
                 (A) (A) (A) (A) (A) (A) (A) (A) (A) (A) (A) (A)
                 (A) (A) (A) (A) (A) (A) (A) (A) (A) (A) (A) (A)
                 (A) (A) (A) (A) (A) (A) (A) (A) (A) (A) (A) (A)
                 (A) (A) (A) (A) (A) (A) (A) (A) (A) (A) (A) (A)
                 (A) (A) (A) (A) (A) (A) (A) (A) (A) (A) (A) (A)
                 (A) (A) (A) (A) (A) (A) (A) (A) (A) (A) (A) (A)
                 (A) (A) (A) (A) (A) (A) (A) (A) (A) (A) (A) (A)
                 (A) (A) (A) (A) (A) (A) (A) (A) (A) (A) (A) (A)
                 (A) (A) (A) (A) (A) (A) (A) (A) (A) (A) (A) (A)
                 (A) (A) (A) (A) (A) (A) (A) (A) (A) (A) (A) (A)
                 (A) (A) (A) (A) (A) (A) (A) (A) (A) (A) (A) (A)
                 (A) (A) (A) (A) (A) (A) (A) (A) (A) (A) (A) (A)
                 (A) (A) (A) (A) (A) (A) (A) (A) (A) (A) (A) (A)
                 (A) (A) (A) (A) (A) (A) (A) (A) (A) (A) (A) (A)
                 (A) (A) (A) (A) (A) (A) (A) (A) (A) (A) (A) (A)
                 (A) (A) (A) (A) (A) (A) (A) (A) (A) (A) (A) (A)
                 (A) (A) (A) (A) (A) (A) (A) (A) (A) (A) (A) (A)
                 (A) (A) (A) (A) (A) (A) (A) (A) (A) (A) (A) (A)
                 (A) (A) (A) (A) (A) (A) (A) (A) (A) (A) (A) (A)
                 (A) (A) (A) (A) (A) (A) (A) (A) (A) (A) (A) (A)
                 (A) (A) (A) (A) (A) (A) (A) (A) (A) (A) (A) (A)
                 (A) (A) (A) (A) (A) (A) (A) (A) (A) (A) (A) (A)
                 (A) (A) (A) (A) (A) (A) (A) (A) (A) (A) (A) (A)
                 (A) (A) (A) (A) (A) (A) (A) (A) (A) (A) (A) (A)
                 (A) (A) (A) (A) (A) (A) (A) (A) (A) (A) (A) (A)
                 (A) (A) (A) (A) (A) (A) (A) (A) (A) (A) (A) (A)
                 (A) (A) (A) (A) (A) (A) (A) (A) (A) (A) (A) (A)
                 (A) (A) (A) (A) (A) (A) (A) (A) (A) (A) (A) (A)
                 (A) (A) (A) (A) (A) (A) (A) (A) (A) (A) (A) (A)
                 (A) (A) (A) (A) (A) (A) (A) (A) (A) (A) (A) (A)
                 (A) (A) (A) (A) (A) (A) (A) (A) (A) (A) (A) (A)
                 (A) (A) (A) (A) (A) (A) (A) (A) (A) (A) (A) (A)
                 (A) (A) (A) (A) (A) (A) (A) (A) (A) (A) (A) (A)
                 (A) (A) (A) (A) (A) (A) (A) (A) (A) (A) (A) (A)
                 (A) (A) (A) (A) (A) (A) (A) (A) (A) (A) (A) (A)
                 (A) (A) (A) (A) (A) (A) (A) (A) (A) (A) (A) (A)
                 (A) (A) (A) (A) (A) (A) (A) (A) (A) (A) (A) (A)
                 (A) (A) (A) (A) (A) (A) (A) (A) (A) (A) (A) (A)
                 (A) (A) (A) (A) (A) (A) (A) (A) (A) (A) (A) (A)
                 (A) (A) (A) (A) (A) (A) (A) (A) (A) (A) (A) (A)
                 (A) (A) (A) (A) (A) (A) (A) (A) (A) (A) (A) (A)
                 (A) (A) (A) (A) (A) (A) (A) (A) (A) (A) (A) (A)
                 (A) (A) (A) (A) (A) (A) (A) (A) (A) (A) (A) (A)
                 (A) (A) (A) (A) (A) (A) (A) (A) (A) (A) (A) (A)
                 (A) (A) (A) (A) (A) (A) (A) (A) (A) (A) (A) (A)
                 (A) (A) (A) (A) (A) (A) (A) (A) (A) (A) (A) (A)
                 (A) (A) (A) (A) (A) (A) (A) (A) (A) (A) (A) (A)
                 (A) (A) (A) (A) (A) (A) (A) (A) (A) (A) (A) (A)
                 (A) (A) (A) (A) (A) (A) (A) (A) (A) (A) (A) (A)
                 (A) (A) (A) (A) (A) (A) (A) (A) (A) (A) (A) (A)
                 (A) (A) (A) (A) (A) (A) (A) (A) (A) (A) (A) (A)
                 (A) (A) (A) (A) (A) (A) (A) (A) (A) (A) (A) (A)
                 (A) (A) (A) (A) (A) (A) (A) (A) (A) (A) (A) (A)
                 (A) (A) (A) (A) (A) (A) (A) (A) (A) (A) (A) (A)
                 (A) (A) (A) (A) (A) (A) (A) (A) (A) (A) (A) (A)
                 (A) (A) (A) (A) (A) (A) (A) (A) (A) (A) (A) (A)
                 (A) (A) (A) (A) (A) (A) (A) (A) (A) (A) (A) (A)
                 (A) (A) (A) (A) (A) (A) (A) (A) (A) (A) (A) (A)
                 (A) (A) (A) (A) (A) (A) (A) (A) (A) (A) (A) (A)
                 (A) (A) (A) (A) (A) (A) (A) (A) (A) (A) (A) (A)
                 (A) (A) (A) (A) (A) (A) (A) (A) (A) (A) (A) (A)
                 (A) (A) (A) (A) (A) (A) (A) (A) (A) (A) (A) (A)
                 (A) (A) (A) (A) (A) (A) (A) (A) (A) (A) (A) (A)
                 (A) (A) (A) (A) (A) (A) (A) (A) (A) (A) (A) (A)
                 (A) (A) (A) (A) (A) (A) (A) (A) (A) (A) (A) (A)
                 (A) (A) (A) (A) (A) (A) (A) (A) (A) (A) (A) (A)
                 (A) (A) (A) (A) (A) (A) (A) (A) (A) (A) (A) (A)
                 (A) (A) (A) (A) (A) (A) (A) (A) (A) (A) (A) (A)
                 (A) (A) (A) (A) (A) (A) (A) (A) (A) (A) (A) (A)
                 (A) (A) (A) (A) (A) (A) (A) (A) (A) (A) (A) (A)
                 (A) (A) (A) (A) (A) (A) (A) (A) (A) (A) (A) (A)
                 (A) (A) (A) (A) (A) (A) (A) (A) (A) (A) (A) (A)
                 (A) (A) (A) (A) (A) (A) (A) (A) (A) (A) (A) (A)
                 (A) (A) (A) (A) (A) (A) (A) (A) (A) (A) (A) (A)
                 (A) (A) (A) (A) (A) (A) (A) (A) (A) (A) (A) (A)
                 (A) (A) (A) (A) (A) (A) (A) (A) (A) (A) (A) (A)
                 (A) (A) (A) (A) (A) (A) (A) (A) (A) (A) (A) (A)
                 (A) (A) (A) (A) (A) (A) (A) (A) (A) (A) (A) (A)
                 (A) (A) (A) (A) (A) (A) (A) (A) (A) (A) (A) (A)
                 (A) (A) (A) (A) (A) (A) (A) (A) (A) (A) (A) (A)
                 (A) (A) (A) (A) (A) (A) (A) (A) (A) (A) (A) (A)
                 (A) (A) (A) (A) (A) (A) (A) (A) (A) (A) (A) (A)
                 (A) (A) (A) (A) (A) (A) (A) (A) (A) (A) (A) (A)
                 (A) (A) (A) (A) (A) (A) (A) (A) (A) (A) (A) (A)
                 (A) (A) (A) (A) (A) (A) (A) (A) (A) (A) (A) (A)
                 (A) (A) (A) (A) (A) (A) (A) (A) (A) (A) (A) (A)
                 (A) (A) (A) (A) (A) (A) (A) (A) (A) (A) (A) (A)
                 (A) (A) (A) (A) (A) (A) (A) (A) (A) (A) (A) (A)
                 (A) (A) (A) (A) (A) (A) (A) (A) (A) (A) (A) (A)
                 (A) (A) (A) (A) (A) (A) (A) (A) (A) (A) (A) (A)
                 (A) (A) (A) (A) (A) (A) (A) (A) (A) (A) (A) (A)
                 (A) (A) (A) (A) (A) (A) (A) (A) (A) (A) (A) (A)
                 (A) (A) (A) (A) (A) (A) (A) (A) (A) (A) (A) (A)
                 (A) (A) (A) (A) (A) (A) (A) (A) (A) (A) (A) (A)
                 (A) (A) (A) (A) (A) (A) (A) (A) (A) (A) (A) (A)
                 (A) (A) (A) (A) (A) (A) (A) (A) (A) (A) (A) (A)
                 (A) (A) (A) (A) (A) (A) (A) (A) (A) (A) (A) (A)
                 (A) (A) (A) (A) (A) (A) (A) (A) (A) (A) (A) (A)
                 (A) (A) (A) (A) (A) (A) (A) (A) (A) (A) (A) (A)
                 (A) (A) (A) (A) (A) (A) (A) (A) (A) (A) (A) (A)
                 (A) (A) (A) (A) (A) (A) (A) (A) (A) (A) (A) (A)
                 (A) (A) (A) (A) (A) (A) (A) (A) (A) (A) (A) (A)
                 (A) (A) (A) (A) (A) (A) (A) (A) (A) (A) (A) (A)
                 (A) (A) (A) (A) (A) (A) (A) (A) (A) (A) (A) (A)
                 (A) (A) (A) (A) (A) (A) (A) (A) (A) (A) (A) (A)
                 (A) (A) (A) (A) (A) (A) (A) (A) (A) (A) (A) (A)
                 (A) (A) (A) (A) (A) (A) (A) (A) (A) (A) (A) (A)
                 (A) (A) (A) (A) (A) (A) (A) (A) (A) (A) (A) (A)
                 (A) (A) (A) (A) (A) (A) (A) (A) (A) (A) (A) (A)
                 (A) (A) (A) (A) (A) (A) (A) (A) (A) (A) (A) (A)
                 (A) (A) (A) (A) (A) (A) (A) (A) (A) (A) (A) (A)
                 (A)
 The electronic state is 1-A.
 Alpha  occ. eigenvalues -- -103.48223 -25.61623 -25.61364 -25.61362 -19.84308
 Alpha  occ. eigenvalues --  -19.81951 -19.81660 -14.97915 -14.96054 -10.99244
 Alpha  occ. eigenvalues --  -10.83261 -10.79339 -10.78714 -10.77657 -10.76099
 Alpha  occ. eigenvalues --  -10.74207 -10.73624 -10.73210 -10.72382 -10.71861
 Alpha  occ. eigenvalues --  -10.71070 -10.69502 -10.69448 -10.05717  -7.63393
 Alpha  occ. eigenvalues --   -7.62930  -7.62925  -1.48079  -1.38681  -1.38381
 Alpha  occ. eigenvalues --   -1.14565  -1.12451  -1.02733  -1.02167  -0.99428
 Alpha  occ. eigenvalues --   -0.97899  -0.91361  -0.86678  -0.85354  -0.82097
 Alpha  occ. eigenvalues --   -0.80378  -0.76868  -0.73580  -0.68981  -0.67210
 Alpha  occ. eigenvalues --   -0.66708  -0.64243  -0.64235  -0.63458  -0.62136
 Alpha  occ. eigenvalues --   -0.57928  -0.55578  -0.52845  -0.52684  -0.52468
 Alpha  occ. eigenvalues --   -0.50995  -0.49713  -0.48951  -0.48376  -0.48194
 Alpha  occ. eigenvalues --   -0.47014  -0.46497  -0.46352  -0.44774  -0.44551
 Alpha  occ. eigenvalues --   -0.44070  -0.43922  -0.43212  -0.42051  -0.41250
 Alpha  occ. eigenvalues --   -0.40778  -0.39748  -0.38559  -0.38294  -0.36878
 Alpha  occ. eigenvalues --   -0.36817  -0.36205  -0.35554  -0.34289  -0.33904
 Alpha  occ. eigenvalues --   -0.33120  -0.32317  -0.31536  -0.31485  -0.28001
 Alpha  occ. eigenvalues --   -0.25954  -0.23552  -0.22560  -0.22260  -0.21950
 Alpha  occ. eigenvalues --   -0.21740  -0.16362
 Alpha virt. eigenvalues --    0.08184   0.09042   0.09323   0.10051   0.10213
 Alpha virt. eigenvalues --    0.11069   0.11171   0.11337   0.11899   0.12519
 Alpha virt. eigenvalues --    0.12671   0.12978   0.13378   0.13426   0.13952
 Alpha virt. eigenvalues --    0.14161   0.14343   0.14431   0.14972   0.15692
 Alpha virt. eigenvalues --    0.15959   0.16218   0.16679   0.17174   0.17426
 Alpha virt. eigenvalues --    0.17525   0.17628   0.18213   0.18372   0.18558
 Alpha virt. eigenvalues --    0.18833   0.19086   0.19505   0.19661   0.19819
 Alpha virt. eigenvalues --    0.20140   0.20469   0.20821   0.21030   0.21217
 Alpha virt. eigenvalues --    0.21403   0.21841   0.21952   0.22202   0.22408
 Alpha virt. eigenvalues --    0.22533   0.23025   0.23258   0.23520   0.23613
 Alpha virt. eigenvalues --    0.23744   0.24086   0.24398   0.24552   0.25079
 Alpha virt. eigenvalues --    0.25218   0.25593   0.26046   0.26372   0.26594
 Alpha virt. eigenvalues --    0.26864   0.27155   0.27646   0.27972   0.28249
 Alpha virt. eigenvalues --    0.28307   0.28595   0.28901   0.29040   0.29467
 Alpha virt. eigenvalues --    0.29859   0.30281   0.30578   0.30762   0.31208
 Alpha virt. eigenvalues --    0.31485   0.31537   0.31954   0.32533   0.32590
 Alpha virt. eigenvalues --    0.32895   0.33187   0.33463   0.33687   0.33857
 Alpha virt. eigenvalues --    0.34190   0.34523   0.34767   0.35054   0.35265
 Alpha virt. eigenvalues --    0.35343   0.35542   0.35589   0.36066   0.36428
 Alpha virt. eigenvalues --    0.36471   0.36620   0.37159   0.37224   0.37433
 Alpha virt. eigenvalues --    0.37862   0.38019   0.38257   0.38399   0.38597
 Alpha virt. eigenvalues --    0.38923   0.39109   0.39288   0.39537   0.39740
 Alpha virt. eigenvalues --    0.40018   0.40173   0.40455   0.40689   0.40976
 Alpha virt. eigenvalues --    0.41243   0.41547   0.41827   0.41972   0.42189
 Alpha virt. eigenvalues --    0.42273   0.42576   0.42748   0.43112   0.43201
 Alpha virt. eigenvalues --    0.43566   0.43660   0.43939   0.44282   0.44752
 Alpha virt. eigenvalues --    0.44901   0.45109   0.45529   0.45616   0.45809
 Alpha virt. eigenvalues --    0.46033   0.46193   0.46485   0.46585   0.46745
 Alpha virt. eigenvalues --    0.46854   0.47368   0.47648   0.47769   0.48117
 Alpha virt. eigenvalues --    0.48209   0.48575   0.48805   0.48926   0.49262
 Alpha virt. eigenvalues --    0.49429   0.49697   0.49888   0.50128   0.50369
 Alpha virt. eigenvalues --    0.50482   0.50991   0.51136   0.51422   0.51548
 Alpha virt. eigenvalues --    0.51775   0.51814   0.52227   0.52449   0.52827
 Alpha virt. eigenvalues --    0.52897   0.53392   0.53551   0.53673   0.53786
 Alpha virt. eigenvalues --    0.54086   0.54209   0.54521   0.54646   0.54754
 Alpha virt. eigenvalues --    0.54885   0.55290   0.55846   0.55890   0.56258
 Alpha virt. eigenvalues --    0.56332   0.56449   0.56903   0.57068   0.57263
 Alpha virt. eigenvalues --    0.57731   0.57892   0.58063   0.58387   0.58560
 Alpha virt. eigenvalues --    0.58607   0.58933   0.59129   0.59339   0.59773
 Alpha virt. eigenvalues --    0.59977   0.60266   0.60464   0.60565   0.60891
 Alpha virt. eigenvalues --    0.61042   0.61284   0.61759   0.62246   0.62375
 Alpha virt. eigenvalues --    0.62830   0.62905   0.63134   0.63518   0.64004
 Alpha virt. eigenvalues --    0.64316   0.64508   0.64718   0.64802   0.65056
 Alpha virt. eigenvalues --    0.65533   0.65903   0.66440   0.66525   0.66957
 Alpha virt. eigenvalues --    0.67109   0.67750   0.68080   0.68266   0.68477
 Alpha virt. eigenvalues --    0.69039   0.69154   0.69385   0.69885   0.70203
 Alpha virt. eigenvalues --    0.70288   0.70902   0.71155   0.71344   0.71724
 Alpha virt. eigenvalues --    0.71975   0.72765   0.72855   0.73460   0.73549
 Alpha virt. eigenvalues --    0.73855   0.74341   0.74429   0.74691   0.74942
 Alpha virt. eigenvalues --    0.75254   0.75599   0.76134   0.76289   0.76527
 Alpha virt. eigenvalues --    0.76988   0.77637   0.77690   0.77884   0.78748
 Alpha virt. eigenvalues --    0.78978   0.79369   0.79478   0.79961   0.80417
 Alpha virt. eigenvalues --    0.80809   0.81598   0.82047   0.82182   0.82653
 Alpha virt. eigenvalues --    0.82966   0.83156   0.83436   0.83929   0.84246
 Alpha virt. eigenvalues --    0.84718   0.85139   0.85401   0.85486   0.86025
 Alpha virt. eigenvalues --    0.86227   0.86453   0.86783   0.87081   0.87401
 Alpha virt. eigenvalues --    0.87688   0.88118   0.88387   0.89257   0.89480
 Alpha virt. eigenvalues --    0.89681   0.89967   0.90026   0.90658   0.90801
 Alpha virt. eigenvalues --    0.90989   0.91573   0.91936   0.92073   0.92264
 Alpha virt. eigenvalues --    0.92464   0.93128   0.93393   0.93645   0.93876
 Alpha virt. eigenvalues --    0.94268   0.94525   0.94800   0.94981   0.95333
 Alpha virt. eigenvalues --    0.95633   0.95976   0.96360   0.96397   0.96597
 Alpha virt. eigenvalues --    0.96799   0.96871   0.97317   0.97339   0.97629
 Alpha virt. eigenvalues --    0.97851   0.98116   0.98229   0.98700   0.98940
 Alpha virt. eigenvalues --    0.99331   0.99510   0.99837   1.00079   1.00468
 Alpha virt. eigenvalues --    1.00612   1.01117   1.01489   1.01551   1.01876
 Alpha virt. eigenvalues --    1.02185   1.02387   1.02585   1.02979   1.03287
 Alpha virt. eigenvalues --    1.03509   1.03777   1.04185   1.04891   1.05049
 Alpha virt. eigenvalues --    1.05188   1.05635   1.05763   1.05863   1.06332
 Alpha virt. eigenvalues --    1.06674   1.06876   1.07219   1.07382   1.07534
 Alpha virt. eigenvalues --    1.08008   1.08287   1.08611   1.09094   1.09303
 Alpha virt. eigenvalues --    1.09635   1.09819   1.10512   1.10685   1.10927
 Alpha virt. eigenvalues --    1.11210   1.11339   1.11838   1.12319   1.12774
 Alpha virt. eigenvalues --    1.13065   1.13280   1.13304   1.13743   1.14024
 Alpha virt. eigenvalues --    1.14156   1.14246   1.14966   1.15099   1.15116
 Alpha virt. eigenvalues --    1.15384   1.15990   1.16311   1.16438   1.16700
 Alpha virt. eigenvalues --    1.17029   1.17386   1.17532   1.17673   1.17831
 Alpha virt. eigenvalues --    1.18258   1.18416   1.18572   1.18935   1.19220
 Alpha virt. eigenvalues --    1.19477   1.20051   1.20177   1.20699   1.20832
 Alpha virt. eigenvalues --    1.21041   1.21106   1.21812   1.22024   1.22389
 Alpha virt. eigenvalues --    1.22512   1.22967   1.23095   1.23281   1.23575
 Alpha virt. eigenvalues --    1.23776   1.24466   1.24802   1.25290   1.25410
 Alpha virt. eigenvalues --    1.25761   1.26214   1.26560   1.27119   1.27312
 Alpha virt. eigenvalues --    1.27759   1.28155   1.28376   1.28714   1.29362
 Alpha virt. eigenvalues --    1.29567   1.29784   1.29908   1.30114   1.30223
 Alpha virt. eigenvalues --    1.30862   1.31368   1.31570   1.31979   1.32201
 Alpha virt. eigenvalues --    1.32485   1.32759   1.33146   1.33392   1.33824
 Alpha virt. eigenvalues --    1.34382   1.34922   1.35389   1.35676   1.35779
 Alpha virt. eigenvalues --    1.36228   1.36436   1.36833   1.37157   1.37447
 Alpha virt. eigenvalues --    1.37751   1.38293   1.38689   1.38951   1.39041
 Alpha virt. eigenvalues --    1.39326   1.39923   1.40358   1.40466   1.40617
 Alpha virt. eigenvalues --    1.40935   1.41371   1.42000   1.42090   1.42966
 Alpha virt. eigenvalues --    1.43120   1.43611   1.43877   1.43988   1.44842
 Alpha virt. eigenvalues --    1.45497   1.45966   1.46347   1.46655   1.46881
 Alpha virt. eigenvalues --    1.47229   1.47592   1.47882   1.48358   1.48632
 Alpha virt. eigenvalues --    1.49183   1.49627   1.50054   1.50434   1.50642
 Alpha virt. eigenvalues --    1.51220   1.51569   1.51682   1.52565   1.52747
 Alpha virt. eigenvalues --    1.53319   1.53746   1.54251   1.54438   1.54584
 Alpha virt. eigenvalues --    1.55358   1.55907   1.56539   1.56818   1.56952
 Alpha virt. eigenvalues --    1.57479   1.58078   1.58438   1.58990   1.59074
 Alpha virt. eigenvalues --    1.59425   1.59761   1.60409   1.60768   1.61367
 Alpha virt. eigenvalues --    1.61497   1.61624   1.62438   1.62937   1.63271
 Alpha virt. eigenvalues --    1.63613   1.63725   1.64463   1.64869   1.65454
 Alpha virt. eigenvalues --    1.65722   1.66310   1.66460   1.66598   1.66740
 Alpha virt. eigenvalues --    1.67261   1.67362   1.67783   1.68039   1.68292
 Alpha virt. eigenvalues --    1.68546   1.69266   1.69522   1.70163   1.70344
 Alpha virt. eigenvalues --    1.70667   1.71029   1.71131   1.71418   1.72122
 Alpha virt. eigenvalues --    1.72357   1.72529   1.72860   1.73217   1.73923
 Alpha virt. eigenvalues --    1.74476   1.75016   1.75251   1.75311   1.75533
 Alpha virt. eigenvalues --    1.75742   1.76426   1.76499   1.76715   1.77203
 Alpha virt. eigenvalues --    1.77498   1.77791   1.78430   1.78648   1.79163
 Alpha virt. eigenvalues --    1.79837   1.79993   1.80152   1.80352   1.81035
 Alpha virt. eigenvalues --    1.81538   1.81701   1.82267   1.82404   1.82624
 Alpha virt. eigenvalues --    1.83150   1.83373   1.83669   1.84415   1.84782
 Alpha virt. eigenvalues --    1.85201   1.85809   1.86142   1.86507   1.86885
 Alpha virt. eigenvalues --    1.87452   1.87663   1.87965   1.88559   1.88849
 Alpha virt. eigenvalues --    1.89308   1.89632   1.90033   1.90345   1.90668
 Alpha virt. eigenvalues --    1.91280   1.91594   1.91950   1.92070   1.92677
 Alpha virt. eigenvalues --    1.93615   1.93737   1.94068   1.94455   1.95001
 Alpha virt. eigenvalues --    1.95693   1.95766   1.96011   1.96742   1.97160
 Alpha virt. eigenvalues --    1.97951   1.98065   1.98255   1.98407   1.98817
 Alpha virt. eigenvalues --    1.99292   1.99550   1.99852   2.00239   2.00402
 Alpha virt. eigenvalues --    2.01669   2.02081   2.02540   2.02596   2.03011
 Alpha virt. eigenvalues --    2.03982   2.04328   2.04623   2.04931   2.05593
 Alpha virt. eigenvalues --    2.05794   2.06375   2.06828   2.07311   2.07632
 Alpha virt. eigenvalues --    2.07926   2.08102   2.08313   2.08692   2.09574
 Alpha virt. eigenvalues --    2.10150   2.10542   2.10727   2.11390   2.11692
 Alpha virt. eigenvalues --    2.12171   2.12591   2.13336   2.13781   2.14202
 Alpha virt. eigenvalues --    2.14407   2.15673   2.15879   2.16017   2.16643
 Alpha virt. eigenvalues --    2.17680   2.18611   2.18814   2.19396   2.20007
 Alpha virt. eigenvalues --    2.20832   2.21149   2.22237   2.22566   2.23554
 Alpha virt. eigenvalues --    2.23775   2.23900   2.24535   2.25303   2.25845
 Alpha virt. eigenvalues --    2.26099   2.26865   2.27339   2.28007   2.29209
 Alpha virt. eigenvalues --    2.29409   2.29694   2.29871   2.30463   2.31013
 Alpha virt. eigenvalues --    2.31656   2.32622   2.32748   2.33471   2.33620
 Alpha virt. eigenvalues --    2.34656   2.35466   2.35720   2.36507   2.37021
 Alpha virt. eigenvalues --    2.37326   2.37754   2.38757   2.39727   2.39918
 Alpha virt. eigenvalues --    2.41060   2.42216   2.42758   2.43034   2.43927
 Alpha virt. eigenvalues --    2.44533   2.45298   2.45681   2.46453   2.46791
 Alpha virt. eigenvalues --    2.47257   2.48126   2.48417   2.48988   2.49643
 Alpha virt. eigenvalues --    2.50273   2.50747   2.51116   2.52065   2.52760
 Alpha virt. eigenvalues --    2.53813   2.54123   2.54315   2.55029   2.55643
 Alpha virt. eigenvalues --    2.56378   2.57262   2.57510   2.58565   2.59352
 Alpha virt. eigenvalues --    2.60132   2.60551   2.61009   2.61186   2.62000
 Alpha virt. eigenvalues --    2.62786   2.63410   2.64685   2.65318   2.66840
 Alpha virt. eigenvalues --    2.67135   2.67877   2.68383   2.68917   2.69471
 Alpha virt. eigenvalues --    2.70772   2.71380   2.71636   2.72220   2.73082
 Alpha virt. eigenvalues --    2.74025   2.74781   2.75319   2.75952   2.76554
 Alpha virt. eigenvalues --    2.77387   2.77732   2.78168   2.78952   2.79692
 Alpha virt. eigenvalues --    2.80482   2.81096   2.81981   2.82801   2.82884
 Alpha virt. eigenvalues --    2.83710   2.84124   2.84696   2.85527   2.86301
 Alpha virt. eigenvalues --    2.86914   2.87092   2.89201   2.89562   2.89851
 Alpha virt. eigenvalues --    2.90158   2.91742   2.92204   2.92907   2.93429
 Alpha virt. eigenvalues --    2.94457   2.95160   2.96969   2.97342   2.97565
 Alpha virt. eigenvalues --    2.98918   2.99092   3.00328   3.01253   3.01436
 Alpha virt. eigenvalues --    3.01898   3.02609   3.03250   3.03713   3.05710
 Alpha virt. eigenvalues --    3.06320   3.07024   3.07821   3.08030   3.08668
 Alpha virt. eigenvalues --    3.09657   3.09884   3.10872   3.10985   3.11600
 Alpha virt. eigenvalues --    3.12149   3.12563   3.13499   3.14072   3.15016
 Alpha virt. eigenvalues --    3.15420   3.17483   3.17571   3.18034   3.18626
 Alpha virt. eigenvalues --    3.19103   3.20698   3.21090   3.21356   3.22803
 Alpha virt. eigenvalues --    3.22886   3.23484   3.23745   3.24353   3.25422
 Alpha virt. eigenvalues --    3.25800   3.26552   3.26937   3.27587   3.28526
 Alpha virt. eigenvalues --    3.28780   3.29639   3.30514   3.31387   3.32297
 Alpha virt. eigenvalues --    3.32931   3.34031   3.34421   3.34659   3.35538
 Alpha virt. eigenvalues --    3.35699   3.36213   3.39275   3.39649   3.39769
 Alpha virt. eigenvalues --    3.40212   3.40666   3.41563   3.42046   3.42233
 Alpha virt. eigenvalues --    3.42624   3.43585   3.44273   3.44561   3.45443
 Alpha virt. eigenvalues --    3.45872   3.46280   3.46883   3.47229   3.47615
 Alpha virt. eigenvalues --    3.48908   3.49391   3.49869   3.50247   3.50581
 Alpha virt. eigenvalues --    3.51291   3.51778   3.53063   3.53262   3.54198
 Alpha virt. eigenvalues --    3.54781   3.55233   3.55892   3.56283   3.56317
 Alpha virt. eigenvalues --    3.57287   3.57920   3.58642   3.58708   3.59603
 Alpha virt. eigenvalues --    3.59878   3.60776   3.61094   3.62117   3.62847
 Alpha virt. eigenvalues --    3.62995   3.63903   3.64622   3.64858   3.65342
 Alpha virt. eigenvalues --    3.66107   3.66556   3.66875   3.67360   3.68045
 Alpha virt. eigenvalues --    3.68513   3.69327   3.69418   3.70465   3.70654
 Alpha virt. eigenvalues --    3.71432   3.71967   3.72655   3.73062   3.73552
 Alpha virt. eigenvalues --    3.73898   3.74090   3.74549   3.74750   3.75217
 Alpha virt. eigenvalues --    3.75635   3.76267   3.76613   3.77062   3.77632
 Alpha virt. eigenvalues --    3.78363   3.78526   3.79469   3.79514   3.80308
 Alpha virt. eigenvalues --    3.81108   3.81503   3.82068   3.82561   3.82897
 Alpha virt. eigenvalues --    3.83342   3.84034   3.85111   3.85601   3.85868
 Alpha virt. eigenvalues --    3.86194   3.86487   3.86913   3.87295   3.87742
 Alpha virt. eigenvalues --    3.88077   3.88718   3.89859   3.89974   3.90685
 Alpha virt. eigenvalues --    3.91500   3.91912   3.92347   3.92671   3.93239
 Alpha virt. eigenvalues --    3.93598   3.93992   3.94814   3.95463   3.95653
 Alpha virt. eigenvalues --    3.96322   3.97203   3.97775   3.97925   3.98609
 Alpha virt. eigenvalues --    3.99095   3.99374   3.99894   4.00662   4.00942
 Alpha virt. eigenvalues --    4.01641   4.02110   4.03172   4.03496   4.03894
 Alpha virt. eigenvalues --    4.04211   4.05192   4.05716   4.06615   4.06848
 Alpha virt. eigenvalues --    4.07104   4.07659   4.08775   4.09166   4.10398
 Alpha virt. eigenvalues --    4.11000   4.11958   4.12489   4.13347   4.13986
 Alpha virt. eigenvalues --    4.14573   4.15373   4.15745   4.16298   4.16664
 Alpha virt. eigenvalues --    4.17467   4.18015   4.18380   4.18550   4.18991
 Alpha virt. eigenvalues --    4.19522   4.19723   4.20059   4.20506   4.21144
 Alpha virt. eigenvalues --    4.21847   4.22121   4.22529   4.22943   4.23695
 Alpha virt. eigenvalues --    4.24255   4.24776   4.25287   4.26165   4.26581
 Alpha virt. eigenvalues --    4.27068   4.27644   4.28238   4.29384   4.30248
 Alpha virt. eigenvalues --    4.30322   4.30814   4.31131   4.31672   4.32898
 Alpha virt. eigenvalues --    4.33067   4.33942   4.34498   4.35127   4.36352
 Alpha virt. eigenvalues --    4.36922   4.37054   4.37592   4.38460   4.38758
 Alpha virt. eigenvalues --    4.39630   4.39823   4.40701   4.41033   4.41645
 Alpha virt. eigenvalues --    4.42433   4.43191   4.44218   4.44796   4.45312
 Alpha virt. eigenvalues --    4.47045   4.48247   4.48606   4.48963   4.49626
 Alpha virt. eigenvalues --    4.50220   4.50249   4.51573   4.52083   4.52858
 Alpha virt. eigenvalues --    4.53270   4.54431   4.55325   4.55446   4.56623
 Alpha virt. eigenvalues --    4.57754   4.58323   4.59084   4.59428   4.60188
 Alpha virt. eigenvalues --    4.60900   4.61867   4.62169   4.63079   4.63608
 Alpha virt. eigenvalues --    4.64702   4.65433   4.65943   4.66981   4.67123
 Alpha virt. eigenvalues --    4.67775   4.68408   4.69726   4.70277   4.70635
 Alpha virt. eigenvalues --    4.71229   4.71504   4.71832   4.72853   4.73559
 Alpha virt. eigenvalues --    4.73941   4.74820   4.75863   4.77235   4.78287
 Alpha virt. eigenvalues --    4.78639   4.79690   4.79846   4.80160   4.80755
 Alpha virt. eigenvalues --    4.81088   4.81833   4.82491   4.83153   4.83293
 Alpha virt. eigenvalues --    4.83704   4.83849   4.85413   4.85913   4.87160
 Alpha virt. eigenvalues --    4.88888   4.89161   4.89839   4.91097   4.91541
 Alpha virt. eigenvalues --    4.91984   4.93063   4.93823   4.95398   4.96172
 Alpha virt. eigenvalues --    4.96922   4.97300   4.97648   4.98149   4.98815
 Alpha virt. eigenvalues --    5.01014   5.01252   5.01908   5.03068   5.03596
 Alpha virt. eigenvalues --    5.04025   5.04622   5.05844   5.07294   5.08422
 Alpha virt. eigenvalues --    5.09615   5.10181   5.10423   5.11302   5.11778
 Alpha virt. eigenvalues --    5.12683   5.13016   5.13415   5.14305   5.15272
 Alpha virt. eigenvalues --    5.15539   5.16456   5.17405   5.17883   5.18900
 Alpha virt. eigenvalues --    5.19292   5.19875   5.21180   5.21874   5.22357
 Alpha virt. eigenvalues --    5.23004   5.23575   5.24625   5.25331   5.26229
 Alpha virt. eigenvalues --    5.26937   5.27169   5.28295   5.28791   5.29331
 Alpha virt. eigenvalues --    5.30144   5.31023   5.31609   5.32613   5.33985
 Alpha virt. eigenvalues --    5.34985   5.35115   5.36195   5.37058   5.38310
 Alpha virt. eigenvalues --    5.39257   5.40562   5.41582   5.42533   5.43967
 Alpha virt. eigenvalues --    5.45222   5.45908   5.47060   5.48026   5.49168
 Alpha virt. eigenvalues --    5.49922   5.50703   5.52184   5.52990   5.56040
 Alpha virt. eigenvalues --    5.56596   5.58148   5.58381   5.59059   5.60016
 Alpha virt. eigenvalues --    5.61144   5.62092   5.62723   5.62946   5.65193
 Alpha virt. eigenvalues --    5.66073   5.67575   5.67920   5.68756   5.69139
 Alpha virt. eigenvalues --    5.70745   5.71376   5.72633   5.73761   5.74523
 Alpha virt. eigenvalues --    5.77990   5.78729   5.79197   5.80631   5.81042
 Alpha virt. eigenvalues --    5.82329   5.82820   5.83734   5.84281   5.85463
 Alpha virt. eigenvalues --    5.86310   5.86485   5.88303   5.89418   5.91281
 Alpha virt. eigenvalues --    5.92271   5.95513   5.96122   5.98200   5.98917
 Alpha virt. eigenvalues --    5.99945   6.00768   6.02548   6.05655   6.05822
 Alpha virt. eigenvalues --    6.08020   6.08960   6.09774   6.11396   6.12798
 Alpha virt. eigenvalues --    6.14163   6.14468   6.15121   6.16625   6.17602
 Alpha virt. eigenvalues --    6.18310   6.19687   6.20214   6.21302   6.23913
 Alpha virt. eigenvalues --    6.24738   6.27057   6.29671   6.31479   6.33900
 Alpha virt. eigenvalues --    6.35398   6.36554   6.37754   6.39015   6.41641
 Alpha virt. eigenvalues --    6.44148   6.45637   6.47044   6.48910   6.54540
 Alpha virt. eigenvalues --    6.60614   6.64481   6.68017   6.70532   6.71847
 Alpha virt. eigenvalues --    6.74064   6.76299   6.77702   6.78574   6.79495
 Alpha virt. eigenvalues --    6.80748   6.81973   6.82921   6.84994   6.87598
 Alpha virt. eigenvalues --    6.90755   6.91125   6.93115   6.93946   6.95938
 Alpha virt. eigenvalues --    6.98203   6.99889   7.00927   7.04636   7.06237
 Alpha virt. eigenvalues --    7.07659   7.09230   7.10643   7.13415   7.15779
 Alpha virt. eigenvalues --    7.17090   7.18147   7.19598   7.23014   7.23911
 Alpha virt. eigenvalues --    7.24460   7.29390   7.36414   7.36702   7.37394
 Alpha virt. eigenvalues --    7.38600   7.39981   7.40594   7.45200   7.47977
 Alpha virt. eigenvalues --    7.49235   7.51878   7.65234   7.66262   7.68721
 Alpha virt. eigenvalues --    7.70455   7.72675   7.76577   7.80257   7.88850
 Alpha virt. eigenvalues --    7.96140   7.99374   8.01370   8.08921   8.11425
 Alpha virt. eigenvalues --    8.13271   8.32057   8.45629   8.51346   8.81517
 Alpha virt. eigenvalues --    8.84501   8.87255   8.90630   8.92202   8.97102
 Alpha virt. eigenvalues --    9.05234   9.06820   9.17692   9.21767   9.22745
 Alpha virt. eigenvalues --    9.23625   9.23780   9.26613   9.28676   9.29852
 Alpha virt. eigenvalues --    9.31681   9.33371   9.38456   9.38771   9.39316
 Alpha virt. eigenvalues --    9.41213   9.45398   9.46704   9.48006   9.48368
 Alpha virt. eigenvalues --    9.56398   9.57629   9.58867   9.62084   9.70113
 Alpha virt. eigenvalues --    9.80353   9.83194   9.88956  10.02528  10.10171
 Alpha virt. eigenvalues --   15.30112  15.75966  15.85248  16.00563  16.28401
 Alpha virt. eigenvalues --   16.44989  16.56276  16.99976  17.43227  17.78086
 Alpha virt. eigenvalues --   18.27274  18.36540  18.44208  18.64224  18.92061
 Alpha virt. eigenvalues --   19.53539  19.61699  20.30290  20.97410  21.34955
 Alpha virt. eigenvalues --   21.68727  22.24866
          Condensed to atoms (all electrons):
               1          2          3          4          5          6
     1  C   10.576585  -0.173128  -0.884438   0.262783  -0.010479   0.001128
     2  N   -0.173128   9.375463   0.774332  -0.178790  -0.800408  -0.170671
     3  C   -0.884438   0.774332   7.395797   0.245233  -0.051520  -0.491186
     4  O    0.262783  -0.178790   0.245233   9.212515  -0.196583   0.011724
     5  N   -0.010479  -0.800408  -0.051520  -0.196583   8.538162   0.443219
     6  C    0.001128  -0.170671  -0.491186   0.011724   0.443219   6.475669
     7  C   -0.009536  -0.016496   0.058941  -0.010052  -0.006784  -0.050775
     8  C    0.000089   0.006390  -0.004326   0.001590  -0.021234  -0.014093
     9  C   -1.974249   0.213656  -0.094488   0.001815  -0.015213  -0.037746
    10  C    0.232692  -0.038232  -0.103766   0.003670  -0.017393  -0.006209
    11  C   -0.224506   0.048394   0.029078  -0.002636   0.013709  -0.000641
    12  C    0.088660   0.023933  -0.040244   0.042393   0.013927   0.004191
    13  C   -0.545938  -0.757790  -0.056212  -0.111192   0.035666  -0.015344
    14  H   -0.132452  -0.815659  -0.378736   0.000489   0.253544  -0.015757
    15  H   -0.064014   0.267611  -0.251354  -0.071701  -0.775143  -0.411166
    16  H   -0.005237  -0.009611  -0.047828  -0.027453  -0.110526   0.381878
    17  H    0.001113  -0.011466  -0.044572   0.013297  -0.013331   0.431392
    18  H   -0.000485  -0.000129   0.008301  -0.004061  -0.039475   0.002634
    19  H   -0.001054   0.001771   0.009596   0.002706  -0.024779  -0.015204
    20  H    0.000422   0.000695   0.001426  -0.000533   0.005573  -0.014839
    21  H   -0.000157   0.000163   0.000600   0.000148  -0.001631  -0.001773
    22  H    0.000458   0.000405   0.002808   0.000607   0.005859  -0.012968
    23  H   -1.215316   0.038478  -0.120891  -0.000988   0.039259  -0.004193
    24  C    0.070934  -0.041227  -0.003049   0.000267  -0.000220  -0.000069
    25  Cl  -0.101359   0.001370  -0.004607   0.000082   0.000094   0.000012
    26  H   -0.034035  -0.011353  -0.020374   0.004241  -0.000050  -0.000227
    27  H   -0.416596  -0.001260   0.162281  -0.192513   0.028927   0.013503
    28  F    0.016777  -0.002316   0.000037  -0.000001  -0.000132  -0.000039
    29  F    0.021865  -0.003032   0.000964   0.000012  -0.000083   0.000019
    30  F   -0.031293   0.010258   0.000682  -0.000026   0.000654   0.000061
    31  O   -0.054626  -0.025582  -0.048611   0.000177  -0.049181  -0.021206
    32  O    0.000397   0.014015  -0.003471  -0.003321  -0.056097  -0.049652
    33  C   -0.061973  -0.093980  -0.009059  -0.005972   0.004121   0.014518
    34  C    0.020273  -0.026905  -0.014110  -0.000871   0.008699   0.007649
    35  C   -0.001317  -0.002712   0.000594  -0.000081   0.001050  -0.000604
    36  H    0.004101  -0.004904  -0.000483  -0.000075   0.003094   0.000764
    37  H    0.003875  -0.005118  -0.000385  -0.000075   0.002841   0.000830
    38  H   -0.000225  -0.000474  -0.000201   0.000010  -0.000478   0.000917
    39  H   -0.000359   0.000132   0.000264  -0.000001  -0.000373  -0.000636
    40  H   -0.000113  -0.000260  -0.000052  -0.000004   0.000683   0.000193
               7          8          9         10         11         12
     1  C   -0.009536   0.000089  -1.974249   0.232692  -0.224506   0.088660
     2  N   -0.016496   0.006390   0.213656  -0.038232   0.048394   0.023933
     3  C    0.058941  -0.004326  -0.094488  -0.103766   0.029078  -0.040244
     4  O   -0.010052   0.001590   0.001815   0.003670  -0.002636   0.042393
     5  N   -0.006784  -0.021234  -0.015213  -0.017393   0.013709   0.013927
     6  C   -0.050775  -0.014093  -0.037746  -0.006209  -0.000641   0.004191
     7  C    5.714670   0.041470   0.001226  -0.000488   0.000325   0.000152
     8  C    0.041470   5.869153   0.000192  -0.000013  -0.000025  -0.000136
     9  C    0.001226   0.000192  10.837404  -1.148355   0.146165  -0.213851
    10  C   -0.000488  -0.000013  -1.148355   8.265420  -0.647911  -0.005311
    11  C    0.000325  -0.000025   0.146165  -0.647911   6.913018  -0.537636
    12  C    0.000152  -0.000136  -0.213851  -0.005311  -0.537636   8.209712
    13  C   -0.002076  -0.000603  -0.247270  -0.254847   0.251036  -0.555461
    14  H    0.010511  -0.001539  -0.279851  -0.040606   0.065862  -0.058057
    15  H   -0.008076   0.005922   0.026633   0.010363  -0.007578   0.003730
    16  H   -0.021155  -0.016845  -0.002237  -0.000241   0.000030  -0.000183
    17  H   -0.002913  -0.010680  -0.004622  -0.000149   0.000172  -0.001053
    18  H    0.332108  -0.037031  -0.001964  -0.000291   0.000092   0.000010
    19  H    0.403129  -0.038871  -0.000570  -0.000023   0.000004   0.000065
    20  H    0.027693   0.380452   0.000140   0.000014  -0.000002   0.000037
    21  H   -0.031152   0.456858   0.000056  -0.000002  -0.000001  -0.000011
    22  H    0.016097   0.393189   0.000046   0.000003   0.000000  -0.000012
    23  H   -0.002944  -0.000138   0.533599  -0.442063  -0.178719   0.092945
    24  C   -0.000099   0.000001  -0.500632  -0.429298  -0.171392   0.069615
    25  Cl   0.000002   0.000000   0.090691   0.135655  -0.322131  -0.162189
    26  H    0.000017  -0.000000   0.024560   0.092498  -0.171771   0.357274
    27  H   -0.000525  -0.000240  -0.089646  -0.073254   0.095641  -0.455650
    28  F    0.000003  -0.000000  -0.041360   0.040860  -0.009392  -0.003895
    29  F    0.000002   0.000000  -0.045413   0.036030  -0.004802  -0.003479
    30  F    0.000000   0.000000   0.046839  -0.071700  -0.001330  -0.006772
    31  O    0.005498   0.002131   0.086228   0.044148  -0.015846   0.008227
    32  O   -0.007206   0.001570   0.030510   0.003015   0.000638  -0.000580
    33  C   -0.003929  -0.002568  -0.027878  -0.005194  -0.006985   0.003879
    34  C   -0.001030  -0.000504  -0.019749   0.001956  -0.000570   0.000522
    35  C    0.001383  -0.000312   0.001118  -0.000197  -0.000066   0.000028
    36  H   -0.000191  -0.000083  -0.009458   0.000098  -0.000079   0.000003
    37  H   -0.000518  -0.000096  -0.010421   0.000506  -0.000095  -0.000031
    38  H   -0.000380   0.000217   0.000279  -0.000120   0.000005   0.000002
    39  H    0.000279  -0.000023   0.000559   0.000030  -0.000010   0.000002
    40  H   -0.000456  -0.000140  -0.000013  -0.000115  -0.000001   0.000008
              13         14         15         16         17         18
     1  C   -0.545938  -0.132452  -0.064014  -0.005237   0.001113  -0.000485
     2  N   -0.757790  -0.815659   0.267611  -0.009611  -0.011466  -0.000129
     3  C   -0.056212  -0.378736  -0.251354  -0.047828  -0.044572   0.008301
     4  O   -0.111192   0.000489  -0.071701  -0.027453   0.013297  -0.004061
     5  N    0.035666   0.253544  -0.775143  -0.110526  -0.013331  -0.039475
     6  C   -0.015344  -0.015757  -0.411166   0.381878   0.431392   0.002634
     7  C   -0.002076   0.010511  -0.008076  -0.021155  -0.002913   0.332108
     8  C   -0.000603  -0.001539   0.005922  -0.016845  -0.010680  -0.037031
     9  C   -0.247270  -0.279851   0.026633  -0.002237  -0.004622  -0.001964
    10  C   -0.254847  -0.040606   0.010363  -0.000241  -0.000149  -0.000291
    11  C    0.251036   0.065862  -0.007578   0.000030   0.000172   0.000092
    12  C   -0.555461  -0.058057   0.003730  -0.000183  -0.001053   0.000010
    13  C    8.844538   0.085013  -0.018819   0.000881   0.002846  -0.001208
    14  H    0.085013   2.216695  -0.151694   0.005673  -0.001456   0.008907
    15  H   -0.018819  -0.151694   1.742028   0.050331  -0.020292   0.007904
    16  H    0.000881   0.005673   0.050331   0.455319   0.001896   0.018280
    17  H    0.002846  -0.001456  -0.020292   0.001896   0.433780  -0.014267
    18  H   -0.001208   0.008907   0.007904   0.018280  -0.014267   0.435867
    19  H   -0.000356   0.000496  -0.005512  -0.019748   0.019178   0.008416
    20  H   -0.000058  -0.000461   0.001194  -0.006571  -0.010928   0.004089
    21  H   -0.000008  -0.000431   0.002235  -0.001221   0.000265  -0.014761
    22  H    0.000074  -0.000361  -0.001241  -0.011052  -0.005146  -0.003426
    23  H   -0.084993  -0.400846   0.008303  -0.000742  -0.000363  -0.001696
    24  C    0.032216  -0.023504   0.003453  -0.000048  -0.000049  -0.000074
    25  Cl   0.030751  -0.005041   0.000337  -0.000010  -0.000009  -0.000003
    26  H   -0.194403  -0.008842   0.001191  -0.000102  -0.000098  -0.000015
    27  H   -0.037293  -0.008212  -0.015549   0.002642   0.001885   0.000255
    28  F   -0.002429   0.000604  -0.000036   0.000004  -0.000001  -0.000001
    29  F   -0.003328  -0.000287   0.000109   0.000001  -0.000003   0.000004
    30  F    0.000651  -0.005218  -0.000393   0.000005   0.000003   0.000007
    31  O   -0.011837  -0.154527  -0.049202  -0.000510  -0.001785  -0.000308
    32  O    0.003833  -0.009398  -0.151212   0.001375   0.000115  -0.010650
    33  C    0.007835   0.015575  -0.019889   0.003403  -0.000308   0.002873
    34  C    0.000658   0.002990   0.018688   0.000628   0.000631   0.003137
    35  C    0.000350   0.005598  -0.007815   0.000085   0.000159  -0.000681
    36  H    0.000201  -0.003145   0.003633   0.000074   0.000059   0.000143
    37  H    0.000332  -0.001703   0.003495   0.000047   0.000104   0.000072
    38  H    0.000030   0.002449  -0.003438   0.000019   0.000008   0.000105
    39  H    0.000026  -0.000404   0.001675  -0.000007  -0.000025  -0.000168
    40  H   -0.000013   0.001159  -0.001033   0.000017  -0.000037   0.000416
              19         20         21         22         23         24
     1  C   -0.001054   0.000422  -0.000157   0.000458  -1.215316   0.070934
     2  N    0.001771   0.000695   0.000163   0.000405   0.038478  -0.041227
     3  C    0.009596   0.001426   0.000600   0.002808  -0.120891  -0.003049
     4  O    0.002706  -0.000533   0.000148   0.000607  -0.000988   0.000267
     5  N   -0.024779   0.005573  -0.001631   0.005859   0.039259  -0.000220
     6  C   -0.015204  -0.014839  -0.001773  -0.012968  -0.004193  -0.000069
     7  C    0.403129   0.027693  -0.031152   0.016097  -0.002944  -0.000099
     8  C   -0.038871   0.380452   0.456858   0.393189  -0.000138   0.000001
     9  C   -0.000570   0.000140   0.000056   0.000046   0.533599  -0.500632
    10  C   -0.000023   0.000014  -0.000002   0.000003  -0.442063  -0.429298
    11  C    0.000004  -0.000002  -0.000001   0.000000  -0.178719  -0.171392
    12  C    0.000065   0.000037  -0.000011  -0.000012   0.092945   0.069615
    13  C   -0.000356  -0.000058  -0.000008   0.000074  -0.084993   0.032216
    14  H    0.000496  -0.000461  -0.000431  -0.000361  -0.400846  -0.023504
    15  H   -0.005512   0.001194   0.002235  -0.001241   0.008303   0.003453
    16  H   -0.019748  -0.006571  -0.001221  -0.011052  -0.000742  -0.000048
    17  H    0.019178  -0.010928   0.000265  -0.005146  -0.000363  -0.000049
    18  H    0.008416   0.004089  -0.014761  -0.003426  -0.001696  -0.000074
    19  H    0.444252  -0.002375  -0.003826   0.001800  -0.000312  -0.000006
    20  H   -0.002375   0.333803  -0.003999   0.017016   0.000049   0.000001
    21  H   -0.003826  -0.003999   0.326906   0.003289  -0.000004   0.000001
    22  H    0.001800   0.017016   0.003289   0.322876   0.000031   0.000001
    23  H   -0.000312   0.000049  -0.000004   0.000031   2.286511  -0.063768
    24  C   -0.000006   0.000001   0.000001   0.000001  -0.063768   5.321110
    25  Cl  -0.000000   0.000000   0.000000   0.000000   0.010095  -0.035863
    26  H    0.000000   0.000001   0.000000  -0.000000   0.015398   0.015151
    27  H    0.000153  -0.000031  -0.000011  -0.000025  -0.033285  -0.007799
    28  F    0.000001   0.000000  -0.000000  -0.000000  -0.006877   0.201324
    29  F   -0.000001  -0.000000   0.000000   0.000000  -0.005219   0.196027
    30  F    0.000003   0.000000   0.000000  -0.000000  -0.006486   0.206158
    31  O    0.000059   0.000156   0.000229   0.000006  -0.026799  -0.003115
    32  O   -0.001300   0.000268   0.000798  -0.000388  -0.006111  -0.000359
    33  C   -0.001873  -0.000160  -0.000273  -0.000147   0.080911   0.003251
    34  C    0.000555  -0.000092  -0.000195  -0.000025  -0.005973  -0.000749
    35  C   -0.000146  -0.000005   0.000080  -0.000040   0.000458   0.000081
    36  H    0.000079  -0.000020  -0.000021  -0.000003   0.003826  -0.000237
    37  H    0.000136  -0.000021  -0.000021  -0.000001   0.004501  -0.000214
    38  H   -0.000023   0.000029  -0.000009   0.000019  -0.000044   0.000018
    39  H   -0.000005   0.000005   0.000024  -0.000008   0.000068   0.000018
    40  H   -0.000066  -0.000018  -0.000016  -0.000001  -0.000052   0.000009
              25         26         27         28         29         30
     1  C   -0.101359  -0.034035  -0.416596   0.016777   0.021865  -0.031293
     2  N    0.001370  -0.011353  -0.001260  -0.002316  -0.003032   0.010258
     3  C   -0.004607  -0.020374   0.162281   0.000037   0.000964   0.000682
     4  O    0.000082   0.004241  -0.192513  -0.000001   0.000012  -0.000026
     5  N    0.000094  -0.000050   0.028927  -0.000132  -0.000083   0.000654
     6  C    0.000012  -0.000227   0.013503  -0.000039   0.000019   0.000061
     7  C    0.000002   0.000017  -0.000525   0.000003   0.000002   0.000000
     8  C    0.000000  -0.000000  -0.000240  -0.000000   0.000000   0.000000
     9  C    0.090691   0.024560  -0.089646  -0.041360  -0.045413   0.046839
    10  C    0.135655   0.092498  -0.073254   0.040860   0.036030  -0.071700
    11  C   -0.322131  -0.171771   0.095641  -0.009392  -0.004802  -0.001330
    12  C   -0.162189   0.357274  -0.455650  -0.003895  -0.003479  -0.006772
    13  C    0.030751  -0.194403  -0.037293  -0.002429  -0.003328   0.000651
    14  H   -0.005041  -0.008842  -0.008212   0.000604  -0.000287  -0.005218
    15  H    0.000337   0.001191  -0.015549  -0.000036   0.000109  -0.000393
    16  H   -0.000010  -0.000102   0.002642   0.000004   0.000001   0.000005
    17  H   -0.000009  -0.000098   0.001885  -0.000001  -0.000003   0.000003
    18  H   -0.000003  -0.000015   0.000255  -0.000001   0.000004   0.000007
    19  H   -0.000000   0.000000   0.000153   0.000001  -0.000001   0.000003
    20  H    0.000000   0.000001  -0.000031   0.000000  -0.000000   0.000000
    21  H    0.000000   0.000000  -0.000011  -0.000000   0.000000   0.000000
    22  H    0.000000  -0.000000  -0.000025  -0.000000   0.000000  -0.000000
    23  H    0.010095   0.015398  -0.033285  -0.006877  -0.005219  -0.006486
    24  C   -0.035863   0.015151  -0.007799   0.201324   0.196027   0.206158
    25  Cl  17.893611   0.029528  -0.011549  -0.016837  -0.015928   0.011609
    26  H    0.029528   0.642446  -0.146129  -0.001669  -0.001772  -0.000508
    27  H   -0.011549  -0.146129   1.570023  -0.000168  -0.000186   0.000503
    28  F   -0.016837  -0.001669  -0.000168   9.343215  -0.012843  -0.078654
    29  F   -0.015928  -0.001772  -0.000186  -0.012843   9.345677  -0.078685
    30  F    0.011609  -0.000508   0.000503  -0.078654  -0.078685   9.347735
    31  O    0.000075   0.000463  -0.003167   0.000397  -0.000037   0.002185
    32  O   -0.000005  -0.000035   0.001283   0.000003  -0.000010  -0.000261
    33  C    0.000148   0.000442  -0.000400   0.000115   0.000235   0.003387
    34  C   -0.000014   0.000013  -0.000021  -0.000003  -0.000027  -0.000476
    35  C    0.000001   0.000002   0.000039  -0.000002  -0.000007  -0.000044
    36  H   -0.000016   0.000002   0.000016  -0.000006   0.000059   0.000224
    37  H   -0.000008   0.000001   0.000021   0.000031   0.000001   0.000171
    38  H    0.000000   0.000001  -0.000011   0.000002  -0.000002  -0.000010
    39  H    0.000000  -0.000000   0.000010   0.000000  -0.000000  -0.000000
    40  H    0.000000   0.000001  -0.000005  -0.000001   0.000001   0.000002
              31         32         33         34         35         36
     1  C   -0.054626   0.000397  -0.061973   0.020273  -0.001317   0.004101
     2  N   -0.025582   0.014015  -0.093980  -0.026905  -0.002712  -0.004904
     3  C   -0.048611  -0.003471  -0.009059  -0.014110   0.000594  -0.000483
     4  O    0.000177  -0.003321  -0.005972  -0.000871  -0.000081  -0.000075
     5  N   -0.049181  -0.056097   0.004121   0.008699   0.001050   0.003094
     6  C   -0.021206  -0.049652   0.014518   0.007649  -0.000604   0.000764
     7  C    0.005498  -0.007206  -0.003929  -0.001030   0.001383  -0.000191
     8  C    0.002131   0.001570  -0.002568  -0.000504  -0.000312  -0.000083
     9  C    0.086228   0.030510  -0.027878  -0.019749   0.001118  -0.009458
    10  C    0.044148   0.003015  -0.005194   0.001956  -0.000197   0.000098
    11  C   -0.015846   0.000638  -0.006985  -0.000570  -0.000066  -0.000079
    12  C    0.008227  -0.000580   0.003879   0.000522   0.000028   0.000003
    13  C   -0.011837   0.003833   0.007835   0.000658   0.000350   0.000201
    14  H   -0.154527  -0.009398   0.015575   0.002990   0.005598  -0.003145
    15  H   -0.049202  -0.151212  -0.019889   0.018688  -0.007815   0.003633
    16  H   -0.000510   0.001375   0.003403   0.000628   0.000085   0.000074
    17  H   -0.001785   0.000115  -0.000308   0.000631   0.000159   0.000059
    18  H   -0.000308  -0.010650   0.002873   0.003137  -0.000681   0.000143
    19  H    0.000059  -0.001300  -0.001873   0.000555  -0.000146   0.000079
    20  H    0.000156   0.000268  -0.000160  -0.000092  -0.000005  -0.000020
    21  H    0.000229   0.000798  -0.000273  -0.000195   0.000080  -0.000021
    22  H    0.000006  -0.000388  -0.000147  -0.000025  -0.000040  -0.000003
    23  H   -0.026799  -0.006111   0.080911  -0.005973   0.000458   0.003826
    24  C   -0.003115  -0.000359   0.003251  -0.000749   0.000081  -0.000237
    25  Cl   0.000075  -0.000005   0.000148  -0.000014   0.000001  -0.000016
    26  H    0.000463  -0.000035   0.000442   0.000013   0.000002   0.000002
    27  H   -0.003167   0.001283  -0.000400  -0.000021   0.000039   0.000016
    28  F    0.000397   0.000003   0.000115  -0.000003  -0.000002  -0.000006
    29  F   -0.000037  -0.000010   0.000235  -0.000027  -0.000007   0.000059
    30  F    0.002185  -0.000261   0.003387  -0.000476  -0.000044   0.000224
    31  O    9.206263   0.000906   0.392779  -0.293530  -0.003095  -0.048768
    32  O    0.000906   9.000768   0.320802  -0.147638  -0.034808  -0.030913
    33  C    0.392779   0.320802   5.277572  -0.484739   0.020955  -0.036865
    34  C   -0.293530  -0.147638  -0.484739   6.108939   0.085187   0.492046
    35  C   -0.003095  -0.034808   0.020955   0.085187   5.766545  -0.045444
    36  H   -0.048768  -0.030913  -0.036865   0.492046  -0.045444   0.431575
    37  H   -0.057018  -0.035802  -0.039903   0.508113  -0.045175   0.058644
    38  H    0.003431   0.009075  -0.010066   0.035947   0.363213  -0.002138
    39  H    0.001841  -0.011749   0.017655  -0.057444   0.460337  -0.013266
    40  H    0.002917   0.014861  -0.015032   0.035876   0.362049   0.000331
              37         38         39         40
     1  C    0.003875  -0.000225  -0.000359  -0.000113
     2  N   -0.005118  -0.000474   0.000132  -0.000260
     3  C   -0.000385  -0.000201   0.000264  -0.000052
     4  O   -0.000075   0.000010  -0.000001  -0.000004
     5  N    0.002841  -0.000478  -0.000373   0.000683
     6  C    0.000830   0.000917  -0.000636   0.000193
     7  C   -0.000518  -0.000380   0.000279  -0.000456
     8  C   -0.000096   0.000217  -0.000023  -0.000140
     9  C   -0.010421   0.000279   0.000559  -0.000013
    10  C    0.000506  -0.000120   0.000030  -0.000115
    11  C   -0.000095   0.000005  -0.000010  -0.000001
    12  C   -0.000031   0.000002   0.000002   0.000008
    13  C    0.000332   0.000030   0.000026  -0.000013
    14  H   -0.001703   0.002449  -0.000404   0.001159
    15  H    0.003495  -0.003438   0.001675  -0.001033
    16  H    0.000047   0.000019  -0.000007   0.000017
    17  H    0.000104   0.000008  -0.000025  -0.000037
    18  H    0.000072   0.000105  -0.000168   0.000416
    19  H    0.000136  -0.000023  -0.000005  -0.000066
    20  H   -0.000021   0.000029   0.000005  -0.000018
    21  H   -0.000021  -0.000009   0.000024  -0.000016
    22  H   -0.000001   0.000019  -0.000008  -0.000001
    23  H    0.004501  -0.000044   0.000068  -0.000052
    24  C   -0.000214   0.000018   0.000018   0.000009
    25  Cl  -0.000008   0.000000   0.000000   0.000000
    26  H    0.000001   0.000001  -0.000000   0.000001
    27  H    0.000021  -0.000011   0.000010  -0.000005
    28  F    0.000031   0.000002   0.000000  -0.000001
    29  F    0.000001  -0.000002  -0.000000   0.000001
    30  F    0.000171  -0.000010  -0.000000   0.000002
    31  O   -0.057018   0.003431   0.001841   0.002917
    32  O   -0.035802   0.009075  -0.011749   0.014861
    33  C   -0.039903  -0.010066   0.017655  -0.015032
    34  C    0.508113   0.035947  -0.057444   0.035876
[...]
  1202. RY*(  28) C  33                  0.00000     3.53480   
  1203. RY*(  29) C  33                  0.00000     3.16386   
  1204. RY*(  30) C  33                  0.00000     3.82967   
  1205. RY*(  31) C  33                  0.00000     4.04121   
  1206. RY*(  32) C  33                  0.00000     3.66648   
  1207. RY*(  33) C  33                  0.00000     3.39096   
  1208. RY*(  34) C  33                  0.00000     3.59886   
  1209. RY*(  35) C  33                  0.00000     3.47651   
  1210. RY*(  36) C  33                  0.00000     3.80082   
  1211. RY*(  37) C  33                  0.00000     3.27574   
  1212. RY*(  38) C  33                  0.00000     4.58989   
  1213. RY*(  39) C  33                  0.00000     5.72251   
  1214. RY*(  40) C  33                  0.00000     5.19764   
  1215. RY*(  41) C  33                  0.00000     8.26001   
  1216. RY*(   1) C  34                  0.00266     1.84031   
  1217. RY*(   2) C  34                  0.00181     3.11297   
  1218. RY*(   3) C  34                  0.00178     1.64052   
  1219. RY*(   4) C  34                  0.00095     1.47644   
  1220. RY*(   5) C  34                  0.00044     1.36734   
  1221. RY*(   6) C  34                  0.00031     1.98148   
  1222. RY*(   7) C  34                  0.00026     2.01161   
  1223. RY*(   8) C  34                  0.00019     1.87252   
  1224. RY*(   9) C  34                  0.00009     1.49415   
  1225. RY*(  10) C  34                  0.00009     3.50947   
  1226. RY*(  11) C  34                  0.00002     2.04578   
  1227. RY*(  12) C  34                  0.00000     1.35109   
  1228. RY*(  13) C  34                  0.00000     2.25123   
  1229. RY*(  14) C  34                  0.00000     3.94400   
  1230. RY*(  15) C  34                  0.00000     1.83411   
  1231. RY*(  16) C  34                  0.00000     6.57241   
  1232. RY*(  17) C  34                  0.00000     3.82017   
  1233. RY*(  18) C  34                  0.00000     2.19741   
  1234. RY*(  19) C  34                  0.00000     2.16854   
  1235. RY*(  20) C  34                  0.00000     2.08755   
  1236. RY*(  21) C  34                  0.00000     2.96951   
  1237. RY*(  22) C  34                  0.00000     1.21966   
  1238. RY*(  23) C  34                  0.00001     3.51212   
  1239. RY*(  24) C  34                  0.00000     2.22680   
  1240. RY*(  25) C  34                  0.00000     1.77253   
  1241. RY*(  26) C  34                  0.00000     3.80408   
  1242. RY*(  27) C  34                  0.00000     2.32847   
  1243. RY*(  28) C  34                  0.00000     4.27727   
  1244. RY*(  29) C  34                  0.00000     2.65179   
  1245. RY*(  30) C  34                  0.00000     4.48699   
  1246. RY*(  31) C  34                  0.00000     3.73611   
  1247. RY*(  32) C  34                  0.00000     4.34337   
  1248. RY*(  33) C  34                  0.00000     2.93143   
  1249. RY*(  34) C  34                  0.00000     4.25346   
  1250. RY*(  35) C  34                  0.00000     2.70335   
  1251. RY*(  36) C  34                  0.00000     4.20917   
  1252. RY*(  37) C  34                  0.00000     3.27488   
  1253. RY*(  38) C  34                  0.00000     4.30918   
  1254. RY*(  39) C  34                  0.00000     3.27016   
  1255. RY*(  40) C  34                  0.00000     4.42235   
  1256. RY*(  41) C  34                  0.00000     3.69731   
  1257. RY*(   1) C  35                  0.00191     1.67955   
  1258. RY*(   2) C  35                  0.00074     1.93994   
  1259. RY*(   3) C  35                  0.00033     1.91182   
  1260. RY*(   4) C  35                  0.00016     2.05474   
  1261. RY*(   5) C  35                  0.00010     1.45954   
  1262. RY*(   6) C  35                  0.00006     1.81346   
  1263. RY*(   7) C  35                  0.00003     2.75268   
  1264. RY*(   8) C  35                  0.00004     1.89805   
  1265. RY*(   9) C  35                  0.00000     1.86668   
  1266. RY*(  10) C  35                  0.00000     2.05920   
  1267. RY*(  11) C  35                  0.00000     2.13132   
  1268. RY*(  12) C  35                  0.00000     1.41576   
  1269. RY*(  13) C  35                  0.00001     1.92593   
  1270. RY*(  14) C  35                  0.00000     2.68043   
  1271. RY*(  15) C  35                  0.00000     2.90640   
  1272. RY*(  16) C  35                  0.00000     1.66603   
  1273. RY*(  17) C  35                  0.00000     3.10291   
  1274. RY*(  18) C  35                  0.00000     2.66198   
  1275. RY*(  19) C  35                  0.00000     3.67143   
  1276. RY*(  20) C  35                  0.00000     3.25690   
  1277. RY*(  21) C  35                  0.00000     2.58116   
  1278. RY*(  22) C  35                  0.00000     5.00355   
  1279. RY*(  23) C  35                  0.00000     3.61929   
  1280. RY*(  24) C  35                  0.00000     2.45595   
  1281. RY*(  25) C  35                  0.00001     1.93207   
  1282. RY*(  26) C  35                  0.00000     3.18923   
  1283. RY*(  27) C  35                  0.00000     2.11222   
  1284. RY*(  28) C  35                  0.00000     4.18076   
  1285. RY*(  29) C  35                  0.00000     4.02032   
  1286. RY*(  30) C  35                  0.00000     4.42021   
  1287. RY*(  31) C  35                  0.00000     3.61241   
  1288. RY*(  32) C  35                  0.00000     4.35185   
  1289. RY*(  33) C  35                  0.00000     3.76388   
  1290. RY*(  34) C  35                  0.00000     4.22117   
  1291. RY*(  35) C  35                  0.00000     2.39335   
  1292. RY*(  36) C  35                  0.00000     4.25114   
  1293. RY*(  37) C  35                  0.00000     3.06582   
  1294. RY*(  38) C  35                  0.00000     4.75862   
  1295. RY*(  39) C  35                  0.00000     3.90869   
  1296. RY*(  40) C  35                  0.00000     4.46536   
  1297. RY*(  41) C  35                  0.00000     3.83129   
  1298. RY*(   1) H  36                  0.00101     1.03434   
  1299. RY*(   2) H  36                  0.00033     0.84734   
  1300. RY*(   3) H  36                  0.00033     1.21399   
  1301. RY*(   4) H  36                  0.00014     2.09103   
  1302. RY*(   5) H  36                  0.00015     3.01996   
  1303. RY*(   6) H  36                  0.00009     2.21460   
  1304. RY*(   7) H  36                  0.00003     2.56467   
  1305. RY*(   8) H  36                  0.00001     3.28220   
  1306. RY*(   9) H  36                  0.00001     3.12041   
  1307. RY*(  10) H  36                  0.00001     3.77499   
  1308. RY*(  11) H  36                  0.00001     3.91018   
  1309. RY*(  12) H  36                  0.00001     3.55288   
  1310. RY*(  13) H  36                  0.00001     2.58360   
  1311. RY*(  14) H  36                  0.00000     4.06075   
  1312. RY*(  15) H  36                  0.00000     2.95425   
  1313. RY*(  16) H  36                  0.00000     4.25123   
  1314. RY*(  17) H  36                  0.00000     3.38757   
  1315. RY*(  18) H  36                  0.00000     4.34297   
  1316. RY*(  19) H  36                  0.00000     2.41340   
  1317. RY*(  20) H  36                  0.00000     4.75469   
  1318. RY*(  21) H  36                  0.00000     2.87190   
  1319. RY*(  22) H  36                  0.00001     3.77255   
  1320. RY*(   1) H  37                  0.00101     0.85308   
  1321. RY*(   2) H  37                  0.00035     0.99262   
  1322. RY*(   3) H  37                  0.00033     1.19760   
  1323. RY*(   4) H  37                  0.00014     2.70314   
  1324. RY*(   5) H  37                  0.00014     2.68210   
  1325. RY*(   6) H  37                  0.00009     2.80932   
  1326. RY*(   7) H  37                  0.00003     2.86952   
  1327. RY*(   8) H  37                  0.00001     3.67717   
  1328. RY*(   9) H  37                  0.00001     2.71135   
  1329. RY*(  10) H  37                  0.00001     3.78118   
  1330. RY*(  11) H  37                  0.00001     4.20589   
  1331. RY*(  12) H  37                  0.00001     3.58294   
  1332. RY*(  13) H  37                  0.00001     2.60902   
  1333. RY*(  14) H  37                  0.00000     4.78740   
  1334. RY*(  15) H  37                  0.00000     2.52960   
  1335. RY*(  16) H  37                  0.00000     4.35076   
  1336. RY*(  17) H  37                  0.00000     3.46825   
  1337. RY*(  18) H  37                  0.00000     4.22452   
  1338. RY*(  19) H  37                  0.00000     2.29671   
  1339. RY*(  20) H  37                  0.00000     4.17474   
  1340. RY*(  21) H  37                  0.00000     2.38726   
  1341. RY*(  22) H  37                  0.00001     4.31060   
  1342. RY*(   1) H  38                  0.00084     0.82031   
  1343. RY*(   2) H  38                  0.00026     1.06522   
  1344. RY*(   3) H  38                  0.00021     1.73771   
  1345. RY*(   4) H  38                  0.00019     1.80665   
  1346. RY*(   5) H  38                  0.00008     2.65265   
  1347. RY*(   6) H  38                  0.00006     2.06367   
  1348. RY*(   7) H  38                  0.00003     2.29455   
  1349. RY*(   8) H  38                  0.00000     2.50390   
  1350. RY*(   9) H  38                  0.00000     2.77631   
  1351. RY*(  10) H  38                  0.00001     3.83332   
  1352. RY*(  11) H  38                  0.00000     4.81526   
  1353. RY*(  12) H  38                  0.00000     3.12331   
  1354. RY*(  13) H  38                  0.00001     2.47591   
  1355. RY*(  14) H  38                  0.00000     3.72794   
  1356. RY*(  15) H  38                  0.00001     2.25259   
  1357. RY*(  16) H  38                  0.00000     4.55504   
  1358. RY*(  17) H  38                  0.00000     2.33817   
  1359. RY*(  18) H  38                  0.00000     4.40487   
  1360. RY*(  19) H  38                  0.00000     2.13238   
  1361. RY*(  20) H  38                  0.00000     4.08493   
  1362. RY*(  21) H  38                  0.00000     2.76468   
  1363. RY*(  22) H  38                  0.00000     4.54369   
  1364. RY*(   1) H  39                  0.00088     0.73401   
  1365. RY*(   2) H  39                  0.00032     1.38514   
  1366. RY*(   3) H  39                  0.00016     1.75192   
  1367. RY*(   4) H  39                  0.00013     2.18901   
  1368. RY*(   5) H  39                  0.00006     2.45442   
  1369. RY*(   6) H  39                  0.00003     1.36470   
  1370. RY*(   7) H  39                  0.00002     2.36830   
  1371. RY*(   8) H  39                  0.00000     5.26028   
  1372. RY*(   9) H  39                  0.00000     3.65477   
  1373. RY*(  10) H  39                  0.00000     3.73641   
  1374. RY*(  11) H  39                  0.00001     1.73733   
  1375. RY*(  12) H  39                  0.00000     3.75158   
  1376. RY*(  13) H  39                  0.00000     2.38516   
  1377. RY*(  14) H  39                  0.00000     4.43487   
  1378. RY*(  15) H  39                  0.00000     1.83983   
  1379. RY*(  16) H  39                  0.00000     3.62811   
  1380. RY*(  17) H  39                  0.00000     1.82330   
  1381. RY*(  18) H  39                  0.00000     4.63504   
  1382. RY*(  19) H  39                  0.00000     2.22616   
  1383. RY*(  20) H  39                  0.00000     4.63217   
  1384. RY*(  21) H  39                  0.00000     2.08750   
  1385. RY*(  22) H  39                  0.00000     4.20117   
  1386. RY*(   1) H  40                  0.00084     0.93687   
  1387. RY*(   2) H  40                  0.00025     1.42716   
  1388. RY*(   3) H  40                  0.00021     2.15373   
  1389. RY*(   4) H  40                  0.00019     1.87649   
  1390. RY*(   5) H  40                  0.00008     2.75985   
  1391. RY*(   6) H  40                  0.00006     2.12582   
  1392. RY*(   7) H  40                  0.00001     1.43520   
  1393. RY*(   8) H  40                  0.00001     3.94139   
  1394. RY*(   9) H  40                  0.00001     3.46803   
  1395. RY*(  10) H  40                  0.00001     2.99688   
  1396. RY*(  11) H  40                  0.00000     4.61634   
  1397. RY*(  12) H  40                  0.00000     3.71086   
  1398. RY*(  13) H  40                  0.00001     5.29571   
  1399. RY*(  14) H  40                  0.00000     3.97495   
  1400. RY*(  15) H  40                  0.00000     2.35464   
  1401. RY*(  16) H  40                  0.00000     4.97703   
  1402. RY*(  17) H  40                  0.00000     5.38900   
  1403. RY*(  18) H  40                  0.00000     4.31826   
  1404. RY*(  19) H  40                  0.00000     6.39534   
  1405. RY*(  20) H  40                  0.00000     4.24109   
  1406. RY*(  21) H  40                  0.00001     2.08184   
  1407. RY*(  22) H  40                  0.00000     5.00712   
  1441. BD*(   1) O  31 - C  33          0.06043     7.63044   
  1442. BD*(   1) O  32 - C  33          0.04523     1.41624   
  1443. BD*(   2) O  32 - C  33          0.32954     0.33811  1451(r),1447(v),1404(r)
                                                    1448(r),1434(r),1274(r)
                                                    1408(r),1453(r),1275(r)
                                                    1325(r),1287(r),1437(r)
                                                    1225(v),1386(r),1446(v)
                                                    1297(r),1177(g),1289(r)
                                                    1387(r),1327(r),1293(r)
                                                    1298(r),1217(v),1280(r)
                                                    1444(g),1279(r),1312(r)
                                                    1318(r),1272(r),1265(r)
                                                    1321(r),1395(r),1294(r)
                                                    1374(r),1401(r),1196(g)
                                                    1271(r),1237(v),1416(r)
                                                    1268(r),1360(r),1323(r)
                                                    1452(r),1407(r),1362(r)
                                                    1317(r),1281(r),1388(r)
                                                    1189(g),1417(r),1369(r)
                                                    1309(r),1335(r),1394(r)
                                                    1183(g),1431(r),1392(r)
                                                    1441(g),1190(g),1405(r)
                                                    1270(r),1135(g),1326(r)
                                                    1378(r),1442(g),1384(r)
                                                    1193(g),1223(v),1398(r)
                                                    1365(r),1229(v),1145(g)
                                                    1094(v),1433(r),1368(r)
                                                    1252(v),1295(r),1277(r)
                                                    1400(r),1285(r),1198(g)
                                                    1418(r),1236(v),1227(v)
                                                    1222(v),1199(g),1283(r)
                                                    1216(v),1308(r),1440(r)
                                                    806(r),1430(r),1436(r)
                                                    1414(r),1410(r),677(r)
                                                    666(r),632(r),1411(r),645(r)
                                                    1420(r),636(r),1423(r)
                                                    281(r),628(r),658(r),97(r)
                                                    358(r),457(r),1424(r),105(r)
                                                    743(r),714(r),836(r),192(r)
                                                    322(r),274(r),419(r),354(r)
                                                    279(r),622(r),188(r),1421(r)
                                                    380(r),1425(r),381(r),655(r)
                                                    668(r),101(r),656(r),123(r)
                                                    691(r),697(r),308(r),1062(r)
  1444. BD*(   1) C  33 - C  34          0.07855     0.68020   
  1445. BD*(   1) C  34 - C  35          0.00634     6.58860   
  1446. BD*(   1) C  34 - H  36          0.01144     1.22358   
  1447. BD*(   1) C  34 - H  37          0.01144     7.91377   
  1448. BD*(   1) C  35 - H  38          0.00762     1.33469   
  1449. BD*(   1) C  35 - H  39          0.00722     0.64983   
  1450. BD*(   1) C  35 - H  40          0.00762     0.65695   
       -------------------------------
              Total Lewis   39.25882  ( 98.4093%)
        Valence non-Lewis    0.56545  (  1.4174%)
        Rydberg non-Lewis    0.06914  (  0.1733%)
       -------------------------------
            Total unit  2   39.89340  (100.0000%)
           Charge unit  2   -0.89340

 Test job not archived.
 1\1\GINC-GADI-HMEM-CLX-0010\SP\RDSDPBEP86-FC\Aug-CC-pVTZ\C14H17Cl1F3N2
 O3(1-)\HIO507\03-Nov-2020\0\\# DSDPBEP86/AUG-cc-PVTZ SCF=Tight INT(gri
 d=ultrafine) IOP(8/23=30) Pop=NBO MaxDisk=1400000MB\\29_c2_carboxy.DSD
 PBEP86_AUG-cc-PVTZ\\-1,1\C,0,-6.1169118535,1.4209652183,0.6419408717\N
 ,0,-4.8664626218,0.8435142202,0.6100062036\C,0,-3.6599860027,1.4740955
 641,0.3404341062\O,0,-3.5504237433,2.6720428986,0.0950184634\N,0,-2.60
 82680746,0.6223064406,0.3864250692\C,0,-1.2812824865,1.0801634917,0.04
 45075808\C,0,-0.2531186871,0.0312900167,0.4498812172\C,0,1.1607370224,
 0.4455726153,0.0551662108\C,0,-7.2006452897,0.562000606,0.9136297803\C
 ,0,-8.4988098652,1.0428542208,0.9705764798\C,0,-8.7482362971,2.4010745
 238,0.7558549476\C,0,-7.6902118901,3.252393059,0.4878197187\C,0,-6.384
 2053713,2.781762198,0.4290383476\H,0,-4.846361032,-0.1797080791,0.7921
 54599\H,0,-2.7562081257,-0.3927732665,0.4911323381\H,0,-1.0866587708,2
 .0295714979,0.55284083\H,0,-1.2041708039,1.2840761036,-1.0331454114\H,
 0,-0.5159985051,-0.9264724065,-0.0086378179\H,0,-0.3181425092,-0.12563
 97074,1.5307622361\H,0,1.2453497645,0.5747439944,-1.0277010628\H,0,1.8
 96446137,-0.3031806724,0.357653701\H,0,1.4401576931,1.3948753455,0.521
 9340301\H,0,-6.9963075786,-0.4915616238,1.07739759\C,0,-9.6218325448,0
 .0877897898,1.2634713175\Cl,0,-10.3679238989,3.064590729,0.8156709327\
 H,0,-7.8905562804,4.3046008662,0.3222224671\H,0,-5.5671687464,3.455130
 2875,0.2191856396\F,0,-10.3006812285,0.4243469266,2.3764991862\F,0,-10
 .5252783628,0.0409986783,0.2661977992\F,0,-9.1912436896,-1.1654835799,
 1.4453823897\O,0,-5.0448105194,-1.8649860379,1.0819915654\O,0,-2.87439
 36423,-2.1829800471,0.6427864527\C,0,-4.0226421182,-2.5834443941,0.935
 4855751\C,0,-4.2317100979,-4.0910080909,1.1416147612\C,0,-2.973272812,
 -4.9283589797,0.9616229212\H,0,-5.0182610775,-4.402957653,0.4474407974
 \H,0,-4.6554033725,-4.2216153787,2.1422102717\H,0,-2.5633094337,-4.798
 9131204,-0.0414068255\H,0,-3.1756850983,-5.9922068265,1.1199346549\H,0
 ,-2.1972381855,-4.6148694279,1.6619500647\\Version=ES64L-G16RevC.01\St
 ate=1-A\HF=-1634.8225255\MP2=-1637.0325352\RMSD=3.130e-09\PG=C01 [X(C1
 4H17Cl1F3N2O3)]\\@


 IN SO FAR AS QUANTUM MECHANICS IS CORRECT, CHEMICAL 
 QUESTIONS ARE PROBLEMS IN APPLIED MATHEMATICS.

                    -- EYRING, WALTER, & KIMBALL, 1944
 Job cpu time:       6 days 18 hours 20 minutes 47.6 seconds.
 Elapsed time:       0 days  5 hours  8 minutes  3.4 seconds.
 File lengths (MBytes):  RWF=   1087 Int=      0 D2E=      0 Chk=    138 Scr=      1
 Normal termination of Gaussian 16 at Tue Nov  3 15:35:50 2020.
