 Entering Gaussian System, Link 0=/apps/gaussian/g16c01/g16/g16
 Initial command:
 /apps/gaussian/g16c01/g16/l1.exe "/jobfs/13164454.gadi-pbs/Gau-693914.inp" -scrdir="/jobfs/13164454.gadi-pbs/"
 Entering Link 1 = /apps/gaussian/g16c01/g16/l1.exe PID=    693915.
  
 Copyright (c) 1988-2019, Gaussian, Inc.  All Rights Reserved.
  
 This is part of the Gaussian(R) 16 program.  It is based on
 the Gaussian(R) 09 system (copyright 2009, Gaussian, Inc.),
 the Gaussian(R) 03 system (copyright 2003, Gaussian, Inc.),
 the Gaussian(R) 98 system (copyright 1998, Gaussian, Inc.),
 the Gaussian(R) 94 system (copyright 1995, Gaussian, Inc.),
 the Gaussian 92(TM) system (copyright 1992, Gaussian, Inc.),
 the Gaussian 90(TM) system (copyright 1990, Gaussian, Inc.),
 the Gaussian 88(TM) system (copyright 1988, Gaussian, Inc.),
 the Gaussian 86(TM) system (copyright 1986, Carnegie Mellon
 University), and the Gaussian 82(TM) system (copyright 1983,
 Carnegie Mellon University). Gaussian is a federally registered
 trademark of Gaussian, Inc.
  
 This software contains proprietary and confidential information,
 including trade secrets, belonging to Gaussian, Inc.
  
 This software is provided under written license and may be
 used, copied, transmitted, or stored only in accord with that
 written license.
  
 The following legend is applicable only to US Government
 contracts under FAR:
  
                    RESTRICTED RIGHTS LEGEND
  
 Use, reproduction and disclosure by the US Government is
 subject to restrictions as set forth in subparagraphs (a)
 and (c) of the Commercial Computer Software - Restricted
 Rights clause in FAR 52.227-19.
  
 Gaussian, Inc.
 340 Quinnipiac St., Bldg. 40, Wallingford CT 06492
  
  
 ---------------------------------------------------------------
 Warning -- This program may not be used in any manner that
 competes with the business of Gaussian, Inc. or will provide
 assistance to any competitor of Gaussian, Inc.  The licensee
 of this program is prohibited from giving any competitor of
 Gaussian, Inc. access to this program.  By using this program,
 the user acknowledges that Gaussian, Inc. is engaged in the
 business of creating and licensing software in the field of
 computational chemistry and represents and warrants to the
 licensee that it is not a competitor of Gaussian, Inc. and that
 it will not use this program in any manner prohibited above.
 ---------------------------------------------------------------
  

 Cite this work as:
 Gaussian 16, Revision C.01,
 M. J. Frisch, G. W. Trucks, H. B. Schlegel, G. E. Scuseria, 
 M. A. Robb, J. R. Cheeseman, G. Scalmani, V. Barone, 
 G. A. Petersson, H. Nakatsuji, X. Li, M. Caricato, A. V. Marenich, 
 J. Bloino, B. G. Janesko, R. Gomperts, B. Mennucci, H. P. Hratchian, 
 J. V. Ortiz, A. F. Izmaylov, J. L. Sonnenberg, D. Williams-Young, 
 F. Ding, F. Lipparini, F. Egidi, J. Goings, B. Peng, A. Petrone, 
 T. Henderson, D. Ranasinghe, V. G. Zakrzewski, J. Gao, N. Rega, 
 G. Zheng, W. Liang, M. Hada, M. Ehara, K. Toyota, R. Fukuda, 
 J. Hasegawa, M. Ishida, T. Nakajima, Y. Honda, O. Kitao, H. Nakai, 
 T. Vreven, K. Throssell, J. A. Montgomery, Jr., J. E. Peralta, 
 F. Ogliaro, M. J. Bearpark, J. J. Heyd, E. N. Brothers, K. N. Kudin, 
 V. N. Staroverov, T. A. Keith, R. Kobayashi, J. Normand, 
 K. Raghavachari, A. P. Rendell, J. C. Burant, S. S. Iyengar, 
 J. Tomasi, M. Cossi, J. M. Millam, M. Klene, C. Adamo, R. Cammi, 
 J. W. Ochterski, R. L. Martin, K. Morokuma, O. Farkas, 
 J. B. Foresman, and D. J. Fox, Gaussian, Inc., Wallingford CT, 2019.
 
 ******************************************
 Gaussian 16:  ES64L-G16RevC.01  3-Jul-2019
                 3-Nov-2020 
 ******************************************
 %NprocShared=32
 Will use up to   32 processors via shared memory.
 %Mem=1194000MB
 %chk=29_carboxy.DSDPBEP86_AUG-cc-PVTZ.chk
 ----------------------------------------------------------------------
 # DSDPBEP86/AUG-cc-PVTZ SCF=Tight INT(grid=ultrafine) IOP(8/23=30) Pop
 =NBO MaxDisk=1400000MB
 ----------------------------------------------------------------------
 1/38=1,172=1/1;
 2/12=2,17=6,18=5,40=1/2;
 3/5=16,6=1,7=10,11=9,25=1,30=1,74=-77,75=-5/1,2,3;
 4//1;
 5/5=2,32=2,38=5/2;
 8/10=1,23=30/1;
 9/16=-3/6;
 6/7=2,8=2,9=2,10=2,40=1/1,7;
 99/5=1,9=1/99;
 --------------------------------
 29_carboxy.DSDPBEP86_AUG-cc-PVTZ
 --------------------------------
 Symbolic Z-matrix:
 Charge = -1 Multiplicity = 1
 C                    -6.1461    1.27867   0.54077 
 N                    -4.86395   0.77375   0.55204 
 C                    -3.69884   1.42985   0.18023 
 O                    -3.66291   2.59003  -0.21711 
 N                    -2.5999    0.64935   0.31363 
 C                    -1.30518   1.13031  -0.11033 
 C                    -0.21308   0.21136   0.42304 
 C                     1.1704    0.64559  -0.05016 
 C                    -6.49191   2.58527   0.16001 
 C                    -7.8221    2.99572   0.18799 
 C                    -8.82574   2.11918   0.59371 
 C                    -8.49116   0.825     0.97082 
 C                    -7.17351   0.40662   0.94599 
 H                    -4.78581  -0.21322   0.86309 
 H                    -2.69144  -0.34972   0.54943 
 H                    -1.16505   2.1518    0.25589 
 H                    -1.24791   1.18336  -1.20703 
 H                    -0.42211  -0.81573   0.1095 
 H                    -0.25959   0.20747   1.51621 
 H                     1.23847   0.62233  -1.14157 
 H                     1.95197  -0.00784   0.34433 
 H                     1.39606   1.66678   0.27117 
 H                    -5.71569   3.26579  -0.15462 
 C                    -8.15434   4.40213  -0.22718 
 Cl                   -10.51038   2.59477   0.64613 
 H                    -9.27411   0.14504   1.28496 
 H                    -6.90751  -0.60477   1.23841 
 F                    -8.99821   4.44089  -1.27554 
 F                    -8.74264   5.10256   0.76087 
 F                    -7.06952   5.09878  -0.58962 
 O                    -4.90985  -1.87335   1.37834 
 O                    -2.72972  -2.11183   0.93555 
 C                    -3.84606  -2.54041   1.30126 
 C                    -3.95547  -4.02062   1.69919 
 C                    -2.64586  -4.79156   1.61094 
 H                    -4.72194  -4.4684    1.05867 
 H                    -4.36593  -4.0507    2.71334 
 H                    -2.24855  -4.76238   0.59506 
 H                    -2.7778   -5.838     1.90319 
 H                    -1.88964  -4.34345   2.25767 
 
                          Input orientation:                          
 ---------------------------------------------------------------------
 Center     Atomic      Atomic             Coordinates (Angstroms)
 Number     Number       Type             X           Y           Z
 ---------------------------------------------------------------------
      1          6           0       -6.146102    1.278666    0.540772
      2          7           0       -4.863949    0.773752    0.552039
      3          6           0       -3.698836    1.429850    0.180229
      4          8           0       -3.662905    2.590027   -0.217111
      5          7           0       -2.599903    0.649355    0.313631
      6          6           0       -1.305181    1.130310   -0.110329
      7          6           0       -0.213081    0.211358    0.423043
      8          6           0        1.170404    0.645591   -0.050158
      9          6           0       -6.491905    2.585268    0.160010
     10          6           0       -7.822099    2.995722    0.187993
     11          6           0       -8.825743    2.119181    0.593708
     12          6           0       -8.491161    0.825001    0.970819
     13          6           0       -7.173513    0.406619    0.945994
     14          1           0       -4.785815   -0.213220    0.863089
     15          1           0       -2.691439   -0.349723    0.549426
     16          1           0       -1.165046    2.151799    0.255887
     17          1           0       -1.247913    1.183362   -1.207029
     18          1           0       -0.422113   -0.815734    0.109503
     19          1           0       -0.259595    0.207470    1.516208
     20          1           0        1.238466    0.622326   -1.141566
     21          1           0        1.951971   -0.007837    0.344327
     22          1           0        1.396062    1.666784    0.271173
     23          1           0       -5.715694    3.265789   -0.154620
     24          6           0       -8.154341    4.402129   -0.227184
     25         17           0      -10.510380    2.594772    0.646128
     26          1           0       -9.274106    0.145038    1.284962
     27          1           0       -6.907515   -0.604772    1.238412
     28          9           0       -8.998211    4.440891   -1.275538
     29          9           0       -8.742639    5.102557    0.760870
     30          9           0       -7.069522    5.098783   -0.589618
     31          8           0       -4.909850   -1.873347    1.378341
     32          8           0       -2.729719   -2.111833    0.935546
     33          6           0       -3.846059   -2.540409    1.301265
     34          6           0       -3.955466   -4.020623    1.699191
     35          6           0       -2.645864   -4.791561    1.610937
     36          1           0       -4.721942   -4.468397    1.058669
     37          1           0       -4.365934   -4.050700    2.713340
     38          1           0       -2.248551   -4.762381    0.595056
     39          1           0       -2.777803   -5.837998    1.903194
     40          1           0       -1.889637   -4.343454    2.257668
 ---------------------------------------------------------------------
                    Distance matrix (angstroms):
                    1          2          3          4          5
     1  C    0.000000
     2  N    1.378035   0.000000
     3  C    2.478298   1.387875   0.000000
     4  O    2.908663   2.309319   1.226858   0.000000
     5  N    3.608760   2.279960   1.354482   2.275493   0.000000
     6  C    4.886763   3.637402   2.429759   2.775075   1.444771
     7  C    6.029406   4.686523   3.700563   4.239003   2.429142
     8  C    7.367581   6.065681   4.937372   5.212446   3.787819
     9  C    1.404197   2.466884   3.022687   2.854029   4.349602
    10  C    2.425222   3.717571   4.410592   4.198523   5.726479
    11  C    2.808869   4.184224   5.189540   5.247286   6.403118
    12  C    2.426944   3.651667   4.894615   5.276225   5.930402
    13  C    1.407211   2.371513   3.702267   4.294700   4.623496
    14  H    2.044503   1.037772   2.085066   3.207172   2.413328
    15  H    3.819217   2.445813   2.077987   3.189585   1.030599
    16  H    5.065021   3.958359   2.635721   2.579743   2.078338
    17  H    5.201552   4.042006   2.827059   2.964933   2.103674
    18  H    6.110364   4.738376   3.972978   4.712602   2.632664
    19  H    6.062169   4.738183   3.886827   4.501499   2.668051
    20  H    7.602162   6.334879   5.174570   5.361893   4.105046
    21  H    8.201979   6.863730   5.833137   6.212161   4.599174
    22  H    7.556954   6.329623   5.101215   5.165651   4.123676
    23  H    2.148832   2.726735   2.747820   2.162059   4.095502
    24  C    3.791939   4.959736   5.371402   4.843223   6.725145
    25  Cl   4.559623   5.933562   6.926128   6.901675   8.152966
    26  H    3.409302   4.514637   5.827076   6.302362   6.763343
    27  H    2.147973   2.558827   3.943990   4.780458   4.580783
    28  F    4.629598   5.820659   6.266499   5.745559   7.605232
    29  F    4.627374   5.816047   6.266249   5.750908   7.600279
    30  F    4.089472   4.987367   5.041355   4.247076   6.371088
    31  O    3.487839   2.773448   3.716603   4.901229   3.582386
    32  O    4.829390   3.609518   3.748761   4.930207   2.833335
    33  C    4.522597   3.546985   4.128117   5.353540   3.564116
    34  C    5.850067   5.012717   5.663988   6.889013   5.056286
    35  C    7.088340   6.083903   6.470056   7.672286   5.593628
    36  H    5.943498   5.268488   6.050431   7.250553   5.590126
    37  H    6.024217   5.309857   6.074380   7.292534   5.564889
    38  H    7.189444   6.122984   6.373314   7.531130   5.430427
    39  H    7.990528   7.063488   7.525857   8.735600   6.681625
    40  H    7.257648   6.159667   6.396873   7.572461   5.404803
                    6          7          8          9         10
     6  C    0.000000
     7  C    1.523693   0.000000
     8  C    2.523311   1.525290   0.000000
     9  C    5.393709   6.717757   7.906801   0.000000
    10  C    6.785203   8.105868   9.297578   1.392362   0.000000
    11  C    7.617899   8.823087  10.124673   2.419118   1.392921
    12  C    7.273266   8.318847   9.717017   2.784416   2.402601
    13  C    6.006402   6.982780   8.406568   2.414305   2.774650
    14  H    3.855830   4.613437   6.086717   3.352104   4.469014
    15  H    2.132483   2.544218   4.032863   4.817609   6.135659
    16  H    1.094163   2.167831   2.795829   5.345326   6.710676
    17  H    1.099475   2.161667   2.734192   5.597641   6.960651
    18  H    2.148306   1.094039   2.167273   6.957854   8.324251
    19  H    2.142546   1.094161   2.165722   6.806973   8.168842
    20  H    2.791350   2.173449   1.093775   8.081205   9.460157
    21  H    3.480105   2.177543   1.092443   8.834999  10.226351
    22  H    2.780299   2.175010   1.094080   7.942040   9.313833
    23  H    4.900496   6.319967   7.368494   1.079169   2.151108
    24  C    7.591406   9.002719  10.054541   2.492909   1.503574
    25  Cl   9.351608  10.571887  11.862751   4.047783   2.756357
    26  H    8.149930   9.102169  10.541390   3.867930   3.382021
    27  H    6.017952   6.793110   8.275059   3.392939   3.860493
    28  F    8.455789   9.897102  10.922756   3.433032   2.369320
    29  F    8.476645   9.838257  10.899117   3.429808   2.369459
    30  F    7.014708   8.480754   9.381808   2.685767   2.365146
    31  O    4.922573   5.226685   6.734623   4.885332   5.797064
    32  O    3.692513   3.463141   4.877085   6.067805   7.251090
    33  C    4.682183   4.641339   6.094411   5.880096   6.906303
    34  C    6.068812   5.791690   7.149009   7.241574   8.152526
    35  C    6.311001   5.688473   6.847318   8.444810   9.458327
    36  H    6.662306   6.529468   7.880489   7.327655   8.129091
    37  H    6.647118   6.376268   7.768083   7.421274   8.244667
    38  H    6.009270   5.376878   6.430530   8.496074   9.561293
    39  H    7.401365   6.735233   7.838422   9.369346  10.316077
    40  H    5.992586   5.188739   6.291302   8.578358   9.661323
                   11         12         13         14         15
    11  C    0.000000
    12  C    1.388906   0.000000
    13  C    2.405585   1.382699   0.000000
    14  H    4.672653   3.849558   2.468233   0.000000
    15  H    6.612649   5.932480   4.562708   2.122128   0.000000
    16  H    7.668211   7.479537   6.294726   4.367148   2.945107
    17  H    7.844865   7.572059   6.352288   4.330425   2.742125
    18  H    8.914548   8.279095   6.911965   4.469094   2.358079
    19  H    8.825222   8.272694   6.940250   4.592408   2.675630
    20  H   10.321824   9.958357   8.669822   6.403806   4.387309
    21  H   10.988426  10.495004   9.154683   6.760847   4.660494
    22  H   10.236894   9.947627   8.687981   6.488481   4.566332
    23  H    3.398104   3.863583   3.392851   3.742180   4.765891
    24  C    2.517239   3.787414   4.278138   5.816967   7.281930
    25  Cl   1.751267   2.704582   4.001577   6.379854   8.355552
    26  H    2.139182   1.083531   2.143786   4.522288   6.642086
    27  H    3.393400   2.150300   1.085899   2.189929   4.279608
    28  F    2.985660   4.286943   4.953794   6.631649   8.127475
    29  F    2.989211   4.290082   4.954620   6.627548   8.147950
    30  F    3.655489   4.766680   4.938149   5.961800   7.081754
    31  O    5.647136   4.502548   3.241811   1.742667   2.816004
    32  O    7.428314   6.466874   5.107839   2.799556   1.804325
    33  C    6.856360   5.745620   4.459052   2.547734   2.587956
    34  C    7.914473   6.677060   5.524817   3.985582   4.049103
    35  C    9.326522   8.131606   6.925520   5.108803   4.567144
    36  H    7.775188   6.498829   5.457900   4.260147   4.620146
    37  H    7.902542   6.620146   5.556412   4.280886   4.602574
    38  H    9.519210   8.386311   7.148215   5.215785   4.435064
    39  H   10.080130   8.826513   7.696346   6.062347   5.653434
    40  H    9.625174   8.482277   7.225166   5.233692   4.417111
                   16         17         18         19         20
    16  H    0.000000
    17  H    1.756377   0.000000
    18  H    3.062619   2.532111   0.000000
    19  H    2.487703   3.056985   1.747048   0.000000
    20  H    3.173174   2.549731   2.527986   3.078969   0.000000
    21  H    3.793105   3.750323   2.518753   2.512107   1.764674
    22  H    2.606674   3.067471   3.081362   2.533951   1.763961
    23  H    4.702965   5.040350   6.689588   6.474102   7.504818
    24  C    7.358504   7.682402   9.334173   9.108325  10.166013
    25  Cl   9.363962   9.550893  10.662675  10.561006  12.046650
    26  H    8.416825   8.468052   8.981234   9.017693  10.799537
    27  H    6.445152   6.419400   6.586302   6.703115   8.574792
    28  F    8.303233   8.407336  10.153812  10.103421  10.926524
    29  F    8.147508   8.683526  10.231402   9.823159  11.104691
    30  F    6.653001   7.042928   8.925151   8.644915   9.453357
    31  O    5.611173   5.425624   4.782079   5.096438   7.097894
    32  O    4.592243   4.200558   2.772591   3.437709   5.247524
    33  C    5.504313   5.187328   4.014748   4.523247   6.467048
    34  C    6.925920   6.546635   5.028221   5.618694   7.523550
    35  C    7.227671   6.752400   4.796516   5.540177   7.209332
    36  H    7.557973   7.010324   5.721135   6.479631   8.141434
    37  H    7.399713   7.244774   5.727014   6.035491   8.252682
    38  H    7.006776   6.292905   4.375804   5.431748   6.646068
    39  H    8.315736   7.830297   5.830072   6.560398   8.193703
    40  H    6.835238   6.554513   4.383269   4.890574   6.782241
                   21         22         23         24         25
    21  H    0.000000
    22  H    1.765995   0.000000
    23  H    8.352165   7.301725   0.000000
    24  C   11.041375   9.946892   2.691381   0.000000
    25  Cl  12.734789  11.948436   4.907186   3.095179   0.000000
    26  H   11.266454  10.825709   4.947098   4.654383   2.817388
    27  H    8.924472   8.662846   4.282782   5.363917   4.854742
    28  F   11.929863  10.868712   3.662273   1.346353   3.063921
    29  F   11.860198  10.716231   3.657080   1.346456   3.070352
    30  F   10.408513   9.175276   2.319901   1.339223   4.431326
    31  O    7.185673   7.315933   5.423105   7.244723   7.201816
    32  O    5.166678   5.633951   6.246866   8.556294   9.098054
    33  C    6.398969   6.800103   6.271130   8.312417   8.438748
    34  C    7.268832   7.938809   7.721840   9.606468   9.372262
    35  C    6.754880   7.735784   8.801246  10.874094  10.832330
    36  H    8.059032   8.700032   7.891593   9.597968   9.141365
    37  H    7.865932   8.476697   7.973585   9.718489   9.283851
    38  H    6.349247   7.397450   8.776936  10.933557  11.062917
    39  H    7.667569   8.741075   9.784924  11.760351  11.510194
    40  H    6.100525   7.131966   8.852029  11.041115  11.182721
                   26         27         28         29         30
    26  H    0.000000
    27  H    2.482970   0.000000
    28  F    5.008656   6.012460   0.000000
    29  F    5.013394   6.014095   2.156403   0.000000
    30  F    5.737058   5.991534   2.150151   2.150152   0.000000
    31  O    4.809296   2.370554   7.976676   7.983406   7.559606
    32  O    6.931419   4.451622   9.333868   9.393250   8.552953
    33  C    6.056038   3.622589   9.051140   9.093045   8.504317
    34  C    6.768475   4.538166  10.289583  10.345525   9.904522
    35  C    8.271026   5.985786  11.572477  11.652761  11.055772
    36  H    6.485151   4.442592  10.154330  10.385463   9.987938
    37  H    6.613217   4.528738  10.463091  10.331980  10.096136
    38  H    8.597509   6.277385  11.565348  11.811760  11.040280
    39  H    8.853298   6.699486  12.427927  12.513190  12.010252
    40  H    8.696155   6.340009  11.839767  11.765677  11.139752
                   31         32         33         34         35
    31  O    0.000000
    32  O    2.237391   0.000000
    33  C    1.258001   1.250457   0.000000
    34  C    2.371622   2.393552   1.536668   0.000000
    35  C    3.700771   2.764801   2.569834   1.522232   0.000000
    36  H    2.621409   3.088285   2.131469   1.094648   2.172449
    37  H    2.611309   3.097896   2.131949   1.094480   2.173202
    38  H    4.005318   2.715301   2.826291   2.163996   1.091203
    39  H    4.532059   3.850060   3.518179   2.175169   1.094465
    40  H    3.999542   2.726514   2.827236   2.164201   1.091302
                   36         37         38         39         40
    36  H    0.000000
    37  H    1.743316   0.000000
    38  H    2.533580   3.078462   0.000000
    39  H    2.523630   2.524467   1.774340   0.000000
    40  H    3.078175   2.534834   1.751742   1.774303   0.000000
 Stoichiometry    C14H17ClF3N2O3(1-)
 Framework group  C1[X(C14H17ClF3N2O3)]
 Deg. of freedom   114
 Full point group                 C1      NOp   1
 Largest Abelian subgroup         C1      NOp   1
 Largest concise Abelian subgroup C1      NOp   1
                         Standard orientation:                         
 ---------------------------------------------------------------------
 Center     Atomic      Atomic             Coordinates (Angstroms)
 Number     Number       Type             X           Y           Z
 ---------------------------------------------------------------------
      1          6           0       -0.683829    0.286961   -0.047809
      2          7           0        0.647312   -0.069390   -0.055513
      3          6           0        1.174594   -1.351759    0.005296
      4          8           0        0.493557   -2.370056    0.071954
      5          7           0        2.528684   -1.356959   -0.026851
      6          6           0        3.259117   -2.595109    0.117427
      7          6           0        4.719517   -2.379964   -0.260177
      8          6           0        5.545154   -3.647591   -0.065361
      9          6           0       -1.757367   -0.616750    0.003090
     10          6           0       -3.068932   -0.149344    0.003400
     11          6           0       -3.334211    1.217134   -0.047547
     12          6           0       -2.277283    2.116860   -0.097117
     13          6           0       -0.970955    1.663689   -0.097041
     14          1           0        1.312312    0.726209   -0.097568
     15          1           0        3.058087   -0.474184    0.023892
     16          1           0        2.802056   -3.357084   -0.521072
     17          1           0        3.189992   -2.971812    1.148039
     18          1           0        5.128315   -1.559082    0.336445
     19          1           0        4.768254   -2.048109   -1.301659
     20          1           0        5.529842   -3.970719    0.979483
     21          1           0        6.588804   -3.493327   -0.348964
     22          1           0        5.153825   -4.471479   -0.669580
     23          1           0       -1.553797   -1.675807    0.042612
     24          6           0       -4.192626   -1.146809    0.059180
     25         17           0       -4.968044    1.847617   -0.051592
     26          1           0       -2.486651    3.179272   -0.135628
     27          1           0       -0.141499    2.363552   -0.134049
     28          9           0       -4.976785   -0.975066    1.140042
     29          9           0       -5.001633   -1.067733   -1.014225
     30          9           0       -3.753166   -2.410917    0.108423
     31          8           0        2.224130    2.210837   -0.134401
     32          8           0        4.088910    1.002940    0.129227
     33          6           0        3.467258    2.081174    0.008377
     34          6           0        4.276493    3.387242    0.034321
     35          6           0        5.777942    3.190991    0.190293
     36          1           0        3.871074    3.998835    0.846629
     37          1           0        4.040827    3.929019   -0.886997
     38          1           0        6.003387    2.657074    1.114864
     39          1           0        6.306821    4.149093    0.203769
     40          1           0        6.175373    2.586819   -0.626999
 ---------------------------------------------------------------------
 Rotational constants (GHZ):           0.3460034           0.1007909           0.0794093
 Standard basis: Aug-CC-pVTZ (5D, 7F)
 There are  1694 symmetry adapted cartesian basis functions of A   symmetry.
 There are  1453 symmetry adapted basis functions of A   symmetry.
  1453 basis functions,  2157 primitive gaussians,  1694 cartesian basis functions
    92 alpha electrons       92 beta electrons
       nuclear repulsion energy      2100.1184508286 Hartrees.
 NAtoms=   40 NActive=   40 NUniq=   40 SFac= 1.00D+00 NAtFMM=   60 NAOKFM=F Big=F
 Integral buffers will be    131072 words long.
 Regular integral format.
 Two-electron integral symmetry is turned on.
 Nuclear repulsion after empirical dispersion term =     2100.0888635052 Hartrees.
 One-electron integrals computed using PRISM.
 NBasis=  1453 RedAO= T EigKep=  1.09D-06  NBF=  1453
 NBsUse=  1449 1.00D-06 EigRej=  6.77D-07 NBFU=  1449
 ExpMin= 2.53D-02 ExpMax= 4.56D+05 ExpMxC= 1.44D+03 IAcc=3 IRadAn=         5 AccDes= 0.00D+00
 Harris functional with IExCor= 1004 and IRadAn=       5 diagonalized for initial guess.
 HarFok:  IExCor= 1004 AccDes= 0.00D+00 IRadAn=         5 IDoV= 1 UseB2=F ITyADJ=14
 ICtDFT=  3500011 ScaDFX=  1.000000  1.000000  1.000000  1.000000
 FoFCou: FMM=F IPFlag=           0 FMFlag=      100000 FMFlg1=           0
         NFxFlg=           0 DoJE=T BraDBF=F KetDBF=T FulRan=T
         wScrn=  0.000000 ICntrl=       500 IOpCl=  0 I1Cent=   200000004 NGrid=           0
         NMat0=    1 NMatS0=      1 NMatT0=    0 NMatD0=    1 NMtDS0=    0 NMtDT0=    0
 Petite list used in FoFCou.
 Requested convergence on RMS density matrix=1.00D-08 within 128 cycles.
 Requested convergence on MAX density matrix=1.00D-06.
 Requested convergence on             energy=1.00D-06.
 No special actions if energy rises.
 SCF Done:  E(RDSDPBEP86) =  -1634.82306212     A.U. after   14 cycles
            NFock= 14  Conv=0.34D-08     -V/T= 2.0027
 DoSCS=T DFT=T ScalE2(SS,OS)=  0.220000  0.520000
 ExpMin= 2.53D-02 ExpMax= 4.56D+05 ExpMxC= 1.44D+03 IAcc=3 IRadAn=         5 AccDes= 0.00D+00
 HarFok:  IExCor=  205 AccDes= 0.00D+00 IRadAn=         5 IDoV=-2 UseB2=F ITyADJ=14
 ICtDFT= 12500011 ScaDFX=  1.000000  1.000000  1.000000  1.000000
 GSVD:  LWork=        -945 too small for GESVD, short by        4050 words or        4050 for optimal perf.
 Range of M.O.s used for correlation:    28  1449
 NBasis=  1453 NAE=    92 NBE=    92 NFC=    27 NFV=     0
 NROrb=   1422 NOA=    65 NOB=    65 NVA=  1357 NVB=  1357

 **** Warning!!: The largest alpha MO coefficient is  0.12850969D+03

 DoSCS=T DFT=T ScalE2(SS,OS)=  0.220000  0.520000
 Fully direct method using O(OVN) memory.
 JobTyp=1 Pass  1:  I=   1 to  52 NPSUse= 32 ParTrn=T ParDer=T DoDerP=F.
 JobTyp=1 Pass  2:  I=  53 to  65 NPSUse= 32 ParTrn=T ParDer=T DoDerP=F.
 Spin components of T(2) and E(2):
     alpha-alpha T2 =       0.2277310379D+00 E2=     -0.1425297849D+00
     alpha-beta  T2 =       0.1187709233D+01 E2=     -0.1924877466D+01
     beta-beta   T2 =       0.2277310379D+00 E2=     -0.1425297849D+00
 E2(DSDPBEP86) =    -0.2209937036D+01 E(DSDPBEP86) =    -0.16370329991550D+04

 **********************************************************************

            Population analysis using the SCF Density.

 **********************************************************************

 Orbital symmetries:
       Occupied  (A) (A) (A) (A) (A) (A) (A) (A) (A) (A) (A) (A)
                 (A) (A) (A) (A) (A) (A) (A) (A) (A) (A) (A) (A)
                 (A) (A) (A) (A) (A) (A) (A) (A) (A) (A) (A) (A)
                 (A) (A) (A) (A) (A) (A) (A) (A) (A) (A) (A) (A)
                 (A) (A) (A) (A) (A) (A) (A) (A) (A) (A) (A) (A)
                 (A) (A) (A) (A) (A) (A) (A) (A) (A) (A) (A) (A)
                 (A) (A) (A) (A) (A) (A) (A) (A) (A) (A) (A) (A)
                 (A) (A) (A) (A) (A) (A) (A) (A)
       Virtual   (A) (A) (A) (A) (A) (A) (A) (A) (A) (A) (A) (A)
                 (A) (A) (A) (A) (A) (A) (A) (A) (A) (A) (A) (A)
                 (A) (A) (A) (A) (A) (A) (A) (A) (A) (A) (A) (A)
                 (A) (A) (A) (A) (A) (A) (A) (A) (A) (A) (A) (A)
                 (A) (A) (A) (A) (A) (A) (A) (A) (A) (A) (A) (A)
                 (A) (A) (A) (A) (A) (A) (A) (A) (A) (A) (A) (A)
                 (A) (A) (A) (A) (A) (A) (A) (A) (A) (A) (A) (A)
                 (A) (A) (A) (A) (A) (A) (A) (A) (A) (A) (A) (A)
                 (A) (A) (A) (A) (A) (A) (A) (A) (A) (A) (A) (A)
                 (A) (A) (A) (A) (A) (A) (A) (A) (A) (A) (A) (A)
                 (A) (A) (A) (A) (A) (A) (A) (A) (A) (A) (A) (A)
                 (A) (A) (A) (A) (A) (A) (A) (A) (A) (A) (A) (A)
                 (A) (A) (A) (A) (A) (A) (A) (A) (A) (A) (A) (A)
                 (A) (A) (A) (A) (A) (A) (A) (A) (A) (A) (A) (A)
                 (A) (A) (A) (A) (A) (A) (A) (A) (A) (A) (A) (A)
                 (A) (A) (A) (A) (A) (A) (A) (A) (A) (A) (A) (A)
                 (A) (A) (A) (A) (A) (A) (A) (A) (A) (A) (A) (A)
                 (A) (A) (A) (A) (A) (A) (A) (A) (A) (A) (A) (A)
                 (A) (A) (A) (A) (A) (A) (A) (A) (A) (A) (A) (A)
                 (A) (A) (A) (A) (A) (A) (A) (A) (A) (A) (A) (A)
                 (A) (A) (A) (A) (A) (A) (A) (A) (A) (A) (A) (A)
                 (A) (A) (A) (A) (A) (A) (A) (A) (A) (A) (A) (A)
                 (A) (A) (A) (A) (A) (A) (A) (A) (A) (A) (A) (A)
                 (A) (A) (A) (A) (A) (A) (A) (A) (A) (A) (A) (A)
                 (A) (A) (A) (A) (A) (A) (A) (A) (A) (A) (A) (A)
                 (A) (A) (A) (A) (A) (A) (A) (A) (A) (A) (A) (A)
                 (A) (A) (A) (A) (A) (A) (A) (A) (A) (A) (A) (A)
                 (A) (A) (A) (A) (A) (A) (A) (A) (A) (A) (A) (A)
                 (A) (A) (A) (A) (A) (A) (A) (A) (A) (A) (A) (A)
                 (A) (A) (A) (A) (A) (A) (A) (A) (A) (A) (A) (A)
                 (A) (A) (A) (A) (A) (A) (A) (A) (A) (A) (A) (A)
                 (A) (A) (A) (A) (A) (A) (A) (A) (A) (A) (A) (A)
                 (A) (A) (A) (A) (A) (A) (A) (A) (A) (A) (A) (A)
                 (A) (A) (A) (A) (A) (A) (A) (A) (A) (A) (A) (A)
                 (A) (A) (A) (A) (A) (A) (A) (A) (A) (A) (A) (A)
                 (A) (A) (A) (A) (A) (A) (A) (A) (A) (A) (A) (A)
                 (A) (A) (A) (A) (A) (A) (A) (A) (A) (A) (A) (A)
                 (A) (A) (A) (A) (A) (A) (A) (A) (A) (A) (A) (A)
                 (A) (A) (A) (A) (A) (A) (A) (A) (A) (A) (A) (A)
                 (A) (A) (A) (A) (A) (A) (A) (A) (A) (A) (A) (A)
                 (A) (A) (A) (A) (A) (A) (A) (A) (A) (A) (A) (A)
                 (A) (A) (A) (A) (A) (A) (A) (A) (A) (A) (A) (A)
                 (A) (A) (A) (A) (A) (A) (A) (A) (A) (A) (A) (A)
                 (A) (A) (A) (A) (A) (A) (A) (A) (A) (A) (A) (A)
                 (A) (A) (A) (A) (A) (A) (A) (A) (A) (A) (A) (A)
                 (A) (A) (A) (A) (A) (A) (A) (A) (A) (A) (A) (A)
                 (A) (A) (A) (A) (A) (A) (A) (A) (A) (A) (A) (A)
                 (A) (A) (A) (A) (A) (A) (A) (A) (A) (A) (A) (A)
                 (A) (A) (A) (A) (A) (A) (A) (A) (A) (A) (A) (A)
                 (A) (A) (A) (A) (A) (A) (A) (A) (A) (A) (A) (A)
                 (A) (A) (A) (A) (A) (A) (A) (A) (A) (A) (A) (A)
                 (A) (A) (A) (A) (A) (A) (A) (A) (A) (A) (A) (A)
                 (A) (A) (A) (A) (A) (A) (A) (A) (A) (A) (A) (A)
                 (A) (A) (A) (A) (A) (A) (A) (A) (A) (A) (A) (A)
                 (A) (A) (A) (A) (A) (A) (A) (A) (A) (A) (A) (A)
                 (A) (A) (A) (A) (A) (A) (A) (A) (A) (A) (A) (A)
                 (A) (A) (A) (A) (A) (A) (A) (A) (A) (A) (A) (A)
                 (A) (A) (A) (A) (A) (A) (A) (A) (A) (A) (A) (A)
                 (A) (A) (A) (A) (A) (A) (A) (A) (A) (A) (A) (A)
                 (A) (A) (A) (A) (A) (A) (A) (A) (A) (A) (A) (A)
                 (A) (A) (A) (A) (A) (A) (A) (A) (A) (A) (A) (A)
                 (A) (A) (A) (A) (A) (A) (A) (A) (A) (A) (A) (A)
                 (A) (A) (A) (A) (A) (A) (A) (A) (A) (A) (A) (A)
                 (A) (A) (A) (A) (A) (A) (A) (A) (A) (A) (A) (A)
                 (A) (A) (A) (A) (A) (A) (A) (A) (A) (A) (A) (A)
                 (A) (A) (A) (A) (A) (A) (A) (A) (A) (A) (A) (A)
                 (A) (A) (A) (A) (A) (A) (A) (A) (A) (A) (A) (A)
                 (A) (A) (A) (A) (A) (A) (A) (A) (A) (A) (A) (A)
                 (A) (A) (A) (A) (A) (A) (A) (A) (A) (A) (A) (A)
                 (A) (A) (A) (A) (A) (A) (A) (A) (A) (A) (A) (A)
                 (A) (A) (A) (A) (A) (A) (A) (A) (A) (A) (A) (A)
                 (A) (A) (A) (A) (A) (A) (A) (A) (A) (A) (A) (A)
                 (A) (A) (A) (A) (A) (A) (A) (A) (A) (A) (A) (A)
                 (A) (A) (A) (A) (A) (A) (A) (A) (A) (A) (A) (A)
                 (A) (A) (A) (A) (A) (A) (A) (A) (A) (A) (A) (A)
                 (A) (A) (A) (A) (A) (A) (A) (A) (A) (A) (A) (A)
                 (A) (A) (A) (A) (A) (A) (A) (A) (A) (A) (A) (A)
                 (A) (A) (A) (A) (A) (A) (A) (A) (A) (A) (A) (A)
                 (A) (A) (A) (A) (A) (A) (A) (A) (A) (A) (A) (A)
                 (A) (A) (A) (A) (A) (A) (A) (A) (A) (A) (A) (A)
                 (A) (A) (A) (A) (A) (A) (A) (A) (A) (A) (A) (A)
                 (A) (A) (A) (A) (A) (A) (A) (A) (A) (A) (A) (A)
                 (A) (A) (A) (A) (A) (A) (A) (A) (A) (A) (A) (A)
                 (A) (A) (A) (A) (A) (A) (A) (A) (A) (A) (A) (A)
                 (A) (A) (A) (A) (A) (A) (A) (A) (A) (A) (A) (A)
                 (A) (A) (A) (A) (A) (A) (A) (A) (A) (A) (A) (A)
                 (A) (A) (A) (A) (A) (A) (A) (A) (A) (A) (A) (A)
                 (A) (A) (A) (A) (A) (A) (A) (A) (A) (A) (A) (A)
                 (A) (A) (A) (A) (A) (A) (A) (A) (A) (A) (A) (A)
                 (A) (A) (A) (A) (A) (A) (A) (A) (A) (A) (A) (A)
                 (A) (A) (A) (A) (A) (A) (A) (A) (A) (A) (A) (A)
                 (A) (A) (A) (A) (A) (A) (A) (A) (A) (A) (A) (A)
                 (A) (A) (A) (A) (A) (A) (A) (A) (A) (A) (A) (A)
                 (A) (A) (A) (A) (A) (A) (A) (A) (A) (A) (A) (A)
                 (A) (A) (A) (A) (A) (A) (A) (A) (A) (A) (A) (A)
                 (A) (A) (A) (A) (A) (A) (A) (A) (A) (A) (A) (A)
                 (A) (A) (A) (A) (A) (A) (A) (A) (A) (A) (A) (A)
                 (A) (A) (A) (A) (A) (A) (A) (A) (A) (A) (A) (A)
                 (A) (A) (A) (A) (A) (A) (A) (A) (A) (A) (A) (A)
                 (A) (A) (A) (A) (A) (A) (A) (A) (A) (A) (A) (A)
                 (A) (A) (A) (A) (A) (A) (A) (A) (A) (A) (A) (A)
                 (A) (A) (A) (A) (A) (A) (A) (A) (A) (A) (A) (A)
                 (A) (A) (A) (A) (A) (A) (A) (A) (A) (A) (A) (A)
                 (A) (A) (A) (A) (A) (A) (A) (A) (A) (A) (A) (A)
                 (A) (A) (A) (A) (A) (A) (A) (A) (A) (A) (A) (A)
                 (A) (A) (A) (A) (A) (A) (A) (A) (A) (A) (A) (A)
                 (A) (A) (A) (A) (A) (A) (A) (A) (A) (A) (A) (A)
                 (A) (A) (A) (A) (A) (A) (A) (A) (A) (A) (A) (A)
                 (A) (A) (A) (A) (A) (A) (A) (A) (A) (A) (A) (A)
                 (A) (A) (A) (A) (A) (A) (A) (A) (A) (A) (A) (A)
                 (A) (A) (A) (A) (A) (A) (A) (A) (A) (A) (A) (A)
                 (A) (A) (A) (A) (A) (A) (A) (A) (A) (A) (A) (A)
                 (A) (A) (A) (A) (A) (A) (A) (A) (A) (A) (A) (A)
                 (A)
 The electronic state is 1-A.
 Alpha  occ. eigenvalues -- -103.48264 -25.61777 -25.61466 -25.61463 -19.84280
 Alpha  occ. eigenvalues --  -19.82097 -19.81827 -14.97991 -14.96084 -10.99333
 Alpha  occ. eigenvalues --  -10.83255 -10.79423 -10.78876 -10.77654 -10.76099
 Alpha  occ. eigenvalues --  -10.74239 -10.73618 -10.72885 -10.72679 -10.71863
 Alpha  occ. eigenvalues --  -10.71112 -10.69742 -10.69652 -10.05759  -7.63435
 Alpha  occ. eigenvalues --   -7.62972  -7.62966  -1.48184  -1.38786  -1.38484
 Alpha  occ. eigenvalues --   -1.14587  -1.12593  -1.02811  -1.02261  -0.99467
 Alpha  occ. eigenvalues --   -0.97945  -0.91383  -0.86746  -0.85356  -0.82305
 Alpha  occ. eigenvalues --   -0.80306  -0.77100  -0.73572  -0.69067  -0.67358
 Alpha  occ. eigenvalues --   -0.67015  -0.64330  -0.64292  -0.63232  -0.61558
 Alpha  occ. eigenvalues --   -0.58783  -0.55556  -0.52821  -0.52666  -0.52580
 Alpha  occ. eigenvalues --   -0.51200  -0.49861  -0.48863  -0.48502  -0.48303
 Alpha  occ. eigenvalues --   -0.46980  -0.46474  -0.46457  -0.44987  -0.44804
 Alpha  occ. eigenvalues --   -0.44323  -0.43948  -0.43157  -0.41969  -0.41441
 Alpha  occ. eigenvalues --   -0.40806  -0.39761  -0.38571  -0.38280  -0.37055
 Alpha  occ. eigenvalues --   -0.36976  -0.36225  -0.35644  -0.34309  -0.34112
 Alpha  occ. eigenvalues --   -0.33141  -0.32340  -0.31705  -0.31531  -0.28086
 Alpha  occ. eigenvalues --   -0.25961  -0.23455  -0.22663  -0.22406  -0.22079
 Alpha  occ. eigenvalues --   -0.21856  -0.16414
 Alpha virt. eigenvalues --    0.08196   0.08823   0.09487   0.10045   0.10267
 Alpha virt. eigenvalues --    0.10933   0.11057   0.11315   0.11666   0.12597
 Alpha virt. eigenvalues --    0.12788   0.12972   0.13257   0.13337   0.13868
 Alpha virt. eigenvalues --    0.13987   0.14418   0.14495   0.14906   0.15559
 Alpha virt. eigenvalues --    0.15808   0.16130   0.16465   0.17057   0.17263
 Alpha virt. eigenvalues --    0.17453   0.17859   0.18158   0.18362   0.18636
 Alpha virt. eigenvalues --    0.18912   0.18947   0.19461   0.19522   0.19707
 Alpha virt. eigenvalues --    0.19982   0.20201   0.20613   0.20767   0.21054
 Alpha virt. eigenvalues --    0.21469   0.21788   0.22006   0.22367   0.22558
 Alpha virt. eigenvalues --    0.22742   0.23020   0.23124   0.23310   0.23464
 Alpha virt. eigenvalues --    0.23837   0.24081   0.24433   0.24488   0.24840
 Alpha virt. eigenvalues --    0.25081   0.25727   0.25928   0.26455   0.26592
 Alpha virt. eigenvalues --    0.26790   0.26899   0.27307   0.27558   0.27807
 Alpha virt. eigenvalues --    0.28126   0.28258   0.28674   0.29039   0.29571
 Alpha virt. eigenvalues --    0.29756   0.30054   0.30464   0.30887   0.30970
 Alpha virt. eigenvalues --    0.31371   0.31789   0.31978   0.32066   0.32417
 Alpha virt. eigenvalues --    0.32535   0.33181   0.33249   0.33718   0.33928
 Alpha virt. eigenvalues --    0.34191   0.34416   0.34578   0.34935   0.35235
 Alpha virt. eigenvalues --    0.35559   0.35677   0.35835   0.36107   0.36485
 Alpha virt. eigenvalues --    0.36676   0.36938   0.37225   0.37395   0.37516
 Alpha virt. eigenvalues --    0.37857   0.37961   0.38325   0.38486   0.38737
 Alpha virt. eigenvalues --    0.38995   0.39153   0.39224   0.39456   0.39810
 Alpha virt. eigenvalues --    0.39838   0.40165   0.40341   0.40410   0.40684
 Alpha virt. eigenvalues --    0.40936   0.41147   0.41489   0.41738   0.42117
 Alpha virt. eigenvalues --    0.42291   0.42449   0.42626   0.42795   0.43332
 Alpha virt. eigenvalues --    0.43396   0.43438   0.43871   0.44307   0.44443
 Alpha virt. eigenvalues --    0.44547   0.44972   0.45318   0.45440   0.45610
 Alpha virt. eigenvalues --    0.45757   0.45775   0.46037   0.46324   0.46605
 Alpha virt. eigenvalues --    0.46966   0.47273   0.47443   0.47716   0.47966
 Alpha virt. eigenvalues --    0.48141   0.48530   0.48854   0.48977   0.49200
 Alpha virt. eigenvalues --    0.49506   0.49610   0.49804   0.50344   0.50485
 Alpha virt. eigenvalues --    0.50609   0.50840   0.50971   0.51262   0.51357
 Alpha virt. eigenvalues --    0.51689   0.51981   0.52141   0.52448   0.52805
 Alpha virt. eigenvalues --    0.52875   0.52970   0.53279   0.53389   0.53527
 Alpha virt. eigenvalues --    0.53919   0.54210   0.54362   0.54491   0.54832
 Alpha virt. eigenvalues --    0.54912   0.55145   0.55557   0.55835   0.56086
 Alpha virt. eigenvalues --    0.56286   0.56365   0.56810   0.57108   0.57276
 Alpha virt. eigenvalues --    0.57769   0.57804   0.58058   0.58100   0.58265
 Alpha virt. eigenvalues --    0.58559   0.58680   0.58952   0.59184   0.59544
 Alpha virt. eigenvalues --    0.59615   0.59745   0.60588   0.60836   0.61059
 Alpha virt. eigenvalues --    0.61138   0.61377   0.61826   0.62110   0.62320
 Alpha virt. eigenvalues --    0.62694   0.62818   0.63199   0.63669   0.63700
 Alpha virt. eigenvalues --    0.64024   0.64335   0.64452   0.64731   0.65030
 Alpha virt. eigenvalues --    0.65509   0.66035   0.66293   0.66548   0.66707
 Alpha virt. eigenvalues --    0.66972   0.67411   0.67663   0.67852   0.68134
 Alpha virt. eigenvalues --    0.68452   0.68874   0.69117   0.69713   0.69912
 Alpha virt. eigenvalues --    0.70405   0.70934   0.71285   0.71446   0.71866
 Alpha virt. eigenvalues --    0.72164   0.72586   0.73128   0.73173   0.73456
 Alpha virt. eigenvalues --    0.73627   0.74121   0.74573   0.74879   0.75097
 Alpha virt. eigenvalues --    0.75464   0.75621   0.75691   0.76075   0.76367
 Alpha virt. eigenvalues --    0.76818   0.77232   0.77622   0.77705   0.77977
 Alpha virt. eigenvalues --    0.78676   0.79080   0.79357   0.79889   0.80126
 Alpha virt. eigenvalues --    0.80708   0.81003   0.81654   0.82042   0.82683
 Alpha virt. eigenvalues --    0.82838   0.83300   0.83593   0.83673   0.83958
 Alpha virt. eigenvalues --    0.84297   0.84549   0.84730   0.85729   0.86030
 Alpha virt. eigenvalues --    0.86091   0.86642   0.86845   0.87081   0.87502
 Alpha virt. eigenvalues --    0.87782   0.87931   0.88344   0.88761   0.89058
 Alpha virt. eigenvalues --    0.89692   0.89883   0.90232   0.90490   0.90841
 Alpha virt. eigenvalues --    0.91002   0.91379   0.91403   0.91836   0.92035
 Alpha virt. eigenvalues --    0.92631   0.92900   0.93199   0.93500   0.93786
 Alpha virt. eigenvalues --    0.94208   0.94418   0.94714   0.94900   0.95130
 Alpha virt. eigenvalues --    0.95270   0.95713   0.96024   0.96225   0.96516
 Alpha virt. eigenvalues --    0.96744   0.96898   0.97145   0.97236   0.97584
 Alpha virt. eigenvalues --    0.97686   0.97883   0.98606   0.98626   0.98807
 Alpha virt. eigenvalues --    0.99075   0.99580   0.99830   1.00152   1.00244
 Alpha virt. eigenvalues --    1.00630   1.01053   1.01497   1.01629   1.01807
 Alpha virt. eigenvalues --    1.02029   1.02293   1.02724   1.02770   1.03298
 Alpha virt. eigenvalues --    1.03518   1.03909   1.04173   1.04382   1.04636
 Alpha virt. eigenvalues --    1.04948   1.05315   1.05578   1.06074   1.06137
 Alpha virt. eigenvalues --    1.06739   1.06853   1.07155   1.07433   1.07695
 Alpha virt. eigenvalues --    1.07861   1.08176   1.08337   1.08798   1.09071
 Alpha virt. eigenvalues --    1.09552   1.09782   1.10063   1.10187   1.10968
 Alpha virt. eigenvalues --    1.11090   1.11629   1.11879   1.12256   1.12307
 Alpha virt. eigenvalues --    1.12996   1.13053   1.13235   1.13435   1.13723
 Alpha virt. eigenvalues --    1.13911   1.14268   1.14823   1.15027   1.15367
 Alpha virt. eigenvalues --    1.15649   1.15885   1.16136   1.16358   1.16630
 Alpha virt. eigenvalues --    1.16859   1.17209   1.17263   1.17538   1.17816
 Alpha virt. eigenvalues --    1.18143   1.18293   1.18579   1.19162   1.19280
 Alpha virt. eigenvalues --    1.19709   1.20087   1.20133   1.20319   1.20368
 Alpha virt. eigenvalues --    1.21038   1.21290   1.21417   1.21797   1.21997
 Alpha virt. eigenvalues --    1.22602   1.22667   1.22836   1.23258   1.23738
 Alpha virt. eigenvalues --    1.24055   1.24283   1.24460   1.25321   1.25503
 Alpha virt. eigenvalues --    1.25660   1.25844   1.26375   1.26987   1.27642
 Alpha virt. eigenvalues --    1.28139   1.28211   1.28409   1.28719   1.28747
 Alpha virt. eigenvalues --    1.29329   1.29490   1.29782   1.30216   1.30579
 Alpha virt. eigenvalues --    1.30771   1.30958   1.31036   1.31304   1.31687
 Alpha virt. eigenvalues --    1.32186   1.32475   1.32979   1.33249   1.33442
 Alpha virt. eigenvalues --    1.33977   1.34543   1.34843   1.35053   1.35800
 Alpha virt. eigenvalues --    1.35967   1.36400   1.36792   1.37113   1.37394
 Alpha virt. eigenvalues --    1.37884   1.38094   1.38713   1.38837   1.39152
 Alpha virt. eigenvalues --    1.39424   1.39538   1.39705   1.40332   1.40559
 Alpha virt. eigenvalues --    1.40790   1.41279   1.41772   1.42111   1.42695
 Alpha virt. eigenvalues --    1.43158   1.43445   1.44010   1.44285   1.44466
 Alpha virt. eigenvalues --    1.44656   1.45452   1.45764   1.46272   1.46658
 Alpha virt. eigenvalues --    1.46910   1.47254   1.47760   1.48199   1.48478
 Alpha virt. eigenvalues --    1.49022   1.49513   1.49949   1.50153   1.50375
 Alpha virt. eigenvalues --    1.50798   1.51362   1.51511   1.52360   1.53139
 Alpha virt. eigenvalues --    1.53236   1.53785   1.53837   1.54542   1.54809
 Alpha virt. eigenvalues --    1.55217   1.55833   1.56196   1.56883   1.56979
 Alpha virt. eigenvalues --    1.57243   1.57947   1.58020   1.58666   1.59261
 Alpha virt. eigenvalues --    1.59513   1.59628   1.60410   1.60839   1.61179
 Alpha virt. eigenvalues --    1.61210   1.62076   1.62290   1.62615   1.63000
 Alpha virt. eigenvalues --    1.63344   1.63910   1.64254   1.64956   1.65141
 Alpha virt. eigenvalues --    1.65528   1.65748   1.65965   1.66875   1.67103
 Alpha virt. eigenvalues --    1.67527   1.67718   1.68000   1.68151   1.68567
 Alpha virt. eigenvalues --    1.68959   1.69330   1.69472   1.69946   1.70302
 Alpha virt. eigenvalues --    1.70516   1.70558   1.71123   1.71407   1.71622
 Alpha virt. eigenvalues --    1.72147   1.72390   1.72602   1.72989   1.73418
 Alpha virt. eigenvalues --    1.74037   1.74218   1.74839   1.74987   1.75100
 Alpha virt. eigenvalues --    1.75280   1.75851   1.76048   1.76712   1.76954
 Alpha virt. eigenvalues --    1.77183   1.77365   1.77770   1.78617   1.79529
 Alpha virt. eigenvalues --    1.79756   1.80011   1.80324   1.80548   1.80700
 Alpha virt. eigenvalues --    1.81134   1.81421   1.82275   1.82597   1.82832
 Alpha virt. eigenvalues --    1.83029   1.83341   1.83796   1.83980   1.84298
 Alpha virt. eigenvalues --    1.84675   1.84917   1.85685   1.85961   1.86367
 Alpha virt. eigenvalues --    1.86435   1.87053   1.87441   1.87845   1.88424
 Alpha virt. eigenvalues --    1.88878   1.89668   1.89877   1.90266   1.90872
 Alpha virt. eigenvalues --    1.91052   1.91897   1.92282   1.92307   1.92748
 Alpha virt. eigenvalues --    1.92960   1.93543   1.93973   1.94200   1.94818
 Alpha virt. eigenvalues --    1.95194   1.95738   1.95874   1.96482   1.97207
 Alpha virt. eigenvalues --    1.97585   1.97812   1.97918   1.98505   1.98877
 Alpha virt. eigenvalues --    1.99465   2.00301   2.00872   2.00921   2.01003
 Alpha virt. eigenvalues --    2.01562   2.01910   2.02335   2.02445   2.03081
 Alpha virt. eigenvalues --    2.03522   2.03908   2.04310   2.04880   2.05251
 Alpha virt. eigenvalues --    2.05440   2.06235   2.06848   2.06907   2.07229
 Alpha virt. eigenvalues --    2.07680   2.07699   2.08454   2.08768   2.09625
 Alpha virt. eigenvalues --    2.10019   2.10307   2.10476   2.11020   2.11971
 Alpha virt. eigenvalues --    2.12087   2.12342   2.13001   2.13764   2.14324
 Alpha virt. eigenvalues --    2.14511   2.14748   2.15458   2.16534   2.17253
 Alpha virt. eigenvalues --    2.17680   2.17957   2.18685   2.19249   2.20208
 Alpha virt. eigenvalues --    2.20494   2.20918   2.21638   2.22547   2.23440
 Alpha virt. eigenvalues --    2.24131   2.24607   2.25182   2.25465   2.25654
 Alpha virt. eigenvalues --    2.26396   2.26981   2.27416   2.27895   2.28693
 Alpha virt. eigenvalues --    2.29409   2.29486   2.29879   2.30128   2.31058
 Alpha virt. eigenvalues --    2.31356   2.32450   2.32772   2.32980   2.33129
 Alpha virt. eigenvalues --    2.34379   2.34404   2.35374   2.35858   2.36247
 Alpha virt. eigenvalues --    2.36911   2.38245   2.38726   2.39766   2.40259
 Alpha virt. eigenvalues --    2.40633   2.41038   2.41702   2.42380   2.42913
 Alpha virt. eigenvalues --    2.43449   2.44619   2.45157   2.45974   2.46469
 Alpha virt. eigenvalues --    2.46916   2.47842   2.48334   2.48551   2.49146
 Alpha virt. eigenvalues --    2.50130   2.50484   2.50960   2.51994   2.53213
 Alpha virt. eigenvalues --    2.53600   2.53771   2.54432   2.54832   2.55044
 Alpha virt. eigenvalues --    2.55892   2.56686   2.57060   2.58253   2.58712
 Alpha virt. eigenvalues --    2.59742   2.60266   2.60949   2.61149   2.61987
 Alpha virt. eigenvalues --    2.62984   2.63820   2.64569   2.65332   2.65752
 Alpha virt. eigenvalues --    2.66508   2.67834   2.68559   2.69043   2.69519
 Alpha virt. eigenvalues --    2.70858   2.71233   2.71482   2.73056   2.73558
 Alpha virt. eigenvalues --    2.73759   2.74852   2.75080   2.75710   2.76415
 Alpha virt. eigenvalues --    2.77234   2.77388   2.78376   2.78612   2.79391
 Alpha virt. eigenvalues --    2.79532   2.80606   2.81342   2.82426   2.83060
 Alpha virt. eigenvalues --    2.83571   2.84360   2.84731   2.85556   2.86702
 Alpha virt. eigenvalues --    2.87072   2.87279   2.87879   2.88496   2.89452
 Alpha virt. eigenvalues --    2.90565   2.91047   2.91793   2.92057   2.93081
 Alpha virt. eigenvalues --    2.94687   2.95309   2.95911   2.97394   2.97940
 Alpha virt. eigenvalues --    2.98315   2.99515   3.00230   3.01520   3.02184
 Alpha virt. eigenvalues --    3.02543   3.03187   3.03661   3.04432   3.05549
 Alpha virt. eigenvalues --    3.06164   3.07025   3.07264   3.07852   3.08393
 Alpha virt. eigenvalues --    3.09623   3.09996   3.10757   3.11016   3.11182
 Alpha virt. eigenvalues --    3.11939   3.12541   3.13181   3.13641   3.14065
 Alpha virt. eigenvalues --    3.14548   3.16534   3.16891   3.17519   3.18015
 Alpha virt. eigenvalues --    3.18550   3.19538   3.20583   3.21027   3.22446
 Alpha virt. eigenvalues --    3.22787   3.23167   3.23690   3.24298   3.25064
 Alpha virt. eigenvalues --    3.25712   3.26148   3.27046   3.27595   3.28402
 Alpha virt. eigenvalues --    3.29319   3.29426   3.30159   3.31090   3.31645
 Alpha virt. eigenvalues --    3.32813   3.33262   3.33550   3.34213   3.35345
 Alpha virt. eigenvalues --    3.36042   3.36751   3.37464   3.38687   3.39683
 Alpha virt. eigenvalues --    3.40132   3.40564   3.41584   3.41687   3.41915
 Alpha virt. eigenvalues --    3.42637   3.43729   3.44169   3.44753   3.45071
 Alpha virt. eigenvalues --    3.45304   3.45867   3.46000   3.46939   3.47336
 Alpha virt. eigenvalues --    3.47868   3.49174   3.49593   3.50085   3.50938
 Alpha virt. eigenvalues --    3.51268   3.52272   3.53239   3.53673   3.53924
 Alpha virt. eigenvalues --    3.54856   3.55593   3.55944   3.56349   3.56795
 Alpha virt. eigenvalues --    3.57071   3.58029   3.58423   3.59010   3.59602
 Alpha virt. eigenvalues --    3.60210   3.60574   3.61028   3.61318   3.62204
 Alpha virt. eigenvalues --    3.62528   3.63959   3.64766   3.65394   3.65529
 Alpha virt. eigenvalues --    3.66015   3.66692   3.66926   3.67299   3.67963
 Alpha virt. eigenvalues --    3.68430   3.69219   3.69848   3.70608   3.70974
 Alpha virt. eigenvalues --    3.71354   3.71891   3.72451   3.72590   3.73654
 Alpha virt. eigenvalues --    3.73824   3.74070   3.74468   3.74757   3.74951
 Alpha virt. eigenvalues --    3.76114   3.76290   3.76759   3.76951   3.77742
 Alpha virt. eigenvalues --    3.77982   3.78623   3.79168   3.79611   3.80375
 Alpha virt. eigenvalues --    3.80770   3.81258   3.81346   3.82554   3.82726
 Alpha virt. eigenvalues --    3.83138   3.83970   3.84687   3.85289   3.85726
 Alpha virt. eigenvalues --    3.85951   3.86480   3.86700   3.87570   3.87999
 Alpha virt. eigenvalues --    3.88730   3.89150   3.89305   3.89908   3.90609
 Alpha virt. eigenvalues --    3.90890   3.91071   3.91846   3.92584   3.93084
 Alpha virt. eigenvalues --    3.94124   3.94444   3.95093   3.95338   3.95703
 Alpha virt. eigenvalues --    3.96336   3.97229   3.97800   3.98295   3.98562
 Alpha virt. eigenvalues --    3.99148   3.99731   4.00148   4.00708   4.00907
 Alpha virt. eigenvalues --    4.01915   4.02036   4.02353   4.03078   4.03342
 Alpha virt. eigenvalues --    4.04024   4.05349   4.05790   4.06300   4.06635
 Alpha virt. eigenvalues --    4.06717   4.08157   4.09426   4.10121   4.10567
 Alpha virt. eigenvalues --    4.11434   4.11752   4.12497   4.12705   4.13220
 Alpha virt. eigenvalues --    4.14356   4.14599   4.15501   4.16029   4.16393
 Alpha virt. eigenvalues --    4.17261   4.17724   4.18058   4.18357   4.18716
 Alpha virt. eigenvalues --    4.18939   4.20048   4.20246   4.20451   4.21160
 Alpha virt. eigenvalues --    4.21358   4.21806   4.21897   4.22412   4.23449
 Alpha virt. eigenvalues --    4.23784   4.24625   4.25297   4.26170   4.26250
 Alpha virt. eigenvalues --    4.26957   4.27582   4.28404   4.29001   4.29704
 Alpha virt. eigenvalues --    4.30155   4.30454   4.30764   4.31992   4.32459
 Alpha virt. eigenvalues --    4.32859   4.33107   4.34010   4.34858   4.35902
 Alpha virt. eigenvalues --    4.36793   4.37309   4.37772   4.37916   4.38485
 Alpha virt. eigenvalues --    4.39374   4.39604   4.39717   4.41552   4.41610
 Alpha virt. eigenvalues --    4.42505   4.42605   4.43604   4.44449   4.45299
 Alpha virt. eigenvalues --    4.46246   4.47334   4.47940   4.48771   4.49452
 Alpha virt. eigenvalues --    4.49730   4.50012   4.51378   4.51581   4.52318
 Alpha virt. eigenvalues --    4.53047   4.54073   4.55267   4.55785   4.56726
 Alpha virt. eigenvalues --    4.56957   4.58014   4.58675   4.58919   4.59213
 Alpha virt. eigenvalues --    4.59980   4.61051   4.62254   4.63144   4.63710
 Alpha virt. eigenvalues --    4.64640   4.65044   4.65357   4.66073   4.66815
 Alpha virt. eigenvalues --    4.67124   4.68519   4.69244   4.70028   4.70568
 Alpha virt. eigenvalues --    4.70880   4.71527   4.72143   4.72796   4.73754
 Alpha virt. eigenvalues --    4.74057   4.74667   4.76110   4.76592   4.77154
 Alpha virt. eigenvalues --    4.77804   4.78538   4.79028   4.80074   4.80543
 Alpha virt. eigenvalues --    4.81517   4.81737   4.82411   4.82714   4.82953
 Alpha virt. eigenvalues --    4.83494   4.83581   4.85528   4.85728   4.87691
 Alpha virt. eigenvalues --    4.88693   4.88972   4.89646   4.91104   4.91335
 Alpha virt. eigenvalues --    4.91684   4.92461   4.94386   4.95096   4.95924
 Alpha virt. eigenvalues --    4.97401   4.97960   4.98125   4.98641   4.98952
 Alpha virt. eigenvalues --    5.00771   5.01126   5.02114   5.02184   5.03265
 Alpha virt. eigenvalues --    5.04218   5.04430   5.05793   5.07552   5.08016
 Alpha virt. eigenvalues --    5.09012   5.09213   5.10421   5.10898   5.11777
 Alpha virt. eigenvalues --    5.12451   5.13152   5.13642   5.14065   5.14643
 Alpha virt. eigenvalues --    5.15586   5.16474   5.16869   5.17119   5.18667
 Alpha virt. eigenvalues --    5.18917   5.19189   5.20437   5.21573   5.22149
 Alpha virt. eigenvalues --    5.22441   5.23076   5.24882   5.25245   5.26365
 Alpha virt. eigenvalues --    5.26733   5.27118   5.28218   5.28782   5.28816
 Alpha virt. eigenvalues --    5.29281   5.29890   5.30539   5.33159   5.34266
 Alpha virt. eigenvalues --    5.35010   5.35404   5.35972   5.36590   5.38046
 Alpha virt. eigenvalues --    5.38889   5.40593   5.41364   5.42915   5.43976
 Alpha virt. eigenvalues --    5.45329   5.46770   5.47797   5.48527   5.48746
 Alpha virt. eigenvalues --    5.49726   5.50540   5.52007   5.53854   5.55698
 Alpha virt. eigenvalues --    5.56660   5.57886   5.58318   5.58991   5.59902
 Alpha virt. eigenvalues --    5.60436   5.62018   5.63047   5.63100   5.65010
 Alpha virt. eigenvalues --    5.65273   5.67430   5.67616   5.68727   5.68911
 Alpha virt. eigenvalues --    5.70730   5.71148   5.72748   5.73859   5.74192
 Alpha virt. eigenvalues --    5.75998   5.78057   5.79016   5.80295   5.80674
 Alpha virt. eigenvalues --    5.81820   5.82630   5.83071   5.84798   5.85128
 Alpha virt. eigenvalues --    5.86390   5.88330   5.88358   5.89371   5.90409
 Alpha virt. eigenvalues --    5.93104   5.94791   5.95443   5.97951   5.98466
 Alpha virt. eigenvalues --    5.99246   6.00805   6.01665   6.05206   6.06255
 Alpha virt. eigenvalues --    6.07934   6.08292   6.11183   6.12294   6.12553
 Alpha virt. eigenvalues --    6.13847   6.14196   6.15424   6.16358   6.17533
 Alpha virt. eigenvalues --    6.17731   6.19161   6.19641   6.21180   6.23019
 Alpha virt. eigenvalues --    6.24715   6.26138   6.28977   6.31956   6.33723
 Alpha virt. eigenvalues --    6.36093   6.36557   6.38658   6.39824   6.43376
 Alpha virt. eigenvalues --    6.44445   6.45326   6.46264   6.50503   6.55591
 Alpha virt. eigenvalues --    6.60855   6.64104   6.67912   6.70167   6.71768
 Alpha virt. eigenvalues --    6.74094   6.75529   6.77886   6.78487   6.80033
 Alpha virt. eigenvalues --    6.80936   6.81286   6.82653   6.85481   6.88783
 Alpha virt. eigenvalues --    6.90145   6.92067   6.92650   6.93676   6.95783
 Alpha virt. eigenvalues --    6.98642   6.99366   7.01048   7.05342   7.06489
 Alpha virt. eigenvalues --    7.08078   7.08507   7.10418   7.13032   7.16692
 Alpha virt. eigenvalues --    7.17215   7.18109   7.18792   7.22858   7.23269
 Alpha virt. eigenvalues --    7.23607   7.29651   7.36204   7.36494   7.37447
 Alpha virt. eigenvalues --    7.38444   7.39537   7.40591   7.45351   7.47102
 Alpha virt. eigenvalues --    7.48768   7.51777   7.65129   7.65396   7.68094
 Alpha virt. eigenvalues --    7.69743   7.73068   7.77411   7.78978   7.88271
 Alpha virt. eigenvalues --    7.94350   7.99490   8.02218   8.08189   8.09794
 Alpha virt. eigenvalues --    8.13776   8.31277   8.41616   8.50019   8.81489
 Alpha virt. eigenvalues --    8.84479   8.87621   8.90601   8.91565   8.97341
 Alpha virt. eigenvalues --    9.04794   9.06497   9.17464   9.21590   9.22762
 Alpha virt. eigenvalues --    9.23493   9.23970   9.26353   9.28677   9.29527
 Alpha virt. eigenvalues --    9.31925   9.33459   9.38324   9.38504   9.39218
 Alpha virt. eigenvalues --    9.41077   9.44836   9.46422   9.47908   9.48290
 Alpha virt. eigenvalues --    9.56000   9.57504   9.58772   9.61363   9.69848
 Alpha virt. eigenvalues --    9.80220   9.83046   9.88647  10.02303  10.10039
 Alpha virt. eigenvalues --   15.27166  15.77421  15.84420  16.03416  16.22833
 Alpha virt. eigenvalues --   16.43599  16.63621  16.89856  17.42409  17.77348
 Alpha virt. eigenvalues --   18.22365  18.38612  18.47726  18.64032  18.91233
 Alpha virt. eigenvalues --   19.52976  19.91570  20.24225  20.94440  21.37390
 Alpha virt. eigenvalues --   21.67412  22.24690
          Condensed to atoms (all electrons):
               1          2          3          4          5          6
     1  C   10.475998  -0.015112  -0.909783   0.154075  -0.035510  -0.021976
     2  N   -0.015112   9.238322   0.443813  -0.092996  -0.721613  -0.218639
     3  C   -0.909783   0.443813   7.396448   0.218049   0.096358  -0.487505
     4  O    0.154075  -0.092996   0.218049   9.258437  -0.234242  -0.008160
     5  N   -0.035510  -0.721613   0.096358  -0.234242   8.549594   0.456665
     6  C   -0.021976  -0.218639  -0.487505  -0.008160   0.456665   6.550728
     7  C    0.003841  -0.005128   0.023988  -0.004557  -0.004671  -0.034482
     8  C    0.000017   0.005458   0.000380   0.001113  -0.015139  -0.023137
     9  C   -1.866153  -0.291238   0.060917  -0.171551  -0.095136  -0.039487
    10  C    0.334259   0.100230  -0.128033   0.089655  -0.016002  -0.006883
    11  C   -0.284977   0.049941   0.025353  -0.016607   0.009747   0.003522
    12  C   -0.005314  -0.069802  -0.021342   0.009411   0.001011  -0.002054
    13  C   -0.664238  -0.442884  -0.066306   0.016046   0.055055  -0.000997
    14  H   -0.263873  -0.618965  -0.470795   0.008110   0.249666   0.013988
    15  H   -0.067126   0.237052  -0.254153  -0.061714  -0.759192  -0.383025
    16  H   -0.007022  -0.015347  -0.047360  -0.034026  -0.117951   0.393233
    17  H   -0.005544  -0.000279  -0.044912   0.017838  -0.019100   0.414356
    18  H    0.003236  -0.000280  -0.001992  -0.002611  -0.044118   0.010016
    19  H   -0.001090   0.005275   0.003722   0.004582  -0.026782  -0.017675
    20  H    0.000347   0.000599   0.001990  -0.000508   0.006824  -0.015998
    21  H   -0.000163  -0.000263   0.001431  -0.000003  -0.000752  -0.002127
    22  H    0.000416   0.000585   0.004099   0.000682   0.006828  -0.015137
    23  H   -1.183199  -0.186386   0.129082  -0.158144  -0.016916  -0.032790
    24  C    0.068991  -0.016764   0.001077  -0.004322  -0.000306  -0.001343
    25  Cl  -0.054582  -0.000076  -0.003372  -0.000034   0.000049  -0.000097
    26  H   -0.000902  -0.040975  -0.003882   0.000422  -0.001470  -0.000277
    27  H   -0.307279   0.262482   0.049904  -0.007232   0.038906   0.006738
    28  F    0.006609  -0.002943   0.000337   0.000223  -0.000069   0.000063
    29  F    0.006584  -0.003798   0.001343  -0.000048  -0.000269   0.000027
    30  F   -0.009392   0.003222   0.008280  -0.007391   0.000062  -0.000531
    31  O    0.037443  -0.088451  -0.027559   0.001914  -0.024096  -0.017319
    32  O    0.010572  -0.016527  -0.007269  -0.002843  -0.036549  -0.043427
    33  C   -0.029758  -0.051412   0.005591  -0.003964  -0.018474   0.012914
    34  C    0.014568  -0.014181  -0.018687  -0.000454  -0.000628   0.008567
    35  C   -0.001238  -0.002434   0.000240  -0.000126  -0.000418  -0.001285
    36  H    0.001977  -0.003002  -0.000983  -0.000018   0.002198   0.000879
    37  H    0.002873  -0.002754  -0.001284  -0.000047   0.001738   0.000758
    38  H   -0.000350  -0.000173  -0.000058  -0.000010  -0.000757   0.000739
    39  H    0.000124   0.000171   0.000154  -0.000000  -0.000406  -0.000735
    40  H   -0.000333  -0.000296   0.000221  -0.000013   0.000395   0.000177
               7          8          9         10         11         12
     1  C    0.003841   0.000017  -1.866153   0.334259  -0.284977  -0.005314
     2  N   -0.005128   0.005458  -0.291238   0.100230   0.049941  -0.069802
     3  C    0.023988   0.000380   0.060917  -0.128033   0.025353  -0.021342
     4  O   -0.004557   0.001113  -0.171551   0.089655  -0.016607   0.009411
     5  N   -0.004671  -0.015139  -0.095136  -0.016002   0.009747   0.001011
     6  C   -0.034482  -0.023137  -0.039487  -0.006883   0.003522  -0.002054
     7  C    5.688738   0.048082  -0.006827   0.001873   0.000031  -0.000344
     8  C    0.048082   5.860936  -0.000282   0.000241   0.000012  -0.000088
     9  C   -0.006827  -0.000282  11.085044  -1.568588   0.335094  -0.130698
    10  C    0.001873   0.000241  -1.568588   8.354993  -0.664974  -0.030591
    11  C    0.000031   0.000012   0.335094  -0.664974   6.599942  -0.408211
    12  C   -0.000344  -0.000088  -0.130698  -0.030591  -0.408211   8.327368
    13  C    0.000602  -0.000121  -0.457758  -0.007590   0.062106  -0.397916
    14  H    0.008386  -0.001004  -0.182350  -0.059172   0.051491  -0.027493
    15  H   -0.008444   0.002977   0.046430   0.003320  -0.004092   0.001471
    16  H   -0.017121  -0.018295  -0.001002  -0.000564   0.000502  -0.000390
    17  H    0.006000  -0.010139   0.005320  -0.001848   0.000525  -0.000271
    18  H    0.328740  -0.040032  -0.001919   0.000336   0.000034  -0.000061
    19  H    0.405217  -0.035916   0.000235   0.000095   0.000016   0.000018
    20  H    0.028263   0.380242  -0.000095   0.000084  -0.000010   0.000006
    21  H   -0.033044   0.457644  -0.000021  -0.000000   0.000001  -0.000006
    22  H    0.014503   0.394187   0.000204   0.000011  -0.000005   0.000001
    23  H   -0.002644  -0.000340   0.874473  -0.672178  -0.132063   0.034305
    24  C   -0.000036  -0.000006  -0.566895  -0.515048  -0.001353   0.069211
    25  Cl   0.000004   0.000000   0.061093   0.124925  -0.269602  -0.210675
    26  H    0.000018   0.000004   0.036361   0.043936  -0.135674   0.346353
    27  H   -0.001707  -0.000168   0.012997  -0.018284   0.073422  -0.500204
    28  F   -0.000001   0.000000  -0.040539   0.072001  -0.012412  -0.001791
    29  F   -0.000003   0.000000  -0.038172   0.060233  -0.012800  -0.001570
    30  F   -0.000011  -0.000004   0.010156  -0.034895   0.012473  -0.006014
    31  O    0.007669   0.001823  -0.037365   0.011198  -0.007846   0.037496
    32  O   -0.003329   0.001730  -0.006453   0.003873  -0.000886   0.001730
    33  C   -0.003163  -0.001965  -0.002979  -0.001204  -0.000781   0.010722
    34  C   -0.002172  -0.000476  -0.000325  -0.001459   0.000905   0.001839
    35  C    0.002382  -0.000157  -0.000168  -0.000035   0.000078  -0.000492
    36  H   -0.000442  -0.000073  -0.000161  -0.000219   0.000167   0.001506
    37  H   -0.000669  -0.000120  -0.000016  -0.000186   0.000110   0.001827
    38  H   -0.000327   0.000207   0.000070  -0.000040   0.000032  -0.000129
    39  H    0.000370   0.000001  -0.000039   0.000024  -0.000014  -0.000011
    40  H   -0.000501  -0.000153   0.000016  -0.000032   0.000028  -0.000130
              13         14         15         16         17         18
     1  C   -0.664238  -0.263873  -0.067126  -0.007022  -0.005544   0.003236
     2  N   -0.442884  -0.618965   0.237052  -0.015347  -0.000279  -0.000280
     3  C   -0.066306  -0.470795  -0.254153  -0.047360  -0.044912  -0.001992
     4  O    0.016046   0.008110  -0.061714  -0.034026   0.017838  -0.002611
     5  N    0.055055   0.249666  -0.759192  -0.117951  -0.019100  -0.044118
     6  C   -0.000997   0.013988  -0.383025   0.393233   0.414356   0.010016
     7  C    0.000602   0.008386  -0.008444  -0.017121   0.006000   0.328740
     8  C   -0.000121  -0.001004   0.002977  -0.018295  -0.010139  -0.040032
     9  C   -0.457758  -0.182350   0.046430  -0.001002   0.005320  -0.001919
    10  C   -0.007590  -0.059172   0.003320  -0.000564  -0.001848   0.000336
    11  C    0.062106   0.051491  -0.004092   0.000502   0.000525   0.000034
    12  C   -0.397916  -0.027493   0.001471  -0.000390  -0.000271  -0.000061
    13  C    8.822330  -0.091237  -0.014180  -0.000004  -0.001237  -0.000781
    14  H   -0.091237   2.094400  -0.141146   0.008464   0.000578   0.005266
    15  H   -0.014180  -0.141146   1.708665   0.049649  -0.018749   0.015646
    16  H   -0.000004   0.008464   0.049649   0.466313   0.000565   0.019030
    17  H   -0.001237   0.000578  -0.018749   0.000565   0.429922  -0.013043
    18  H   -0.000781   0.005266   0.015646   0.019030  -0.013043   0.435277
    19  H   -0.000411  -0.000256  -0.004237  -0.021502   0.019221   0.007101
    20  H    0.000090  -0.000368   0.000841  -0.007668  -0.010985   0.002762
    21  H    0.000001  -0.000223   0.001790  -0.001017   0.000278  -0.014428
    22  H    0.000003  -0.000255  -0.001428  -0.011708  -0.005121  -0.003066
    23  H   -0.085909  -0.133955   0.015442  -0.003628  -0.001102  -0.000534
    24  C    0.025732  -0.003433   0.000405  -0.000117  -0.000094  -0.000021
    25  Cl   0.064849  -0.000862   0.000015  -0.000015  -0.000007   0.000001
    26  H   -0.118551  -0.007078   0.001569  -0.000058  -0.000031  -0.000008
    27  H   -0.250264  -0.104381  -0.015642   0.000649   0.000197  -0.000427
    28  F   -0.000441  -0.000042   0.000011  -0.000024   0.000004  -0.000000
    29  F    0.000324  -0.000324   0.000122  -0.000019  -0.000004  -0.000001
    30  F   -0.007263   0.002544  -0.000540   0.000074   0.000033   0.000008
    31  O    0.068822  -0.133450  -0.065539  -0.000269  -0.001414   0.000485
    32  O    0.017996   0.001354  -0.171897   0.001249   0.000254  -0.009268
    33  C    0.000925   0.032051  -0.010616   0.002918  -0.000441   0.001946
    34  C   -0.016993   0.012644   0.020235   0.000556   0.000692   0.003428
    35  C    0.000293   0.004352  -0.006350   0.000108   0.000074  -0.000656
    36  H   -0.005875  -0.000246   0.003626   0.000052   0.000049   0.000075
    37  H   -0.007181   0.001600   0.003821   0.000016   0.000101   0.000065
    38  H    0.000144   0.002173  -0.002762   0.000015   0.000003   0.000041
    39  H    0.000312  -0.000782   0.001884  -0.000011  -0.000038  -0.000168
    40  H    0.000147   0.001099  -0.000831   0.000009  -0.000032   0.000297
              19         20         21         22         23         24
     1  C   -0.001090   0.000347  -0.000163   0.000416  -1.183199   0.068991
     2  N    0.005275   0.000599  -0.000263   0.000585  -0.186386  -0.016764
     3  C    0.003722   0.001990   0.001431   0.004099   0.129082   0.001077
     4  O    0.004582  -0.000508  -0.000003   0.000682  -0.158144  -0.004322
     5  N   -0.026782   0.006824  -0.000752   0.006828  -0.016916  -0.000306
     6  C   -0.017675  -0.015998  -0.002127  -0.015137  -0.032790  -0.001343
     7  C    0.405217   0.028263  -0.033044   0.014503  -0.002644  -0.000036
     8  C   -0.035916   0.380242   0.457644   0.394187  -0.000340  -0.000006
     9  C    0.000235  -0.000095  -0.000021   0.000204   0.874473  -0.566895
    10  C    0.000095   0.000084  -0.000000   0.000011  -0.672178  -0.515048
    11  C    0.000016  -0.000010   0.000001  -0.000005  -0.132063  -0.001353
    12  C    0.000018   0.000006  -0.000006   0.000001   0.034305   0.069211
    13  C   -0.000411   0.000090   0.000001   0.000003  -0.085909   0.025732
    14  H   -0.000256  -0.000368  -0.000223  -0.000255  -0.133955  -0.003433
    15  H   -0.004237   0.000841   0.001790  -0.001428   0.015442   0.000405
    16  H   -0.021502  -0.007668  -0.001017  -0.011708  -0.003628  -0.000117
    17  H    0.019221  -0.010985   0.000278  -0.005121  -0.001102  -0.000094
    18  H    0.007101   0.002762  -0.014428  -0.003066  -0.000534  -0.000021
    19  H    0.443794  -0.002266  -0.004682   0.002376  -0.000259  -0.000013
    20  H   -0.002266   0.333899  -0.002922   0.017524   0.000016   0.000002
    21  H   -0.004682  -0.002922   0.327590   0.002604  -0.000020  -0.000000
    22  H    0.002376   0.017524   0.002604   0.322186   0.000146   0.000004
    23  H   -0.000259   0.000016  -0.000020   0.000146   2.352166  -0.107034
    24  C   -0.000013   0.000002  -0.000000   0.000004  -0.107034   5.349255
    25  Cl  -0.000000   0.000000  -0.000000   0.000000   0.001945  -0.064634
    26  H    0.000000   0.000001   0.000000   0.000000   0.007559   0.010213
    27  H   -0.000190   0.000012  -0.000010  -0.000009  -0.008599  -0.004649
    28  F    0.000000  -0.000000   0.000000   0.000000  -0.001362   0.167115
    29  F   -0.000001   0.000000   0.000000   0.000000  -0.002453   0.177093
    30  F   -0.000007  -0.000001  -0.000000   0.000001  -0.014996   0.200261
    31  O    0.000568   0.000159   0.000194  -0.000017  -0.004719  -0.000092
    32  O   -0.001237   0.000383   0.000779  -0.000381   0.000017  -0.000077
    33  C   -0.001631  -0.000187  -0.000208  -0.000173  -0.002673  -0.000152
    34  C    0.000792  -0.000106  -0.000228  -0.000015  -0.000614  -0.000040
    35  C   -0.000113   0.000025   0.000101  -0.000054  -0.000054  -0.000005
    36  H    0.000093  -0.000015  -0.000023  -0.000001  -0.000033  -0.000008
    37  H    0.000137  -0.000025  -0.000021  -0.000001   0.000012  -0.000006
    38  H   -0.000016   0.000022  -0.000004   0.000011  -0.000016   0.000001
    39  H   -0.000023   0.000009   0.000023  -0.000007   0.000003  -0.000000
    40  H   -0.000014  -0.000019  -0.000012  -0.000003  -0.000012   0.000000
              25         26         27         28         29         30
     1  C   -0.054582  -0.000902  -0.307279   0.006609   0.006584  -0.009392
     2  N   -0.000076  -0.040975   0.262482  -0.002943  -0.003798   0.003222
     3  C   -0.003372  -0.003882   0.049904   0.000337   0.001343   0.008280
     4  O   -0.000034   0.000422  -0.007232   0.000223  -0.000048  -0.007391
     5  N    0.000049  -0.001470   0.038906  -0.000069  -0.000269   0.000062
     6  C   -0.000097  -0.000277   0.006738   0.000063   0.000027  -0.000531
     7  C    0.000004   0.000018  -0.001707  -0.000001  -0.000003  -0.000011
     8  C    0.000000   0.000004  -0.000168   0.000000   0.000000  -0.000004
     9  C    0.061093   0.036361   0.012997  -0.040539  -0.038172   0.010156
    10  C    0.124925   0.043936  -0.018284   0.072001   0.060233  -0.034895
    11  C   -0.269602  -0.135674   0.073422  -0.012412  -0.012800   0.012473
    12  C   -0.210675   0.346353  -0.500204  -0.001791  -0.001570  -0.006014
    13  C    0.064849  -0.118551  -0.250264  -0.000441   0.000324  -0.007263
    14  H   -0.000862  -0.007078  -0.104381  -0.000042  -0.000324   0.002544
    15  H    0.000015   0.001569  -0.015642   0.000011   0.000122  -0.000540
    16  H   -0.000015  -0.000058   0.000649  -0.000024  -0.000019   0.000074
    17  H   -0.000007  -0.000031   0.000197   0.000004  -0.000004   0.000033
    18  H    0.000001  -0.000008  -0.000427  -0.000000  -0.000001   0.000008
    19  H   -0.000000   0.000000  -0.000190   0.000000  -0.000001  -0.000007
    20  H    0.000000   0.000001   0.000012  -0.000000   0.000000  -0.000001
    21  H   -0.000000   0.000000  -0.000010   0.000000   0.000000  -0.000000
    22  H    0.000000   0.000000  -0.000009   0.000000   0.000000   0.000001
    23  H    0.001945   0.007559  -0.008599  -0.001362  -0.002453  -0.014996
    24  C   -0.064634   0.010213  -0.004649   0.167115   0.177093   0.200261
    25  Cl  17.873185   0.019704  -0.005591  -0.014353  -0.013510   0.010277
    26  H    0.019704   0.568010  -0.096582  -0.001022  -0.001032  -0.000338
    27  H   -0.005591  -0.096582   1.289412  -0.000256  -0.000381  -0.000351
    28  F   -0.014353  -0.001022  -0.000256   9.346673  -0.014425  -0.077211
    29  F   -0.013510  -0.001032  -0.000381  -0.014425   9.344976  -0.075961
    30  F    0.010277  -0.000338  -0.000351  -0.077211  -0.075961   9.348909
    31  O    0.000206   0.001406  -0.093078   0.000027   0.000012  -0.000086
    32  O    0.000003   0.000105   0.001095  -0.000001  -0.000001  -0.000009
    33  C   -0.000182  -0.000105   0.002757  -0.000002   0.000026  -0.000010
    34  C   -0.000039  -0.000219  -0.009915   0.000002   0.000001   0.000003
    35  C   -0.000002  -0.000012   0.000173  -0.000000  -0.000000  -0.000000
    36  H   -0.000008  -0.000107   0.001187  -0.000001   0.000002   0.000001
    37  H   -0.000009  -0.000081   0.001429   0.000001  -0.000000   0.000000
    38  H   -0.000001  -0.000003  -0.000120   0.000000  -0.000000  -0.000000
    39  H    0.000000   0.000005   0.000162  -0.000000   0.000000  -0.000000
    40  H   -0.000000  -0.000004  -0.000136  -0.000000   0.000000   0.000000
              31         32         33         34         35         36
     1  C    0.037443   0.010572  -0.029758   0.014568  -0.001238   0.001977
     2  N   -0.088451  -0.016527  -0.051412  -0.014181  -0.002434  -0.003002
     3  C   -0.027559  -0.007269   0.005591  -0.018687   0.000240  -0.000983
     4  O    0.001914  -0.002843  -0.003964  -0.000454  -0.000126  -0.000018
     5  N   -0.024096  -0.036549  -0.018474  -0.000628  -0.000418   0.002198
     6  C   -0.017319  -0.043427   0.012914   0.008567  -0.001285   0.000879
     7  C    0.007669  -0.003329  -0.003163  -0.002172   0.002382  -0.000442
     8  C    0.001823   0.001730  -0.001965  -0.000476  -0.000157  -0.000073
     9  C   -0.037365  -0.006453  -0.002979  -0.000325  -0.000168  -0.000161
    10  C    0.011198   0.003873  -0.001204  -0.001459  -0.000035  -0.000219
    11  C   -0.007846  -0.000886  -0.000781   0.000905   0.000078   0.000167
    12  C    0.037496   0.001730   0.010722   0.001839  -0.000492   0.001506
    13  C    0.068822   0.017996   0.000925  -0.016993   0.000293  -0.005875
    14  H   -0.133450   0.001354   0.032051   0.012644   0.004352  -0.000246
    15  H   -0.065539  -0.171897  -0.010616   0.020235  -0.006350   0.003626
    16  H   -0.000269   0.001249   0.002918   0.000556   0.000108   0.000052
    17  H   -0.001414   0.000254  -0.000441   0.000692   0.000074   0.000049
    18  H    0.000485  -0.009268   0.001946   0.003428  -0.000656   0.000075
    19  H    0.000568  -0.001237  -0.001631   0.000792  -0.000113   0.000093
    20  H    0.000159   0.000383  -0.000187  -0.000106   0.000025  -0.000015
    21  H    0.000194   0.000779  -0.000208  -0.000228   0.000101  -0.000023
    22  H   -0.000017  -0.000381  -0.000173  -0.000015  -0.000054  -0.000001
    23  H   -0.004719   0.000017  -0.002673  -0.000614  -0.000054  -0.000033
    24  C   -0.000092  -0.000077  -0.000152  -0.000040  -0.000005  -0.000008
    25  Cl   0.000206   0.000003  -0.000182  -0.000039  -0.000002  -0.000008
    26  H    0.001406   0.000105  -0.000105  -0.000219  -0.000012  -0.000107
    27  H   -0.093078   0.001095   0.002757  -0.009915   0.000173   0.001187
    28  F    0.000027  -0.000001  -0.000002   0.000002  -0.000000  -0.000001
    29  F    0.000012  -0.000001   0.000026   0.000001  -0.000000   0.000002
    30  F   -0.000086  -0.000009  -0.000010   0.000003  -0.000000   0.000001
    31  O    9.218641   0.022442   0.404193  -0.284620  -0.008279  -0.035506
    32  O    0.022442   8.986704   0.321954  -0.145813  -0.030576  -0.032380
    33  C    0.404193   0.321954   5.242146  -0.489549   0.023816  -0.039995
    34  C   -0.284620  -0.145813  -0.489549   6.079293   0.096162   0.491025
    35  C   -0.008279  -0.030576   0.023816   0.096162   5.752911  -0.040000
    36  H   -0.035506  -0.032380  -0.039995   0.491025  -0.040000   0.421265
    37  H   -0.051115  -0.037272  -0.047042   0.505651  -0.040155   0.052054
    38  H    0.003265   0.008453  -0.008461   0.034736   0.361053  -0.001459
    39  H   -0.000566  -0.011615   0.018059  -0.057409   0.458931  -0.011303
    40  H    0.003445   0.014087  -0.013375   0.035611   0.360590   0.000458
              37         38         39         40
     1  C    0.002873  -0.000350   0.000124  -0.000333
     2  N   -0.002754  -0.000173   0.000171  -0.000296
     3  C   -0.001284  -0.000058   0.000154   0.000221
     4  O   -0.000047  -0.000010  -0.000000  -0.000013
     5  N    0.001738  -0.000757  -0.000406   0.000395
     6  C    0.000758   0.000739  -0.000735   0.000177
     7  C   -0.000669  -0.000327   0.000370  -0.000501
     8  C   -0.000120   0.000207   0.000001  -0.000153
     9  C   -0.000016   0.000070  -0.000039   0.000016
    10  C   -0.000186  -0.000040   0.000024  -0.000032
    11  C    0.000110   0.000032  -0.000014   0.000028
    12  C    0.001827  -0.000129  -0.000011  -0.000130
    13  C   -0.007181   0.000144   0.000312   0.000147
    14  H    0.001600   0.002173  -0.000782   0.001099
    15  H    0.003821  -0.002762   0.001884  -0.000831
    16  H    0.000016   0.000015  -0.000011   0.000009
    17  H    0.000101   0.000003  -0.000038  -0.000032
    18  H    0.000065   0.000041  -0.000168   0.000297
    19  H    0.000137  -0.000016  -0.000023  -0.000014
    20  H   -0.000025   0.000022   0.000009  -0.000019
    21  H   -0.000021  -0.000004   0.000023  -0.000012
    22  H   -0.000001   0.000011  -0.000007  -0.000003
    23  H    0.000012  -0.000016   0.000003  -0.000012
    24  C   -0.000006   0.000001  -0.000000   0.000000
    25  Cl  -0.000009  -0.000001   0.000000  -0.000000
    26  H   -0.000081  -0.000003   0.000005  -0.000004
    27  H    0.001429  -0.000120   0.000162  -0.000136
    28  F    0.000001   0.000000  -0.000000  -0.000000
    29  F   -0.000000  -0.000000   0.000000   0.000000
    30  F    0.000000  -0.000000  -0.000000   0.000000
    31  O   -0.051115   0.003265  -0.000566   0.003445
    32  O   -0.037272   0.008453  -0.011615   0.014087
    33  C   -0.047042  -0.008461   0.018059  -0.013375
    34  C    0.505651   0.034736  -0.057409   0.035611
    35  C   -0.040155   0.361053   0.458931   0.360590
[...]
  1147. RY*(  18) O  32                  0.00000     7.06104   
  1148. RY*(  19) O  32                  0.00000     6.04080   
  1149. RY*(  20) O  32                  0.00001     2.27235   
  1150. RY*(  21) O  32                  0.00000     6.79175   
  1151. RY*(  22) O  32                  0.00000     4.28644   
  1152. RY*(  23) O  32                  0.00000     4.51589   
  1153. RY*(  24) O  32                  0.00000     7.28101   
  1154. RY*(  25) O  32                  0.00000     3.85094   
  1155. RY*(  26) O  32                  0.00000     5.13065   
  1156. RY*(  27) O  32                  0.00000     7.25400   
  1157. RY*(  28) O  32                  0.00000     3.66475   
  1158. RY*(  29) O  32                  0.00000     5.82283   
  1159. RY*(  30) O  32                  0.00000     3.67061   
  1160. RY*(  31) O  32                  0.00000     5.57099   
  1161. RY*(  32) O  32                  0.00000     4.29262   
  1162. RY*(  33) O  32                  0.00000     6.19910   
  1163. RY*(  34) O  32                  0.00000     3.34674   
  1164. RY*(  35) O  32                  0.00000     6.14161   
  1165. RY*(  36) O  32                  0.00000     3.48388   
  1166. RY*(  37) O  32                  0.00000     6.08443   
  1167. RY*(  38) O  32                  0.00000     4.36104   
  1168. RY*(  39) O  32                  0.00000     6.22342   
  1169. RY*(  40) O  32                  0.00001     4.49935   
  1170. RY*(  41) O  32                  0.00000     5.91473   
  1171. RY*(   1) C  33                  0.01791     1.66132   
  1172. RY*(   2) C  33                  0.00978     1.67922   
  1173. RY*(   3) C  33                  0.00416     2.42604   
  1174. RY*(   4) C  33                  0.00202     3.07909   
  1175. RY*(   5) C  33                  0.00151     3.24847   
  1176. RY*(   6) C  33                  0.00096     1.68693   
  1177. RY*(   7) C  33                  0.00047     1.47349   
  1178. RY*(   8) C  33                  0.00023     2.36860   
  1179. RY*(   9) C  33                  0.00009     2.12608   
  1180. RY*(  10) C  33                  0.00007     1.77106   
  1181. RY*(  11) C  33                  0.00003     1.92867   
  1182. RY*(  12) C  33                  0.00003     1.04136   
  1183. RY*(  13) C  33                  0.00000     3.10424   
  1184. RY*(  14) C  33                  0.00001     1.93314   
  1185. RY*(  15) C  33                  0.00000     3.94370   
  1186. RY*(  16) C  33                  0.00000     2.56226   
  1187. RY*(  17) C  33                  0.00000     2.86884   
  1188. RY*(  18) C  33                  0.00001     2.43665   
  1189. RY*(  19) C  33                  0.00001     2.20043   
  1190. RY*(  20) C  33                  0.00001     2.78568   
  1191. RY*(  21) C  33                  0.00001     2.42531   
  1192. RY*(  22) C  33                  0.00000     1.61441   
  1193. RY*(  23) C  33                  0.00001     3.40300   
  1194. RY*(  24) C  33                  0.00000     3.83988   
  1195. RY*(  25) C  33                  0.00000     1.63672   
  1196. RY*(  26) C  33                  0.00000     5.14533   
  1197. RY*(  27) C  33                  0.00001     3.08120   
  1198. RY*(  28) C  33                  0.00000     3.59453   
  1199. RY*(  29) C  33                  0.00000     2.94412   
  1200. RY*(  30) C  33                  0.00001     3.89644   
  1201. RY*(  31) C  33                  0.00000     3.74980   
  1202. RY*(  32) C  33                  0.00000     3.61673   
  1203. RY*(  33) C  33                  0.00000     3.68541   
  1204. RY*(  34) C  33                  0.00000     3.79736   
  1205. RY*(  35) C  33                  0.00000     3.44377   
  1206. RY*(  36) C  33                  0.00000     3.53287   
  1207. RY*(  37) C  33                  0.00000     3.35937   
  1208. RY*(  38) C  33                  0.00000     5.55822   
  1209. RY*(  39) C  33                  0.00000     9.02360   
  1210. RY*(  40) C  33                  0.00000     4.31829   
  1211. RY*(  41) C  33                  0.00000     4.74927   
  1212. RY*(   1) C  34                  0.00267     1.76561   
  1213. RY*(   2) C  34                  0.00181     2.35954   
  1214. RY*(   3) C  34                  0.00177     1.65859   
  1215. RY*(   4) C  34                  0.00095     1.47350   
  1216. RY*(   5) C  34                  0.00045     1.37195   
  1217. RY*(   6) C  34                  0.00030     1.98900   
  1218. RY*(   7) C  34                  0.00026     2.08269   
  1219. RY*(   8) C  34                  0.00019     2.17619   
  1220. RY*(   9) C  34                  0.00010     2.98005   
  1221. RY*(  10) C  34                  0.00008     2.05387   
  1222. RY*(  11) C  34                  0.00000     2.38593   
  1223. RY*(  12) C  34                  0.00000     1.61218   
  1224. RY*(  13) C  34                  0.00001     2.03045   
  1225. RY*(  14) C  34                  0.00001     3.52051   
  1226. RY*(  15) C  34                  0.00000     1.87758   
  1227. RY*(  16) C  34                  0.00001     1.49198   
  1228. RY*(  17) C  34                  0.00000     3.37371   
  1229. RY*(  18) C  34                  0.00000     2.68850   
  1230. RY*(  19) C  34                  0.00000     2.83552   
  1231. RY*(  20) C  34                  0.00000     2.45592   
  1232. RY*(  21) C  34                  0.00000     6.48150   
  1233. RY*(  22) C  34                  0.00001     2.37485   
  1234. RY*(  23) C  34                  0.00000     3.93421   
  1235. RY*(  24) C  34                  0.00000     2.69183   
  1236. RY*(  25) C  34                  0.00001     1.16056   
  1237. RY*(  26) C  34                  0.00000     3.90854   
  1238. RY*(  27) C  34                  0.00000     2.01808   
  1239. RY*(  28) C  34                  0.00000     4.22139   
  1240. RY*(  29) C  34                  0.00000     2.72036   
  1241. RY*(  30) C  34                  0.00000     4.65122   
  1242. RY*(  31) C  34                  0.00000     3.94173   
  1243. RY*(  32) C  34                  0.00000     4.48066   
  1244. RY*(  33) C  34                  0.00000     3.18030   
  1245. RY*(  34) C  34                  0.00000     4.24548   
  1246. RY*(  35) C  34                  0.00000     2.97281   
  1247. RY*(  36) C  34                  0.00000     4.27387   
  1248. RY*(  37) C  34                  0.00000     3.25579   
  1249. RY*(  38) C  34                  0.00000     4.39583   
  1250. RY*(  39) C  34                  0.00000     4.35275   
  1251. RY*(  40) C  34                  0.00000     4.30429   
  1252. RY*(  41) C  34                  0.00000     2.98997   
  1253. RY*(   1) C  35                  0.00192     1.85154   
  1254. RY*(   2) C  35                  0.00075     2.11636   
  1255. RY*(   3) C  35                  0.00033     1.97761   
  1256. RY*(   4) C  35                  0.00016     2.20806   
  1257. RY*(   5) C  35                  0.00009     1.54733   
  1258. RY*(   6) C  35                  0.00006     1.85117   
  1259. RY*(   7) C  35                  0.00003     3.02785   
  1260. RY*(   8) C  35                  0.00004     3.09942   
  1261. RY*(   9) C  35                  0.00000     1.62070   
  1262. RY*(  10) C  35                  0.00001     2.16759   
  1263. RY*(  11) C  35                  0.00000     2.14406   
  1264. RY*(  12) C  35                  0.00000     1.85031   
  1265. RY*(  13) C  35                  0.00000     1.81493   
  1266. RY*(  14) C  35                  0.00000     3.45851   
  1267. RY*(  15) C  35                  0.00000     3.70919   
  1268. RY*(  16) C  35                  0.00000     2.85954   
  1269. RY*(  17) C  35                  0.00000     3.56976   
  1270. RY*(  18) C  35                  0.00000     2.87108   
  1271. RY*(  19) C  35                  0.00000     5.02556   
  1272. RY*(  20) C  35                  0.00000     3.33020   
  1273. RY*(  21) C  35                  0.00000     3.15278   
  1274. RY*(  22) C  35                  0.00001     1.79451   
  1275. RY*(  23) C  35                  0.00000     3.27295   
  1276. RY*(  24) C  35                  0.00000     2.59649   
  1277. RY*(  25) C  35                  0.00001     2.08687   
  1278. RY*(  26) C  35                  0.00000     3.27019   
  1279. RY*(  27) C  35                  0.00000     2.09670   
  1280. RY*(  28) C  35                  0.00000     4.60482   
  1281. RY*(  29) C  35                  0.00000     5.33212   
  1282. RY*(  30) C  35                  0.00000     4.81877   
  1283. RY*(  31) C  35                  0.00000     4.66085   
  1284. RY*(  32) C  35                  0.00000     4.86827   
  1285. RY*(  33) C  35                  0.00000     3.75503   
  1286. RY*(  34) C  35                  0.00000     5.00358   
  1287. RY*(  35) C  35                  0.00000     3.37440   
  1288. RY*(  36) C  35                  0.00000     5.40648   
  1289. RY*(  37) C  35                  0.00000     3.08467   
  1290. RY*(  38) C  35                  0.00000     4.62789   
  1291. RY*(  39) C  35                  0.00000     4.34358   
  1292. RY*(  40) C  35                  0.00000     4.92882   
  1293. RY*(  41) C  35                  0.00000     4.07553   
  1294. RY*(   1) H  36                  0.00102     0.84877   
  1295. RY*(   2) H  36                  0.00034     1.07262   
  1296. RY*(   3) H  36                  0.00032     1.42183   
  1297. RY*(   4) H  36                  0.00014     1.87159   
  1298. RY*(   5) H  36                  0.00015     2.91983   
  1299. RY*(   6) H  36                  0.00008     2.37451   
  1300. RY*(   7) H  36                  0.00001     2.21075   
  1301. RY*(   8) H  36                  0.00000     4.40196   
  1302. RY*(   9) H  36                  0.00001     3.22738   
  1303. RY*(  10) H  36                  0.00001     4.34065   
  1304. RY*(  11) H  36                  0.00001     4.74752   
  1305. RY*(  12) H  36                  0.00001     3.07412   
  1306. RY*(  13) H  36                  0.00001     3.11001   
  1307. RY*(  14) H  36                  0.00000     4.13888   
  1308. RY*(  15) H  36                  0.00000     3.42419   
  1309. RY*(  16) H  36                  0.00000     4.59695   
  1310. RY*(  17) H  36                  0.00001     2.40755   
  1311. RY*(  18) H  36                  0.00000     4.57335   
  1312. RY*(  19) H  36                  0.00000     2.96123   
  1313. RY*(  20) H  36                  0.00000     4.08553   
  1314. RY*(  21) H  36                  0.00000     2.45218   
  1315. RY*(  22) H  36                  0.00001     4.27875   
  1316. RY*(   1) H  37                  0.00101     1.16218   
  1317. RY*(   2) H  37                  0.00035     2.70797   
  1318. RY*(   3) H  37                  0.00032     1.56243   
  1319. RY*(   4) H  37                  0.00014     4.23951   
  1320. RY*(   5) H  37                  0.00014     3.25398   
  1321. RY*(   6) H  37                  0.00009     2.98179   
  1322. RY*(   7) H  37                  0.00002     2.90388   
  1323. RY*(   8) H  37                  0.00001     4.35550   
  1324. RY*(   9) H  37                  0.00001     2.89942   
  1325. RY*(  10) H  37                  0.00001     3.63976   
  1326. RY*(  11) H  37                  0.00001     4.94584   
  1327. RY*(  12) H  37                  0.00001     5.10894   
  1328. RY*(  13) H  37                  0.00001     2.17685   
  1329. RY*(  14) H  37                  0.00000     5.39705   
  1330. RY*(  15) H  37                  0.00000     3.36011   
  1331. RY*(  16) H  37                  0.00000     4.05483   
  1332. RY*(  17) H  37                  0.00001     2.55462   
  1333. RY*(  18) H  37                  0.00001     4.94007   
  1334. RY*(  19) H  37                  0.00000     2.31799   
  1335. RY*(  20) H  37                  0.00000     3.94724   
  1336. RY*(  21) H  37                  0.00000     2.44630   
  1337. RY*(  22) H  37                  0.00001     4.22535   
  1338. RY*(   1) H  38                  0.00084     0.80552   
  1339. RY*(   2) H  38                  0.00025     1.06954   
  1340. RY*(   3) H  38                  0.00021     1.68691   
  1341. RY*(   4) H  38                  0.00019     1.97952   
  1342. RY*(   5) H  38                  0.00008     2.75930   
  1343. RY*(   6) H  38                  0.00006     2.04182   
  1344. RY*(   7) H  38                  0.00001     1.60427   
  1345. RY*(   8) H  38                  0.00001     3.45241   
  1346. RY*(   9) H  38                  0.00001     3.50446   
  1347. RY*(  10) H  38                  0.00000     2.47092   
  1348. RY*(  11) H  38                  0.00000     5.14307   
  1349. RY*(  12) H  38                  0.00001     3.97568   
  1350. RY*(  13) H  38                  0.00001     2.26707   
  1351. RY*(  14) H  38                  0.00000     3.91698   
  1352. RY*(  15) H  38                  0.00001     2.23719   
  1353. RY*(  16) H  38                  0.00000     4.33067   
  1354. RY*(  17) H  38                  0.00000     2.45017   
  1355. RY*(  18) H  38                  0.00000     4.74685   
  1356. RY*(  19) H  38                  0.00001     2.56495   
  1357. RY*(  20) H  38                  0.00000     4.03934   
  1358. RY*(  21) H  38                  0.00000     2.41969   
  1359. RY*(  22) H  38                  0.00000     4.55740   
  1360. RY*(   1) H  39                  0.00088     0.72907   
  1361. RY*(   2) H  39                  0.00032     1.43106   
  1362. RY*(   3) H  39                  0.00016     1.73872   
  1363. RY*(   4) H  39                  0.00013     2.18527   
  1364. RY*(   5) H  39                  0.00006     2.45670   
  1365. RY*(   6) H  39                  0.00003     1.50476   
  1366. RY*(   7) H  39                  0.00001     2.12698   
  1367. RY*(   8) H  39                  0.00001     5.08694   
  1368. RY*(   9) H  39                  0.00000     3.78698   
  1369. RY*(  10) H  39                  0.00001     3.20312   
  1370. RY*(  11) H  39                  0.00000     3.41108   
  1371. RY*(  12) H  39                  0.00000     3.75915   
  1372. RY*(  13) H  39                  0.00001     2.32829   
  1373. RY*(  14) H  39                  0.00000     4.51805   
  1374. RY*(  15) H  39                  0.00000     1.76954   
  1375. RY*(  16) H  39                  0.00000     3.81464   
  1376. RY*(  17) H  39                  0.00000     1.86737   
  1377. RY*(  18) H  39                  0.00000     4.63612   
  1378. RY*(  19) H  39                  0.00000     2.47892   
  1379. RY*(  20) H  39                  0.00000     4.98668   
  1380. RY*(  21) H  39                  0.00000     2.14771   
  1381. RY*(  22) H  39                  0.00000     4.17310   
  1382. RY*(   1) H  40                  0.00084     1.22341   
  1383. RY*(   2) H  40                  0.00025     1.44685   
  1384. RY*(   3) H  40                  0.00021     2.17185   
  1385. RY*(   4) H  40                  0.00019     2.33067   
  1386. RY*(   5) H  40                  0.00008     2.75707   
  1387. RY*(   6) H  40                  0.00006     2.24588   
  1388. RY*(   7) H  40                  0.00001     2.04049   
  1389. RY*(   8) H  40                  0.00001     4.00879   
  1390. RY*(   9) H  40                  0.00001     5.60544   
  1391. RY*(  10) H  40                  0.00000     4.58819   
  1392. RY*(  11) H  40                  0.00000     5.57472   
  1393. RY*(  12) H  40                  0.00001     5.89698   
  1394. RY*(  13) H  40                  0.00001     4.04648   
  1395. RY*(  14) H  40                  0.00000     1.93827   
  1396. RY*(  15) H  40                  0.00000     4.04401   
  1397. RY*(  16) H  40                  0.00000     2.44701   
  1398. RY*(  17) H  40                  0.00000     1.74633   
  1399. RY*(  18) H  40                  0.00000     2.37619   
  1400. RY*(  19) H  40                  0.00001     4.51996   
  1401. RY*(  20) H  40                  0.00000     2.47322   
  1402. RY*(  21) H  40                  0.00001     7.85444   
  1403. RY*(  22) H  40                  0.00000     4.63111   
  1436. BD*(   1) O  31 - C  33          0.04538     7.65727   
  1437. BD*(   1) O  32 - C  33          0.04509     6.27424   
  1438. BD*(   1) C  33 - C  34          0.07908     8.18724   
  1439. BD*(   1) C  34 - C  35          0.00637     4.14246   
  1440. BD*(   1) C  34 - H  36          0.01150     8.46850   
  1441. BD*(   1) C  34 - H  37          0.01150     6.88201   
  1442. BD*(   1) C  35 - H  38          0.00760     7.88771   
  1443. BD*(   1) C  35 - H  39          0.00724     7.41874   
  1444. BD*(   1) C  35 - H  40          0.00761     1.43073   
       -------------------------------
              Total Lewis   38.93970  ( 97.5989%)
        Valence non-Lewis    0.89155  (  2.2346%)
        Rydberg non-Lewis    0.06644  (  0.1665%)
       -------------------------------
            Total unit  3   39.89769  (100.0000%)
           Charge unit  3   -0.89769

 Test job not archived.
 1\1\GINC-GADI-HMEM-CLX-0011\SP\RDSDPBEP86-FC\Aug-CC-pVTZ\C14H17Cl1F3N2
 O3(1-)\HIO507\03-Nov-2020\0\\# DSDPBEP86/AUG-cc-PVTZ SCF=Tight INT(gri
 d=ultrafine) IOP(8/23=30) Pop=NBO MaxDisk=1400000MB\\29_carboxy.DSDPBE
 P86_AUG-cc-PVTZ\\-1,1\C,0,-6.1461017774,1.2786656103,0.5407718229\N,0,
 -4.8639490504,0.7737519703,0.5520391658\C,0,-3.698835638,1.4298496768,
 0.1802292182\O,0,-3.6629054818,2.5900269803,-0.2171108348\N,0,-2.59990
 29955,0.6493547888,0.3136306313\C,0,-1.3051810521,1.1303097365,-0.1103
 285087\C,0,-0.213081049,0.2113584921,0.4230432106\C,0,1.1704043625,0.6
 455906726,-0.0501583092\C,0,-6.4919051079,2.5852675525,0.1600103784\C,
 0,-7.8220993561,2.995722193,0.1879932584\C,0,-8.8257430675,2.119180771
 5,0.5937076437\C,0,-8.4911609454,0.8250007814,0.9708192315\C,0,-7.1735
 128868,0.4066190184,0.9459936962\H,0,-4.7858148546,-0.2132204159,0.863
 0888828\H,0,-2.6914390713,-0.3497226595,0.5494260408\H,0,-1.1650462059
 ,2.1517994496,0.2558871515\H,0,-1.24791326,1.1833624098,-1.2070287494\
 H,0,-0.4221132717,-0.8157339581,0.1095033323\H,0,-0.2595948362,0.20747
 00591,1.516207692\H,0,1.2384655144,0.6223264127,-1.1415655723\H,0,1.95
 19708431,-0.0078365475,0.3443274011\H,0,1.3960619679,1.6667838257,0.27
 11725251\H,0,-5.715693882,3.2657888362,-0.1546200843\C,0,-8.1543409313
 ,4.4021285671,-0.2271835303\Cl,0,-10.5103802529,2.5947720343,0.6461280
 768\H,0,-9.2741063854,0.145038279,1.2849622124\H,0,-6.9075147098,-0.60
 47722751,1.2384116551\F,0,-8.998211179,4.4408913123,-1.2755376034\F,0,
 -8.7426389301,5.1025569657,0.7608699974\F,0,-7.0695217349,5.0987830625
 ,-0.5896177616\O,0,-4.9098503674,-1.8733466795,1.3783410556\O,0,-2.729
 718516,-2.11183317,0.9355459373\C,0,-3.8460587911,-2.5404094138,1.3012
 645987\C,0,-3.9554660661,-4.0206232206,1.6991913386\C,0,-2.6458641437,
 -4.7915608091,1.6109370384\H,0,-4.7219420496,-4.4683965811,1.058669348
 6\H,0,-4.3659335869,-4.0506999836,2.7133404923\H,0,-2.2485508041,-4.76
 2381371,0.5950559806\H,0,-2.7778031562,-5.8379982285,1.9031936781\H,0,
 -1.8896372941,-4.343454145,2.2576682611\\Version=ES64L-G16RevC.01\Stat
 e=1-A\HF=-1634.8230621\MP2=-1637.0329992\RMSD=3.395e-09\PG=C01 [X(C14H
 17Cl1F3N2O3)]\\@


 Until you make peace with who you are,
 you'll never be content with what you have.
                           -- Doris Mortman
 Job cpu time:       6 days 19 hours 58 minutes  4.5 seconds.
 Elapsed time:       0 days  5 hours 11 minutes  0.3 seconds.
 File lengths (MBytes):  RWF=   1087 Int=      0 D2E=      0 Chk=    138 Scr=      1
 Normal termination of Gaussian 16 at Tue Nov  3 15:40:15 2020.
