 Entering Gaussian System, Link 0=/apps/gaussian/g16c01/g16/g16
 Initial command:
 /apps/gaussian/g16c01/g16/l1.exe "/jobfs/11080132.gadi-pbs/Gau-2275702.inp" -scrdir="/jobfs/11080132.gadi-pbs/"
 Entering Link 1 = /apps/gaussian/g16c01/g16/l1.exe PID=   2275703.
  
 Copyright (c) 1988-2019, Gaussian, Inc.  All Rights Reserved.
  
 This is part of the Gaussian(R) 16 program.  It is based on
 the Gaussian(R) 09 system (copyright 2009, Gaussian, Inc.),
 the Gaussian(R) 03 system (copyright 2003, Gaussian, Inc.),
 the Gaussian(R) 98 system (copyright 1998, Gaussian, Inc.),
 the Gaussian(R) 94 system (copyright 1995, Gaussian, Inc.),
 the Gaussian 92(TM) system (copyright 1992, Gaussian, Inc.),
 the Gaussian 90(TM) system (copyright 1990, Gaussian, Inc.),
 the Gaussian 88(TM) system (copyright 1988, Gaussian, Inc.),
 the Gaussian 86(TM) system (copyright 1986, Carnegie Mellon
 University), and the Gaussian 82(TM) system (copyright 1983,
 Carnegie Mellon University). Gaussian is a federally registered
 trademark of Gaussian, Inc.
  
 This software contains proprietary and confidential information,
 including trade secrets, belonging to Gaussian, Inc.
  
 This software is provided under written license and may be
 used, copied, transmitted, or stored only in accord with that
 written license.
  
 The following legend is applicable only to US Government
 contracts under FAR:
  
                    RESTRICTED RIGHTS LEGEND
  
 Use, reproduction and disclosure by the US Government is
 subject to restrictions as set forth in subparagraphs (a)
 and (c) of the Commercial Computer Software - Restricted
 Rights clause in FAR 52.227-19.
  
 Gaussian, Inc.
 340 Quinnipiac St., Bldg. 40, Wallingford CT 06492
  
  
 ---------------------------------------------------------------
 Warning -- This program may not be used in any manner that
 competes with the business of Gaussian, Inc. or will provide
 assistance to any competitor of Gaussian, Inc.  The licensee
 of this program is prohibited from giving any competitor of
 Gaussian, Inc. access to this program.  By using this program,
 the user acknowledges that Gaussian, Inc. is engaged in the
 business of creating and licensing software in the field of
 computational chemistry and represents and warrants to the
 licensee that it is not a competitor of Gaussian, Inc. and that
 it will not use this program in any manner prohibited above.
 ---------------------------------------------------------------
  

 Cite this work as:
 Gaussian 16, Revision C.01,
 M. J. Frisch, G. W. Trucks, H. B. Schlegel, G. E. Scuseria, 
 M. A. Robb, J. R. Cheeseman, G. Scalmani, V. Barone, 
 G. A. Petersson, H. Nakatsuji, X. Li, M. Caricato, A. V. Marenich, 
 J. Bloino, B. G. Janesko, R. Gomperts, B. Mennucci, H. P. Hratchian, 
 J. V. Ortiz, A. F. Izmaylov, J. L. Sonnenberg, D. Williams-Young, 
 F. Ding, F. Lipparini, F. Egidi, J. Goings, B. Peng, A. Petrone, 
 T. Henderson, D. Ranasinghe, V. G. Zakrzewski, J. Gao, N. Rega, 
 G. Zheng, W. Liang, M. Hada, M. Ehara, K. Toyota, R. Fukuda, 
 J. Hasegawa, M. Ishida, T. Nakajima, Y. Honda, O. Kitao, H. Nakai, 
 T. Vreven, K. Throssell, J. A. Montgomery, Jr., J. E. Peralta, 
 F. Ogliaro, M. J. Bearpark, J. J. Heyd, E. N. Brothers, K. N. Kudin, 
 V. N. Staroverov, T. A. Keith, R. Kobayashi, J. Normand, 
 K. Raghavachari, A. P. Rendell, J. C. Burant, S. S. Iyengar, 
 J. Tomasi, M. Cossi, J. M. Millam, M. Klene, C. Adamo, R. Cammi, 
 J. W. Ochterski, R. L. Martin, K. Morokuma, O. Farkas, 
 J. B. Foresman, and D. J. Fox, Gaussian, Inc., Wallingford CT, 2019.
 
 ******************************************
 Gaussian 16:  ES64L-G16RevC.01  3-Jul-2019
                 9-Sep-2020 
 ******************************************
 %NprocShared=6
 Will use up to    6 processors via shared memory.
 %Mem=192000MB
 %chk=29.DSDPBEP86_AUG-cc-PVTZ.chk
 ---------------------------------------------------------------------
 # DSDPBEP86/AUG-cc-PVTZ SCF=Tight INT(grid=ultrafine) MaxDisk=60000MB
 ---------------------------------------------------------------------
 1/38=1,172=1/1;
 2/12=2,17=6,18=5,40=1/2;
 3/5=16,6=1,7=10,11=9,25=1,30=1,74=-77,75=-5/1,2,3;
 4//1;
 5/5=2,32=2,38=5/2;
 8/10=1/1;
 9/16=-3/6;
 6/7=2,8=2,9=2,10=2/1;
 99/5=1,9=1/99;
 ------------------------
 29.DSDPBEP86_AUG-cc-PVTZ
 ------------------------
 Symbolic Z-matrix:
 Charge =  0 Multiplicity = 1
 C                    -6.20092   1.19902   0.65607 
 N                    -4.91421   0.64597   0.64909 
 C                    -3.72129   1.30452   0.36854 
 O                    -3.64806   2.48346   0.1016 
 N                    -2.62151   0.48529   0.45239 
 C                    -1.32126   1.016     0.06098 
 C                    -0.21799   0.02735   0.40787 
 C                     1.15603   0.56262   0.01731 
 C                    -6.50364   2.45372   0.12048 
 C                    -7.81414   2.91877   0.13669 
 C                    -8.83614   2.14382   0.68252 
 C                    -8.53697   0.89804   1.21527 
 C                    -7.2333    0.43242   1.20264 
 H                    -4.83755  -0.26739   1.07055 
 H                    -2.75885  -0.50518   0.31006 
 H                    -1.17492   1.95675   0.59397 
 H                    -1.30578   1.25142  -1.00982 
 H                    -0.4005   -0.92309  -0.10778 
 H                    -0.25259  -0.18317   1.48088 
 H                     1.21316   0.75841  -1.05608 
 H                     1.944    -0.14896   0.26812 
 H                     1.37403   1.49832   0.53737 
 H                    -5.71996   3.06619  -0.29709 
 C                    -8.10753   4.27775  -0.45141 
 Cl                   -10.48607   2.68886   0.72104 
 H                    -9.33016   0.29664   1.64147 
 H                    -7.01694  -0.54431   1.62456 
 F                    -8.97563   4.20129  -1.46962 
 F                    -8.6325    5.11076   0.45694 
 F                    -7.00239   4.86327  -0.92553 
 
                          Input orientation:                          
 ---------------------------------------------------------------------
 Center     Atomic      Atomic             Coordinates (Angstroms)
 Number     Number       Type             X           Y           Z
 ---------------------------------------------------------------------
      1          6           0       -6.200923    1.199020    0.656070
      2          7           0       -4.914211    0.645975    0.649092
      3          6           0       -3.721295    1.304517    0.368541
      4          8           0       -3.648056    2.483461    0.101598
      5          7           0       -2.621515    0.485293    0.452394
      6          6           0       -1.321257    1.016000    0.060980
      7          6           0       -0.217988    0.027353    0.407868
      8          6           0        1.156034    0.562624    0.017307
      9          6           0       -6.503640    2.453717    0.120475
     10          6           0       -7.814141    2.918770    0.136687
     11          6           0       -8.836142    2.143820    0.682517
     12          6           0       -8.536966    0.898036    1.215267
     13          6           0       -7.233300    0.432419    1.202641
     14          1           0       -4.837548   -0.267386    1.070547
     15          1           0       -2.758854   -0.505182    0.310063
     16          1           0       -1.174920    1.956753    0.593970
     17          1           0       -1.305777    1.251420   -1.009818
     18          1           0       -0.400505   -0.923092   -0.107781
     19          1           0       -0.252592   -0.183170    1.480880
     20          1           0        1.213155    0.758407   -1.056082
     21          1           0        1.944004   -0.148957    0.268119
     22          1           0        1.374035    1.498319    0.537368
     23          1           0       -5.719957    3.066191   -0.297093
     24          6           0       -8.107533    4.277746   -0.451406
     25         17           0      -10.486067    2.688858    0.721037
     26          1           0       -9.330157    0.296643    1.641468
     27          1           0       -7.016941   -0.544308    1.624559
     28          9           0       -8.975630    4.201287   -1.469615
     29          9           0       -8.632498    5.110760    0.456940
     30          9           0       -7.002395    4.863275   -0.925534
 ---------------------------------------------------------------------
                    Distance matrix (angstroms):
                    1          2          3          4          5
     1  C    0.000000
     2  N    1.400548   0.000000
     3  C    2.498472   1.391200   0.000000
     4  O    2.911075   2.297663   1.211004   0.000000
     5  N    3.655551   2.306722   1.373927   2.273658   0.000000
     6  C    4.919225   3.659525   2.436805   2.751197   1.457919
     7  C    6.101632   4.742931   3.729055   4.229850   2.447168
     8  C    7.412006   6.103603   4.945918   5.174552   3.803308
     9  C    1.397413   2.464478   3.020536   2.855801   4.365290
    10  C    2.414492   3.719913   4.405787   4.188913   5.743244
    11  C    2.799593   4.198356   5.192752   5.231545   6.436246
    12  C    2.420824   3.675383   4.906411   5.258829   5.978704
    13  C    1.397219   2.393783   3.713551   4.274699   4.672711
    14  H    2.044733   1.008826   2.051759   3.149748   2.420628
    15  H    3.856406   2.466915   2.050542   3.125080   1.010030
    16  H    5.083180   3.962761   2.638229   2.576092   2.068302
    17  H    5.171111   4.017381   2.781622   2.870442   2.110967
    18  H    6.223479   4.838221   4.027006   4.711160   2.688909
    19  H    6.162256   4.807291   3.934769   4.532385   2.667662
    20  H    7.621953   6.361201   5.164938   5.286530   4.129744
    21  H    8.264829   6.914635   5.849640   6.182919   4.613046
    22  H    7.581798   6.346733   5.101808   5.136321   4.122846
    23  H    2.150854   2.720651   2.746127   2.188905   4.101599
    24  C    3.786848   4.959654   5.362042   4.838617   6.730227
    25  Cl   4.537212   5.934991   6.913957   6.869082   8.171845
    26  H    3.402557   4.539539   5.839134   6.280099   6.815817
    27  H    2.154773   2.605720   3.982087   4.778721   4.664098
    28  F    4.607726   5.798646   6.275200   5.814008   7.607727
    29  F    4.610197   5.813509   6.214114   5.645674   7.584648
    30  F    4.070699   4.962417   5.010489   4.239116   6.344881
                    6          7          8          9         10
     6  C    0.000000
     7  C    1.521498   0.000000
     8  C    2.518814   1.525447   0.000000
     9  C    5.378444   6.743830   7.890340   0.000000
    10  C    6.766374   8.132366   9.275220   1.390666   0.000000
    11  C    7.624420   8.878482  10.138356   2.419193   1.393902
    12  C    7.308404   8.403296   9.772505   2.784444   2.401912
    13  C    6.049481   7.071799   8.473659   2.406062   2.766871
    14  H    3.876933   4.676146   6.141763   3.329099   4.459125
    15  H    2.107777   2.597914   4.068447   4.776447   6.108145
    16  H    1.091104   2.161697   2.776595   5.372748   6.724124
    17  H    1.096481   2.165977   2.754984   5.453518   6.815669
    18  H    2.153217   1.096610   2.155414   6.978768   8.353543
    19  H    2.143868   1.094017   2.163904   6.919499   8.282869
    20  H    2.781623   2.173881   1.092592   7.987946   9.358523
    21  H    3.473033   2.173667   1.090941   8.840724  10.229840
    22  H    2.779240   2.171416   1.092481   7.946341   9.305955
    23  H    4.866217   6.324806   7.324339   1.078724   2.143713
    24  C    7.546859   9.002728   9.991772   2.495317   1.509552
    25  Cl   9.339586  10.612027  11.855573   4.034315   2.744724
    26  H    8.194992   9.199234  10.614557   3.867245   3.382044
    27  H    6.109022   6.930576   8.402741   3.393213   3.852558
    28  F    8.430789   9.881445  10.867447   3.419521   2.360956
    29  F    8.389165   9.830941  10.802508   3.421275   2.361585
    30  F    6.931815   8.437551   9.270625   2.673735   2.359734
                   11         12         13         14         15
    11  C    0.000000
    12  C    1.387554   0.000000
    13  C    2.401775   1.384378   0.000000
    14  H    4.685428   3.881347   2.499361   0.000000
    15  H    6.639982   6.014565   4.657946   2.226174   0.000000
    16  H    7.664017   7.463686   6.276786   4.311468   2.941185
    17  H    7.769606   7.574034   6.379755   4.371281   2.634230
    18  H    9.010577   8.442096   7.088139   4.637430   2.431266
    19  H    8.929143   8.358852   7.013320   4.604051   2.784933
    20  H   10.292253  10.012162   8.749326   6.495060   4.386327
    21  H   11.029057  10.575634   9.243065   6.829888   4.716517
    22  H   10.231591   9.952278   8.698560   6.479641   4.598527
    23  H    3.394261   3.863116   3.387648   3.709693   4.678833
    24  C    2.523944   3.792711   4.276295   5.802360   7.215581
    25  Cl   1.738046   2.692638   3.987976   6.384928   8.371416
    26  H    2.139089   1.082807   2.146581   4.563728   6.752598
    27  H    3.379788   2.135030   1.085735   2.265694   4.456538
    28  F    2.980654   4.279309   4.937715   6.598878   7.997900
    29  F    2.982463   4.281498   4.939706   6.610795   8.127734
    30  F    3.652929   4.760363   4.920866   5.915622   6.953752
                   16         17         18         19         20
    16  H    0.000000
    17  H    1.756916   0.000000
    18  H    3.063606   2.522239   0.000000
    19  H    2.493304   3.061180   1.758751   0.000000
    20  H    3.140320   2.567142   2.516071   3.077525   0.000000
    21  H    3.777285   3.762347   2.497460   2.509382   1.763790
    22  H    2.590470   3.104212   3.070577   2.522605   1.764210
    23  H    4.762584   4.825594   6.651826   6.603909   7.346426
    24  C    7.385185   7.465546   9.304037   9.237619   9.981313
    25  Cl   9.340748   9.451974  10.744845  10.655980  11.989854
    26  H    8.388152   8.504798   9.180758   9.091654  10.892723
    27  H    6.437905   6.540793   6.849942   6.775505   8.753135
    28  F    8.375404   8.230418  10.081995  10.199033  10.762703
    29  F    8.098272   8.409919  10.222133   9.964787  10.870561
    30  F    6.687019   6.745669   8.816786   8.764546   9.184892
                   21         22         23         24         25
    21  H    0.000000
    22  H    1.763768   0.000000
    23  H    8.330243   7.312952   0.000000
    24  C   11.006672   9.929906   2.681828   0.000000
    25  Cl  12.757939  11.921121   4.888228   3.091377   0.000000
    26  H   11.366237  10.827870   4.945902   4.660913   2.811763
    27  H    9.071646   8.704181   4.290759   5.362017   4.827479
    28  F   11.882035  10.883454   3.641793   1.340219   3.060689
    29  F   11.813665  10.638933   3.637543   1.339623   3.061221
    30  F   10.324017   9.144811   2.295451   1.337525   4.424393
                   26         27         28         29         30
    26  H    0.000000
    27  H    2.461392   0.000000
    28  F    5.005074   5.994251   0.000000
    29  F    5.006551   5.996094   2.157891   0.000000
    30  F    5.732547   5.978723   2.151258   2.151678   0.000000
 Stoichiometry    C11H12ClF3N2O
 Framework group  C1[X(C11H12ClF3N2O)]
 Deg. of freedom    84
 Full point group                 C1      NOp   1
 Largest Abelian subgroup         C1      NOp   1
 Largest concise Abelian subgroup C1      NOp   1
                         Standard orientation:                         
 ---------------------------------------------------------------------
 Center     Atomic      Atomic             Coordinates (Angstroms)
 Number     Number       Type             X           Y           Z
 ---------------------------------------------------------------------
      1          6           0       -0.043779   -1.076731    0.050012
      2          7           0       -1.438586   -1.183420    0.118322
      3          6           0       -2.365756   -0.159453   -0.046859
      4          8           0       -2.067066    0.987772   -0.294225
      5          7           0       -3.666256   -0.586568    0.071236
      6          6           0       -4.734443    0.405301    0.044759
      7          6           0       -6.092696   -0.278412   -0.006634
      8          6           0       -7.229576    0.737961   -0.045082
      9          6           0        0.637585    0.143249    0.062497
     10          6           0        2.027585    0.163664    0.024641
     11          6           0        2.754342   -1.024771   -0.024468
     12          6           0        2.079134   -2.236889   -0.037557
     13          6           0        0.695430   -2.261256   -0.001850
     14          1           0       -1.798222   -2.125764    0.098877
     15          1           0       -3.842684   -1.415748    0.620320
     16          1           0       -4.584649    1.027900   -0.838666
     17          1           0       -4.668774    1.068090    0.915775
     18          1           0       -6.211233   -0.927000    0.869628
     19          1           0       -6.132463   -0.926189   -0.887358
     20          1           0       -7.215790    1.379632    0.839127
     21          1           0       -8.201383    0.243638   -0.082328
     22          1           0       -7.149379    1.382076   -0.923831
     23          1           0        0.085961    1.069799    0.091851
     24          6           0        2.732857    1.498232    0.041020
     25         17           0        4.491655   -1.041543   -0.072051
     26          1           0        2.643181   -3.160298   -0.078025
     27          1           0        0.183321   -3.218558   -0.013632
     28          9           0        3.540991    1.619797    1.103248
     29          9           0        3.484659    1.677743   -1.053129
     30          9           0        1.867716    2.517018    0.091787
 ---------------------------------------------------------------------
 Rotational constants (GHZ):           0.8808710           0.1410279           0.1246528
 Standard basis: Aug-CC-pVTZ (5D, 7F)
 There are  1294 symmetry adapted cartesian basis functions of A   symmetry.
 There are  1108 symmetry adapted basis functions of A   symmetry.
  1108 basis functions,  1662 primitive gaussians,  1294 cartesian basis functions
    72 alpha electrons       72 beta electrons
       nuclear repulsion energy      1445.6692706205 Hartrees.
 NAtoms=   30 NActive=   30 NUniq=   30 SFac= 1.00D+00 NAtFMM=   60 NAOKFM=F Big=F
 Integral buffers will be    131072 words long.
 Regular integral format.
 Two-electron integral symmetry is turned on.
 Nuclear repulsion after empirical dispersion term =     1445.6463760662 Hartrees.
 One-electron integrals computed using PRISM.
 NBasis=  1108 RedAO= T EigKep=  1.20D-06  NBF=  1108
 NBsUse=  1105 1.00D-06 EigRej=  7.86D-07 NBFU=  1105
 ExpMin= 2.53D-02 ExpMax= 4.56D+05 ExpMxC= 1.44D+03 IAcc=3 IRadAn=         5 AccDes= 0.00D+00
 Harris functional with IExCor= 1004 and IRadAn=       5 diagonalized for initial guess.
 HarFok:  IExCor= 1004 AccDes= 0.00D+00 IRadAn=         5 IDoV= 1 UseB2=F ITyADJ=14
 ICtDFT=  3500011 ScaDFX=  1.000000  1.000000  1.000000  1.000000
 FoFCou: FMM=F IPFlag=           0 FMFlag=      100000 FMFlg1=           0
         NFxFlg=           0 DoJE=T BraDBF=F KetDBF=T FulRan=T
         wScrn=  0.000000 ICntrl=       500 IOpCl=  0 I1Cent=   200000004 NGrid=           0
         NMat0=    1 NMatS0=      1 NMatT0=    0 NMatD0=    1 NMtDS0=    0 NMtDT0=    0
 Petite list used in FoFCou.
 Requested convergence on RMS density matrix=1.00D-08 within 128 cycles.
 Requested convergence on MAX density matrix=1.00D-06.
 Requested convergence on             energy=1.00D-06.
 No special actions if energy rises.
 SCF Done:  E(RDSDPBEP86) =  -1367.76546174     A.U. after   13 cycles
            NFock= 13  Conv=0.95D-08     -V/T= 2.0025
 DoSCS=T DFT=T ScalE2(SS,OS)=  0.220000  0.520000
 ExpMin= 2.53D-02 ExpMax= 4.56D+05 ExpMxC= 1.44D+03 IAcc=3 IRadAn=         5 AccDes= 0.00D+00
 HarFok:  IExCor=  205 AccDes= 0.00D+00 IRadAn=         5 IDoV=-2 UseB2=F ITyADJ=14
 ICtDFT= 12500011 ScaDFX=  1.000000  1.000000  1.000000  1.000000
 GSVD:  LWork=        -660 too small for GESVD, short by        2750 words or        2750 for optimal perf.
 Range of M.O.s used for correlation:    23  1105
 NBasis=  1108 NAE=    72 NBE=    72 NFC=    22 NFV=     0
 NROrb=   1083 NOA=    50 NOB=    50 NVA=  1033 NVB=  1033

 **** Warning!!: The largest alpha MO coefficient is  0.96496802D+02

 DoSCS=T DFT=T ScalE2(SS,OS)=  0.220000  0.520000
 Fully direct method using O(OVN) memory.
 JobTyp=1 Pass  1:  I=   1 to  50 NPSUse=  6 ParTrn=T ParDer=T DoDerP=F.
 Spin components of T(2) and E(2):
     alpha-alpha T2 =       0.1752629050D+00 E2=     -0.1097953828D+00
     alpha-beta  T2 =       0.9086706450D+00 E2=     -0.1476752878D+01
     beta-beta   T2 =       0.1752629050D+00 E2=     -0.1097953828D+00
 E2(DSDPBEP86) =    -0.1696343643D+01 E(DSDPBEP86) =    -0.13694618053852D+04

 **********************************************************************

            Population analysis using the SCF Density.

 **********************************************************************

 Orbital symmetries:
       Occupied  (A) (A) (A) (A) (A) (A) (A) (A) (A) (A) (A) (A)
                 (A) (A) (A) (A) (A) (A) (A) (A) (A) (A) (A) (A)
                 (A) (A) (A) (A) (A) (A) (A) (A) (A) (A) (A) (A)
                 (A) (A) (A) (A) (A) (A) (A) (A) (A) (A) (A) (A)
                 (A) (A) (A) (A) (A) (A) (A) (A) (A) (A) (A) (A)
                 (A) (A) (A) (A) (A) (A) (A) (A) (A) (A) (A) (A)
       Virtual   (A) (A) (A) (A) (A) (A) (A) (A) (A) (A) (A) (A)
                 (A) (A) (A) (A) (A) (A) (A) (A) (A) (A) (A) (A)
                 (A) (A) (A) (A) (A) (A) (A) (A) (A) (A) (A) (A)
                 (A) (A) (A) (A) (A) (A) (A) (A) (A) (A) (A) (A)
                 (A) (A) (A) (A) (A) (A) (A) (A) (A) (A) (A) (A)
                 (A) (A) (A) (A) (A) (A) (A) (A) (A) (A) (A) (A)
                 (A) (A) (A) (A) (A) (A) (A) (A) (A) (A) (A) (A)
                 (A) (A) (A) (A) (A) (A) (A) (A) (A) (A) (A) (A)
                 (A) (A) (A) (A) (A) (A) (A) (A) (A) (A) (A) (A)
                 (A) (A) (A) (A) (A) (A) (A) (A) (A) (A) (A) (A)
                 (A) (A) (A) (A) (A) (A) (A) (A) (A) (A) (A) (A)
                 (A) (A) (A) (A) (A) (A) (A) (A) (A) (A) (A) (A)
                 (A) (A) (A) (A) (A) (A) (A) (A) (A) (A) (A) (A)
                 (A) (A) (A) (A) (A) (A) (A) (A) (A) (A) (A) (A)
                 (A) (A) (A) (A) (A) (A) (A) (A) (A) (A) (A) (A)
                 (A) (A) (A) (A) (A) (A) (A) (A) (A) (A) (A) (A)
                 (A) (A) (A) (A) (A) (A) (A) (A) (A) (A) (A) (A)
                 (A) (A) (A) (A) (A) (A) (A) (A) (A) (A) (A) (A)
                 (A) (A) (A) (A) (A) (A) (A) (A) (A) (A) (A) (A)
                 (A) (A) (A) (A) (A) (A) (A) (A) (A) (A) (A) (A)
                 (A) (A) (A) (A) (A) (A) (A) (A) (A) (A) (A) (A)
                 (A) (A) (A) (A) (A) (A) (A) (A) (A) (A) (A) (A)
                 (A) (A) (A) (A) (A) (A) (A) (A) (A) (A) (A) (A)
                 (A) (A) (A) (A) (A) (A) (A) (A) (A) (A) (A) (A)
                 (A) (A) (A) (A) (A) (A) (A) (A) (A) (A) (A) (A)
                 (A) (A) (A) (A) (A) (A) (A) (A) (A) (A) (A) (A)
                 (A) (A) (A) (A) (A) (A) (A) (A) (A) (A) (A) (A)
                 (A) (A) (A) (A) (A) (A) (A) (A) (A) (A) (A) (A)
                 (A) (A) (A) (A) (A) (A) (A) (A) (A) (A) (A) (A)
                 (A) (A) (A) (A) (A) (A) (A) (A) (A) (A) (A) (A)
                 (A) (A) (A) (A) (A) (A) (A) (A) (A) (A) (A) (A)
                 (A) (A) (A) (A) (A) (A) (A) (A) (A) (A) (A) (A)
                 (A) (A) (A) (A) (A) (A) (A) (A) (A) (A) (A) (A)
                 (A) (A) (A) (A) (A) (A) (A) (A) (A) (A) (A) (A)
                 (A) (A) (A) (A) (A) (A) (A) (A) (A) (A) (A) (A)
                 (A) (A) (A) (A) (A) (A) (A) (A) (A) (A) (A) (A)
                 (A) (A) (A) (A) (A) (A) (A) (A) (A) (A) (A) (A)
                 (A) (A) (A) (A) (A) (A) (A) (A) (A) (A) (A) (A)
                 (A) (A) (A) (A) (A) (A) (A) (A) (A) (A) (A) (A)
                 (A) (A) (A) (A) (A) (A) (A) (A) (A) (A) (A) (A)
                 (A) (A) (A) (A) (A) (A) (A) (A) (A) (A) (A) (A)
                 (A) (A) (A) (A) (A) (A) (A) (A) (A) (A) (A) (A)
                 (A) (A) (A) (A) (A) (A) (A) (A) (A) (A) (A) (A)
                 (A) (A) (A) (A) (A) (A) (A) (A) (A) (A) (A) (A)
                 (A) (A) (A) (A) (A) (A) (A) (A) (A) (A) (A) (A)
                 (A) (A) (A) (A) (A) (A) (A) (A) (A) (A) (A) (A)
                 (A) (A) (A) (A) (A) (A) (A) (A) (A) (A) (A) (A)
                 (A) (A) (A) (A) (A) (A) (A) (A) (A) (A) (A) (A)
                 (A) (A) (A) (A) (A) (A) (A) (A) (A) (A) (A) (A)
                 (A) (A) (A) (A) (A) (A) (A) (A) (A) (A) (A) (A)
                 (A) (A) (A) (A) (A) (A) (A) (A) (A) (A) (A) (A)
                 (A) (A) (A) (A) (A) (A) (A) (A) (A) (A) (A) (A)
                 (A) (A) (A) (A) (A) (A) (A) (A) (A) (A) (A) (A)
                 (A) (A) (A) (A) (A) (A) (A) (A) (A) (A) (A) (A)
                 (A) (A) (A) (A) (A) (A) (A) (A) (A) (A) (A) (A)
                 (A) (A) (A) (A) (A) (A) (A) (A) (A) (A) (A) (A)
                 (A) (A) (A) (A) (A) (A) (A) (A) (A) (A) (A) (A)
                 (A) (A) (A) (A) (A) (A) (A) (A) (A) (A) (A) (A)
                 (A) (A) (A) (A) (A) (A) (A) (A) (A) (A) (A) (A)
                 (A) (A) (A) (A) (A) (A) (A) (A) (A) (A) (A) (A)
                 (A) (A) (A) (A) (A) (A) (A) (A) (A) (A) (A) (A)
                 (A) (A) (A) (A) (A) (A) (A) (A) (A) (A) (A) (A)
                 (A) (A) (A) (A) (A) (A) (A) (A) (A) (A) (A) (A)
                 (A) (A) (A) (A) (A) (A) (A) (A) (A) (A) (A) (A)
                 (A) (A) (A) (A) (A) (A) (A) (A) (A) (A) (A) (A)
                 (A) (A) (A) (A) (A) (A) (A) (A) (A) (A) (A) (A)
                 (A) (A) (A) (A) (A) (A) (A) (A) (A) (A) (A) (A)
                 (A) (A) (A) (A) (A) (A) (A) (A) (A) (A) (A) (A)
                 (A) (A) (A) (A) (A) (A) (A) (A) (A) (A) (A) (A)
                 (A) (A) (A) (A) (A) (A) (A) (A) (A) (A) (A) (A)
                 (A) (A) (A) (A) (A) (A) (A) (A) (A) (A) (A) (A)
                 (A) (A) (A) (A) (A) (A) (A) (A) (A) (A) (A) (A)
                 (A) (A) (A) (A) (A) (A) (A) (A) (A) (A) (A) (A)
                 (A) (A) (A) (A) (A) (A) (A) (A) (A) (A) (A) (A)
                 (A) (A) (A) (A) (A) (A) (A) (A) (A) (A) (A) (A)
                 (A) (A) (A) (A) (A) (A) (A) (A) (A) (A) (A) (A)
                 (A) (A) (A) (A) (A) (A) (A) (A) (A) (A) (A) (A)
                 (A) (A) (A) (A) (A) (A) (A) (A) (A) (A) (A) (A)
                 (A) (A) (A) (A) (A) (A) (A) (A) (A) (A) (A) (A)
                 (A) (A) (A) (A) (A) (A) (A) (A) (A) (A) (A) (A)
                 (A) (A) (A) (A) (A) (A) (A) (A) (A) (A) (A) (A)
                 (A) (A) (A) (A) (A) (A) (A) (A) (A) (A) (A) (A)
                 (A) (A) (A) (A) (A) (A) (A) (A) (A) (A) (A) (A)
                 (A) (A) (A) (A) (A) (A) (A) (A) (A) (A) (A) (A)
                 (A) (A) (A) (A) (A) (A) (A) (A) (A) (A) (A) (A)
                 (A) (A) (A) (A) (A) (A) (A) (A) (A) (A) (A) (A)
                 (A)
 The electronic state is 1-A.
 Alpha  occ. eigenvalues -- -103.57522 -25.70532 -25.70152 -25.70142 -19.98053
 Alpha  occ. eigenvalues --  -15.13564 -15.11455 -11.08331 -10.97383 -10.90130
 Alpha  occ. eigenvalues --  -10.89745 -10.86582 -10.85843 -10.85223 -10.85085
 Alpha  occ. eigenvalues --  -10.84298 -10.82999 -10.81647 -10.15021  -7.72707
 Alpha  occ. eigenvalues --   -7.72221  -7.72208  -1.57063  -1.47632  -1.47351
 Alpha  occ. eigenvalues --   -1.28997  -1.16464  -1.12877  -1.09329  -1.02284
 Alpha  occ. eigenvalues --   -0.97634  -0.96819  -0.91773  -0.87196  -0.85007
 Alpha  occ. eigenvalues --   -0.79821  -0.78025  -0.75195  -0.74506  -0.73169
 Alpha  occ. eigenvalues --   -0.72972  -0.71184  -0.68940  -0.64325  -0.61801
 Alpha  occ. eigenvalues --   -0.61499  -0.61431  -0.60860  -0.59662  -0.58172
 Alpha  occ. eigenvalues --   -0.57423  -0.57121  -0.56608  -0.55599  -0.55137
 Alpha  occ. eigenvalues --   -0.55084  -0.52618  -0.52401  -0.51081  -0.49740
 Alpha  occ. eigenvalues --   -0.49190  -0.47740  -0.46957  -0.45618  -0.44640
 Alpha  occ. eigenvalues --   -0.43964  -0.40861  -0.39840  -0.39434  -0.36349
 Alpha  occ. eigenvalues --   -0.34453  -0.29132
 Alpha virt. eigenvalues --    0.00069   0.01431   0.02202   0.02451   0.02934
 Alpha virt. eigenvalues --    0.03060   0.03663   0.04103   0.04670   0.04733
 Alpha virt. eigenvalues --    0.05193   0.05306   0.05972   0.06747   0.06915
 Alpha virt. eigenvalues --    0.07206   0.07387   0.07908   0.08202   0.09102
 Alpha virt. eigenvalues --    0.09168   0.09344   0.09583   0.09768   0.10059
 Alpha virt. eigenvalues --    0.10496   0.10818   0.10995   0.11367   0.11859
 Alpha virt. eigenvalues --    0.11998   0.12386   0.12453   0.12847   0.13492
 Alpha virt. eigenvalues --    0.13729   0.13883   0.14108   0.14467   0.14917
 Alpha virt. eigenvalues --    0.15018   0.15307   0.15505   0.15674   0.16097
 Alpha virt. eigenvalues --    0.16353   0.17169   0.17550   0.17769   0.17912
 Alpha virt. eigenvalues --    0.18470   0.18678   0.19238   0.19365   0.19510
 Alpha virt. eigenvalues --    0.19584   0.20129   0.20333   0.20948   0.21423
 Alpha virt. eigenvalues --    0.21781   0.22003   0.22420   0.22633   0.23306
 Alpha virt. eigenvalues --    0.23630   0.23790   0.24149   0.24227   0.24641
 Alpha virt. eigenvalues --    0.24764   0.24969   0.25234   0.25673   0.26422
 Alpha virt. eigenvalues --    0.26549   0.26758   0.27633   0.27785   0.28133
 Alpha virt. eigenvalues --    0.28280   0.28612   0.28768   0.28982   0.29438
 Alpha virt. eigenvalues --    0.29723   0.30048   0.30445   0.30789   0.30889
 Alpha virt. eigenvalues --    0.31263   0.31365   0.31539   0.31814   0.32211
 Alpha virt. eigenvalues --    0.32403   0.32723   0.33030   0.33328   0.33771
 Alpha virt. eigenvalues --    0.34108   0.34340   0.34637   0.35000   0.35157
 Alpha virt. eigenvalues --    0.35330   0.35700   0.35791   0.36298   0.36564
 Alpha virt. eigenvalues --    0.36708   0.37072   0.37256   0.37787   0.37985
 Alpha virt. eigenvalues --    0.38079   0.38597   0.38695   0.38841   0.39111
 Alpha virt. eigenvalues --    0.39640   0.39880   0.40338   0.40613   0.40792
 Alpha virt. eigenvalues --    0.41280   0.41438   0.41665   0.41714   0.42086
 Alpha virt. eigenvalues --    0.42565   0.42955   0.43178   0.43266   0.43568
 Alpha virt. eigenvalues --    0.43997   0.44234   0.44396   0.44703   0.45102
 Alpha virt. eigenvalues --    0.45215   0.45691   0.46040   0.46125   0.46210
 Alpha virt. eigenvalues --    0.46397   0.47174   0.47599   0.47861   0.48062
 Alpha virt. eigenvalues --    0.48145   0.48519   0.49223   0.49327   0.49441
 Alpha virt. eigenvalues --    0.50029   0.50418   0.50441   0.50560   0.51107
 Alpha virt. eigenvalues --    0.51226   0.51561   0.52074   0.52365   0.52669
 Alpha virt. eigenvalues --    0.53283   0.53548   0.54031   0.54530   0.54833
 Alpha virt. eigenvalues --    0.55185   0.55677   0.55829   0.56201   0.56575
 Alpha virt. eigenvalues --    0.57425   0.57803   0.57991   0.58212   0.59135
 Alpha virt. eigenvalues --    0.59976   0.60186   0.60437   0.61112   0.61528
 Alpha virt. eigenvalues --    0.61784   0.61991   0.62620   0.62696   0.63398
 Alpha virt. eigenvalues --    0.63900   0.64337   0.64738   0.65104   0.65535
 Alpha virt. eigenvalues --    0.65730   0.66265   0.66610   0.66903   0.67392
 Alpha virt. eigenvalues --    0.67916   0.68152   0.68774   0.69211   0.70462
 Alpha virt. eigenvalues --    0.70821   0.71118   0.71493   0.72013   0.72653
 Alpha virt. eigenvalues --    0.72992   0.73142   0.73956   0.74309   0.74543
 Alpha virt. eigenvalues --    0.75038   0.75252   0.76326   0.76459   0.77128
 Alpha virt. eigenvalues --    0.77279   0.77713   0.78142   0.78807   0.78939
 Alpha virt. eigenvalues --    0.79102   0.79774   0.80185   0.80716   0.80973
 Alpha virt. eigenvalues --    0.81606   0.81922   0.82251   0.82411   0.82576
 Alpha virt. eigenvalues --    0.82840   0.83289   0.83473   0.84007   0.84299
 Alpha virt. eigenvalues --    0.84627   0.85350   0.85629   0.86062   0.86338
 Alpha virt. eigenvalues --    0.86703   0.86940   0.87361   0.87424   0.87882
 Alpha virt. eigenvalues --    0.88004   0.88548   0.88797   0.89323   0.89889
 Alpha virt. eigenvalues --    0.89970   0.90441   0.90776   0.90914   0.91417
 Alpha virt. eigenvalues --    0.91644   0.91972   0.92738   0.93027   0.93476
 Alpha virt. eigenvalues --    0.93730   0.94126   0.94781   0.95206   0.95287
 Alpha virt. eigenvalues --    0.95906   0.96206   0.96678   0.97042   0.97328
 Alpha virt. eigenvalues --    0.98106   0.98494   0.98679   0.98881   0.99229
 Alpha virt. eigenvalues --    0.99842   1.00165   1.00674   1.01278   1.01652
 Alpha virt. eigenvalues --    1.01906   1.02782   1.03148   1.03262   1.03752
 Alpha virt. eigenvalues --    1.03925   1.04021   1.04437   1.05246   1.05719
 Alpha virt. eigenvalues --    1.06197   1.06493   1.06741   1.07109   1.07393
 Alpha virt. eigenvalues --    1.07588   1.07737   1.08366   1.08765   1.09055
 Alpha virt. eigenvalues --    1.09576   1.09690   1.09978   1.10361   1.10791
 Alpha virt. eigenvalues --    1.11047   1.11459   1.11661   1.12143   1.12296
 Alpha virt. eigenvalues --    1.12571   1.12835   1.13427   1.13629   1.14528
 Alpha virt. eigenvalues --    1.15465   1.15560   1.15852   1.16389   1.16811
 Alpha virt. eigenvalues --    1.17164   1.17537   1.18064   1.18217   1.18959
 Alpha virt. eigenvalues --    1.19255   1.19493   1.20280   1.20668   1.21191
 Alpha virt. eigenvalues --    1.21560   1.22172   1.22616   1.22888   1.23425
 Alpha virt. eigenvalues --    1.23631   1.24621   1.24765   1.25736   1.26214
 Alpha virt. eigenvalues --    1.26801   1.26976   1.27436   1.27693   1.28164
 Alpha virt. eigenvalues --    1.28763   1.29026   1.29698   1.30144   1.30282
 Alpha virt. eigenvalues --    1.30482   1.31279   1.31634   1.32164   1.32497
 Alpha virt. eigenvalues --    1.33076   1.33741   1.33944   1.34508   1.35005
 Alpha virt. eigenvalues --    1.35403   1.35653   1.35710   1.36149   1.37142
 Alpha virt. eigenvalues --    1.37526   1.38180   1.38606   1.39519   1.40023
 Alpha virt. eigenvalues --    1.40288   1.40730   1.41338   1.42166   1.42455
 Alpha virt. eigenvalues --    1.43386   1.43833   1.44442   1.45202   1.45278
 Alpha virt. eigenvalues --    1.45510   1.46559   1.46758   1.47048   1.47919
 Alpha virt. eigenvalues --    1.48432   1.48885   1.49893   1.50066   1.50529
 Alpha virt. eigenvalues --    1.51913   1.52010   1.52191   1.52654   1.53466
 Alpha virt. eigenvalues --    1.54262   1.54506   1.55230   1.55715   1.56632
 Alpha virt. eigenvalues --    1.57411   1.57881   1.58079   1.58227   1.58604
 Alpha virt. eigenvalues --    1.59117   1.59504   1.59943   1.60676   1.60922
 Alpha virt. eigenvalues --    1.61124   1.61362   1.62072   1.62295   1.62814
 Alpha virt. eigenvalues --    1.63216   1.63274   1.64178   1.64578   1.65360
 Alpha virt. eigenvalues --    1.65744   1.65818   1.66566   1.67272   1.68149
 Alpha virt. eigenvalues --    1.68682   1.68824   1.69374   1.69822   1.70206
 Alpha virt. eigenvalues --    1.70632   1.71357   1.71823   1.72837   1.73142
 Alpha virt. eigenvalues --    1.74222   1.74667   1.75198   1.75527   1.75781
 Alpha virt. eigenvalues --    1.76665   1.76779   1.77251   1.77938   1.78421
 Alpha virt. eigenvalues --    1.78995   1.79373   1.79500   1.80089   1.81176
 Alpha virt. eigenvalues --    1.81459   1.82129   1.82889   1.83172   1.83886
 Alpha virt. eigenvalues --    1.84546   1.84818   1.85984   1.86113   1.86834
 Alpha virt. eigenvalues --    1.87370   1.87651   1.88374   1.88935   1.89195
 Alpha virt. eigenvalues --    1.89662   1.90002   1.90717   1.91450   1.92425
 Alpha virt. eigenvalues --    1.92877   1.93308   1.93420   1.94500   1.94914
 Alpha virt. eigenvalues --    1.95533   1.96159   1.96756   1.97073   1.97484
 Alpha virt. eigenvalues --    1.98749   1.98927   1.99587   2.00876   2.01123
 Alpha virt. eigenvalues --    2.01564   2.01779   2.02889   2.03020   2.04300
 Alpha virt. eigenvalues --    2.04458   2.05452   2.06512   2.07319   2.08138
 Alpha virt. eigenvalues --    2.08785   2.09373   2.10331   2.10884   2.11544
 Alpha virt. eigenvalues --    2.12043   2.12777   2.14451   2.14951   2.15987
 Alpha virt. eigenvalues --    2.16607   2.17146   2.18439   2.18603   2.18760
 Alpha virt. eigenvalues --    2.20749   2.21093   2.21278   2.21558   2.22286
 Alpha virt. eigenvalues --    2.22899   2.23478   2.24956   2.25272   2.27163
 Alpha virt. eigenvalues --    2.27402   2.28286   2.29344   2.29535   2.31439
 Alpha virt. eigenvalues --    2.31854   2.33307   2.33526   2.33991   2.34381
 Alpha virt. eigenvalues --    2.35364   2.36202   2.36763   2.37861   2.38199
 Alpha virt. eigenvalues --    2.39087   2.39496   2.40644   2.41523   2.42697
 Alpha virt. eigenvalues --    2.43398   2.43556   2.44856   2.45789   2.47525
 Alpha virt. eigenvalues --    2.48484   2.49184   2.49786   2.50249   2.50421
 Alpha virt. eigenvalues --    2.50995   2.52542   2.54754   2.55867   2.56515
 Alpha virt. eigenvalues --    2.57953   2.58975   2.59562   2.60373   2.61988
 Alpha virt. eigenvalues --    2.62815   2.63266   2.64504   2.64953   2.65400
 Alpha virt. eigenvalues --    2.66377   2.67107   2.68269   2.69841   2.70100
 Alpha virt. eigenvalues --    2.70812   2.71509   2.71688   2.73753   2.75768
 Alpha virt. eigenvalues --    2.76779   2.77898   2.78646   2.79045   2.80996
 Alpha virt. eigenvalues --    2.81758   2.82747   2.83935   2.84325   2.85327
 Alpha virt. eigenvalues --    2.86948   2.88683   2.89779   2.91084   2.91507
 Alpha virt. eigenvalues --    2.92206   2.93097   2.94372   2.94932   2.95687
 Alpha virt. eigenvalues --    2.95825   2.97069   2.98151   2.99410   3.00887
 Alpha virt. eigenvalues --    3.00955   3.01475   3.02052   3.03563   3.03784
 Alpha virt. eigenvalues --    3.04457   3.07558   3.07877   3.08909   3.09682
 Alpha virt. eigenvalues --    3.10733   3.11121   3.12783   3.13284   3.13724
 Alpha virt. eigenvalues --    3.14286   3.15538   3.15742   3.16905   3.17847
 Alpha virt. eigenvalues --    3.18074   3.19598   3.19681   3.21845   3.22968
 Alpha virt. eigenvalues --    3.23461   3.23764   3.24671   3.25688   3.26566
 Alpha virt. eigenvalues --    3.27531   3.29236   3.29563   3.30366   3.31491
 Alpha virt. eigenvalues --    3.31604   3.32066   3.33206   3.33858   3.34234
 Alpha virt. eigenvalues --    3.34622   3.35091   3.35865   3.36165   3.36307
 Alpha virt. eigenvalues --    3.37595   3.38514   3.39302   3.39837   3.40432
 Alpha virt. eigenvalues --    3.41668   3.42549   3.43456   3.44343   3.45015
 Alpha virt. eigenvalues --    3.45261   3.46515   3.46527   3.47482   3.48068
 Alpha virt. eigenvalues --    3.49526   3.50098   3.50269   3.50993   3.52541
 Alpha virt. eigenvalues --    3.52814   3.53822   3.55055   3.55902   3.56598
 Alpha virt. eigenvalues --    3.57380   3.58001   3.58196   3.59374   3.59724
 Alpha virt. eigenvalues --    3.60581   3.61151   3.61858   3.62271   3.62612
 Alpha virt. eigenvalues --    3.63556   3.63773   3.64387   3.64808   3.65141
 Alpha virt. eigenvalues --    3.66378   3.66589   3.67133   3.67914   3.69007
 Alpha virt. eigenvalues --    3.69541   3.69937   3.70881   3.71826   3.73006
 Alpha virt. eigenvalues --    3.73212   3.73728   3.74278   3.74660   3.76770
 Alpha virt. eigenvalues --    3.77112   3.77737   3.77911   3.79212   3.79685
 Alpha virt. eigenvalues --    3.80866   3.81039   3.81719   3.82232   3.83597
 Alpha virt. eigenvalues --    3.83865   3.84128   3.84638   3.84815   3.85352
 Alpha virt. eigenvalues --    3.85864   3.87070   3.87599   3.88195   3.88532
 Alpha virt. eigenvalues --    3.89119   3.90123   3.90526   3.91594   3.93343
 Alpha virt. eigenvalues --    3.94497   3.94880   3.96152   3.96571   3.97358
 Alpha virt. eigenvalues --    3.98401   3.99997   4.00101   4.01148   4.01283
 Alpha virt. eigenvalues --    4.02762   4.03960   4.04369   4.05399   4.05785
 Alpha virt. eigenvalues --    4.06561   4.06815   4.06973   4.08021   4.08735
 Alpha virt. eigenvalues --    4.09078   4.09936   4.10793   4.11063   4.11482
 Alpha virt. eigenvalues --    4.12584   4.13740   4.14009   4.15296   4.15662
 Alpha virt. eigenvalues --    4.16127   4.17055   4.18446   4.18611   4.19983
 Alpha virt. eigenvalues --    4.20219   4.22331   4.22651   4.23254   4.23758
 Alpha virt. eigenvalues --    4.24049   4.24388   4.25147   4.26441   4.27932
 Alpha virt. eigenvalues --    4.28152   4.28675   4.29838   4.31118   4.31723
 Alpha virt. eigenvalues --    4.32135   4.32629   4.33573   4.34396   4.35105
 Alpha virt. eigenvalues --    4.36226   4.36598   4.38392   4.39011   4.39450
 Alpha virt. eigenvalues --    4.40584   4.42624   4.43125   4.43556   4.44338
 Alpha virt. eigenvalues --    4.46316   4.46932   4.47444   4.49814   4.50778
 Alpha virt. eigenvalues --    4.51243   4.52197   4.52611   4.52821   4.53838
 Alpha virt. eigenvalues --    4.54347   4.54697   4.56776   4.57843   4.58125
 Alpha virt. eigenvalues --    4.59016   4.61097   4.61608   4.62030   4.63092
 Alpha virt. eigenvalues --    4.63465   4.64683   4.65066   4.65882   4.68045
 Alpha virt. eigenvalues --    4.69392   4.70129   4.70846   4.72028   4.72595
 Alpha virt. eigenvalues --    4.73700   4.74304   4.74852   4.75877   4.77213
 Alpha virt. eigenvalues --    4.78103   4.79243   4.80594   4.80933   4.82686
 Alpha virt. eigenvalues --    4.83378   4.84080   4.85460   4.86464   4.86801
 Alpha virt. eigenvalues --    4.88121   4.89422   4.89577   4.90371   4.92333
 Alpha virt. eigenvalues --    4.93215   4.93809   4.94807   4.95548   4.97084
 Alpha virt. eigenvalues --    4.97156   4.99317   4.99634   5.00886   5.01480
 Alpha virt. eigenvalues --    5.01791   5.03695   5.04888   5.05665   5.06264
 Alpha virt. eigenvalues --    5.08072   5.08713   5.10770   5.11727   5.12102
 Alpha virt. eigenvalues --    5.13161   5.13667   5.14475   5.16964   5.17345
 Alpha virt. eigenvalues --    5.17979   5.21506   5.22826   5.22879   5.23884
 Alpha virt. eigenvalues --    5.24112   5.25112   5.28194   5.30095   5.30480
 Alpha virt. eigenvalues --    5.30950   5.32939   5.34081   5.34970   5.36489
 Alpha virt. eigenvalues --    5.38577   5.40797   5.41525   5.44208   5.45147
 Alpha virt. eigenvalues --    5.46380   5.47244   5.47747   5.49802   5.52044
 Alpha virt. eigenvalues --    5.53386   5.54647   5.54754   5.58594   5.59066
 Alpha virt. eigenvalues --    5.59874   5.60104   5.62141   5.62407   5.64251
 Alpha virt. eigenvalues --    5.65436   5.69609   5.70543   5.71103   5.71738
 Alpha virt. eigenvalues --    5.74355   5.74819   5.76326   5.77108   5.81317
 Alpha virt. eigenvalues --    5.81574   5.82527   5.84407   5.85310   5.87287
 Alpha virt. eigenvalues --    5.90545   5.92465   5.96236   5.97619   5.99049
 Alpha virt. eigenvalues --    5.99825   6.00669   6.02361   6.03686   6.04653
 Alpha virt. eigenvalues --    6.06422   6.07501   6.11213   6.11631   6.14807
 Alpha virt. eigenvalues --    6.15694   6.19068   6.22026   6.25381   6.26611
 Alpha virt. eigenvalues --    6.28161   6.29693   6.34772   6.38083   6.41207
 Alpha virt. eigenvalues --    6.49039   6.54398   6.58185   6.59608   6.60466
 Alpha virt. eigenvalues --    6.61632   6.66701   6.67586   6.68765   6.70852
 Alpha virt. eigenvalues --    6.71948   6.75911   6.81162   6.82635   6.85017
 Alpha virt. eigenvalues --    6.88570   6.89561   6.91008   7.05183   7.06544
 Alpha virt. eigenvalues --    7.11276   7.11835   7.16071   7.21119   7.24131
 Alpha virt. eigenvalues --    7.29902   7.32683   7.45010   7.52548   7.53717
 Alpha virt. eigenvalues --    7.61396   7.78473   7.81190   7.93820   8.45433
 Alpha virt. eigenvalues --    8.72993   8.75848   8.79631   8.81671   8.83083
 Alpha virt. eigenvalues --    8.88690   8.97066   8.98228   9.09281   9.12876
 Alpha virt. eigenvalues --    9.14187   9.14824   9.15068   9.17698   9.20290
 Alpha virt. eigenvalues --    9.20519   9.23268   9.25044   9.29638   9.30191
 Alpha virt. eigenvalues --    9.30510   9.32192   9.35957   9.38312   9.38915
 Alpha virt. eigenvalues --    9.40557   9.47405   9.48984   9.50474   9.53071
 Alpha virt. eigenvalues --    9.59985   9.72003   9.74022   9.79608   9.93937
 Alpha virt. eigenvalues --   10.00696  15.68367  15.78418  15.99658  16.30417
 Alpha virt. eigenvalues --   16.38558  16.47868  17.19335  17.38023  17.64441
 Alpha virt. eigenvalues --   18.05124  18.27148  18.91163  19.30242  19.96748
 Alpha virt. eigenvalues --   20.64148  20.94728  21.42040
          Condensed to atoms (all electrons):
               1          2          3          4          5          6
     1  C    9.071035  -0.238668  -0.775081   0.118945  -0.104066  -0.032955
     2  N   -0.238668   8.418730   0.463924  -0.087275  -0.373679  -0.114149
     3  C   -0.775081   0.463924   6.485404   0.281583   0.141358  -0.306377
     4  O    0.118945  -0.087275   0.281583   8.890850  -0.209722  -0.049882
     5  N   -0.104066  -0.373679   0.141358  -0.209722   7.387094   0.236463
     6  C   -0.032955  -0.114149  -0.306377  -0.049882   0.236463   5.712509
     7  C   -0.016881  -0.037157   0.034965  -0.011485  -0.108149   0.077562
     8  C    0.000834   0.004223  -0.008128   0.000624  -0.007804  -0.021783
     9  C   -1.219515  -0.322324  -0.149714  -0.162512   0.018857  -0.035075
    10  C    0.136802   0.131932  -0.010436   0.043296   0.004368  -0.004716
    11  C   -0.178746  -0.002049   0.001406  -0.006907  -0.002168   0.000204
    12  C   -0.081946   0.129126   0.030568   0.009309   0.016423   0.002671
    13  C   -0.490521  -0.584347   0.006076  -0.000976  -0.013584  -0.009174
    14  H    0.110129   0.186959  -0.150489   0.023844   0.117228   0.002129
    15  H   -0.034859   0.074971  -0.056529   0.005519   0.199674   0.008840
    16  H    0.004046   0.002276  -0.080300   0.002177  -0.021998   0.425447
    17  H   -0.018030   0.012266   0.018063   0.011810  -0.077057   0.306767
    18  H   -0.001222  -0.008738  -0.000075   0.000283  -0.010298   0.025107
    19  H   -0.003998  -0.002462   0.021714   0.002955  -0.052019  -0.025456
    20  H    0.000608  -0.000088   0.003094  -0.000222   0.001893  -0.005062
    21  H   -0.000024  -0.000195   0.000925  -0.000120  -0.000683  -0.003740
    22  H   -0.000109   0.000023   0.003658  -0.000018   0.002670  -0.006406
    23  H   -0.763648  -0.146951  -0.060168  -0.086794   0.025945  -0.028755
    24  C    0.069133  -0.007168   0.000269  -0.001131   0.000998  -0.000291
    25  Cl  -0.064767   0.005308  -0.000981  -0.000062   0.000264  -0.000045
    26  H   -0.044097   0.016482  -0.002155   0.000490   0.001274   0.000016
    27  H   -0.083874  -0.143305   0.007067  -0.003671  -0.026364   0.000528
    28  F    0.008751   0.000749   0.001110  -0.000121   0.000107   0.000111
    29  F    0.013901  -0.005451  -0.000891   0.000658  -0.000296  -0.000100
    30  F   -0.036907   0.009349   0.008983  -0.003869   0.001645   0.000813
               7          8          9         10         11         12
     1  C   -0.016881   0.000834  -1.219515   0.136802  -0.178746  -0.081946
     2  N   -0.037157   0.004223  -0.322324   0.131932  -0.002049   0.129126
     3  C    0.034965  -0.008128  -0.149714  -0.010436   0.001406   0.030568
     4  O   -0.011485   0.000624  -0.162512   0.043296  -0.006907   0.009309
     5  N   -0.108149  -0.007804   0.018857   0.004368  -0.002168   0.016423
     6  C    0.077562  -0.021783  -0.035075  -0.004716   0.000204   0.002671
     7  C    5.504038   0.119028   0.000448   0.000216  -0.000013   0.000042
     8  C    0.119028   5.750991  -0.000367  -0.000003   0.000005  -0.000018
     9  C    0.000448  -0.000367   9.654454  -0.942627   0.239790  -0.308233
    10  C    0.000216  -0.000003  -0.942627   7.671529  -0.484833   0.108056
    11  C   -0.000013   0.000005   0.239790  -0.484833   6.301370  -0.303312
    12  C    0.000042  -0.000018  -0.308233   0.108056  -0.303312   8.001350
    13  C    0.000595  -0.000188  -0.079408  -0.239857   0.105571  -0.440490
    14  H    0.004589  -0.000176  -0.066357   0.003023  -0.002232   0.006037
    15  H   -0.018414   0.003596   0.005490   0.001802  -0.000447   0.001866
    16  H   -0.019821  -0.006032  -0.000297  -0.000556   0.000402  -0.000391
    17  H    0.002057  -0.005925   0.006197  -0.000943   0.000188  -0.000158
    18  H    0.428633  -0.022940  -0.000201   0.000052  -0.000007  -0.000048
    19  H    0.419929  -0.020611   0.000143   0.000070  -0.000061   0.000120
    20  H    0.032017   0.372001  -0.000086   0.000039  -0.000003   0.000008
    21  H   -0.029726   0.446753  -0.000016  -0.000004   0.000000  -0.000001
    22  H    0.029433   0.374467   0.000313  -0.000005  -0.000003   0.000009
    23  H    0.000539  -0.000275   0.532070  -0.537696  -0.081720  -0.023932
    24  C    0.000016  -0.000014  -0.473032  -0.417518  -0.028181   0.080690
    25  Cl   0.000001  -0.000000   0.070480   0.058647  -0.145012  -0.266808
    26  H    0.000009   0.000001   0.007154   0.074544  -0.120336   0.328563
    27  H   -0.000723  -0.000009   0.027358  -0.076853   0.051489  -0.521374
    28  F    0.000003  -0.000000  -0.060383   0.073941  -0.013382   0.004843
    29  F   -0.000001   0.000000  -0.048972   0.061909  -0.018124   0.004616
    30  F    0.000025  -0.000001  -0.004467   0.004095   0.009193  -0.003614
              13         14         15         16         17         18
     1  C   -0.490521   0.110129  -0.034859   0.004046  -0.018030  -0.001222
     2  N   -0.584347   0.186959   0.074971   0.002276   0.012266  -0.008738
     3  C    0.006076  -0.150489  -0.056529  -0.080300   0.018063  -0.000075
     4  O   -0.000976   0.023844   0.005519   0.002177   0.011810   0.000283
     5  N   -0.013584   0.117228   0.199674  -0.021998  -0.077057  -0.010298
     6  C   -0.009174   0.002129   0.008840   0.425447   0.306767   0.025107
     7  C    0.000595   0.004589  -0.018414  -0.019821   0.002057   0.428633
     8  C   -0.000188  -0.000176   0.003596  -0.006032  -0.005925  -0.022940
     9  C   -0.079408  -0.066357   0.005490  -0.000297   0.006197  -0.000201
    10  C   -0.239857   0.003023   0.001802  -0.000556  -0.000943   0.000052
    11  C    0.105571  -0.002232  -0.000447   0.000402   0.000188  -0.000007
    12  C   -0.440490   0.006037   0.001866  -0.000391  -0.000158  -0.000048
    13  C    8.075255   0.021477  -0.003082  -0.000395  -0.000228  -0.000127
    14  H    0.021477   0.851057  -0.027577   0.000559  -0.000555  -0.000087
    15  H   -0.003082  -0.027577   0.769308  -0.009630   0.028318  -0.008777
    16  H   -0.000395   0.000559  -0.009630   0.394787   0.030495   0.003341
    17  H   -0.000228  -0.000555   0.028318   0.030495   0.412062  -0.006071
    18  H   -0.000127  -0.000087  -0.008777   0.003341  -0.006071   0.367512
    19  H    0.000132  -0.000043   0.013148  -0.013022   0.013854   0.000537
    20  H    0.000018  -0.000015  -0.000113  -0.007036  -0.011179   0.002777
    21  H   -0.000018   0.000007   0.000525   0.000685   0.000551  -0.003365
    22  H    0.000022  -0.000071  -0.000100  -0.009106  -0.007594   0.000708
    23  H   -0.040825  -0.034131   0.001254  -0.004913  -0.001621  -0.000042
    24  C    0.002791  -0.000299  -0.000020  -0.000253  -0.000042   0.000001
    25  Cl   0.070341  -0.000176  -0.000048  -0.000007  -0.000003   0.000001
    26  H   -0.182819  -0.001463   0.000129  -0.000022  -0.000039   0.000001
    27  H    0.170847  -0.068421  -0.003051   0.000372   0.000145  -0.000136
    28  F   -0.004725   0.000008  -0.000018   0.000000   0.000001   0.000001
    29  F   -0.002692   0.000021   0.000029  -0.000004  -0.000028  -0.000001
    30  F   -0.002244   0.000037  -0.000021   0.000071   0.000062   0.000000
              19         20         21         22         23         24
     1  C   -0.003998   0.000608  -0.000024  -0.000109  -0.763648   0.069133
     2  N   -0.002462  -0.000088  -0.000195   0.000023  -0.146951  -0.007168
     3  C    0.021714   0.003094   0.000925   0.003658  -0.060168   0.000269
     4  O    0.002955  -0.000222  -0.000120  -0.000018  -0.086794  -0.001131
     5  N   -0.052019   0.001893  -0.000683   0.002670   0.025945   0.000998
     6  C   -0.025456  -0.005062  -0.003740  -0.006406  -0.028755  -0.000291
     7  C    0.419929   0.032017  -0.029726   0.029433   0.000539   0.000016
     8  C   -0.020611   0.372001   0.446753   0.374467  -0.000275  -0.000014
     9  C    0.000143  -0.000086  -0.000016   0.000313   0.532070  -0.473032
    10  C    0.000070   0.000039  -0.000004  -0.000005  -0.537696  -0.417518
    11  C   -0.000061  -0.000003   0.000000  -0.000003  -0.081720  -0.028181
    12  C    0.000120   0.000008  -0.000001   0.000009  -0.023932   0.080690
    13  C    0.000132   0.000018  -0.000018   0.000022  -0.040825   0.002791
    14  H   -0.000043  -0.000015   0.000007  -0.000071  -0.034131  -0.000299
    15  H    0.013148  -0.000113   0.000525  -0.000100   0.001254  -0.000020
    16  H   -0.013022  -0.007036   0.000685  -0.009106  -0.004913  -0.000253
    17  H    0.013854  -0.011179   0.000551  -0.007594  -0.001621  -0.000042
    18  H    0.000537   0.002777  -0.003365   0.000708  -0.000042   0.000001
    19  H    0.394627  -0.002539   0.001262  -0.001600   0.000101   0.000005
    20  H   -0.002539   0.316947  -0.001291   0.023299   0.000065   0.000001
    21  H    0.001262  -0.001291   0.312130  -0.000639  -0.000015  -0.000001
    22  H   -0.001600   0.023299  -0.000639   0.313221   0.000122   0.000006
    23  H    0.000101   0.000065  -0.000015   0.000122   1.920040  -0.112928
    24  C    0.000005   0.000001  -0.000001   0.000006  -0.112928   5.133381
    25  Cl  -0.000001   0.000000  -0.000000   0.000000  -0.000738  -0.052459
    26  H    0.000001   0.000001  -0.000000   0.000001   0.002105   0.010423
    27  H   -0.000003   0.000001   0.000003  -0.000017   0.003274  -0.006352
    28  F    0.000000  -0.000000  -0.000000   0.000000  -0.004857   0.180599
    29  F   -0.000000   0.000000  -0.000000   0.000000   0.000816   0.185737
    30  F    0.000006  -0.000000   0.000000  -0.000002  -0.012844   0.200693
              25         26         27         28         29         30
     1  C   -0.064767  -0.044097  -0.083874   0.008751   0.013901  -0.036907
     2  N    0.005308   0.016482  -0.143305   0.000749  -0.005451   0.009349
     3  C   -0.000981  -0.002155   0.007067   0.001110  -0.000891   0.008983
     4  O   -0.000062   0.000490  -0.003671  -0.000121   0.000658  -0.003869
     5  N    0.000264   0.001274  -0.026364   0.000107  -0.000296   0.001645
     6  C   -0.000045   0.000016   0.000528   0.000111  -0.000100   0.000813
     7  C    0.000001   0.000009  -0.000723   0.000003  -0.000001   0.000025
     8  C   -0.000000   0.000001  -0.000009  -0.000000   0.000000  -0.000001
     9  C    0.070480   0.007154   0.027358  -0.060383  -0.048972  -0.004467
    10  C    0.058647   0.074544  -0.076853   0.073941   0.061909   0.004095
    11  C   -0.145012  -0.120336   0.051489  -0.013382  -0.018124   0.009193
    12  C   -0.266808   0.328563  -0.521374   0.004843   0.004616  -0.003614
    13  C    0.070341  -0.182819   0.170847  -0.004725  -0.002692  -0.002244
    14  H   -0.000176  -0.001463  -0.068421   0.000008   0.000021   0.000037
    15  H   -0.000048   0.000129  -0.003051  -0.000018   0.000029  -0.000021
    16  H   -0.000007  -0.000022   0.000372   0.000000  -0.000004   0.000071
    17  H   -0.000003  -0.000039   0.000145   0.000001  -0.000028   0.000062
    18  H    0.000001   0.000001  -0.000136   0.000001  -0.000001   0.000000
    19  H   -0.000001   0.000001  -0.000003   0.000000  -0.000000   0.000006
    20  H    0.000000   0.000001   0.000001  -0.000000   0.000000  -0.000000
    21  H   -0.000000  -0.000000   0.000003  -0.000000  -0.000000   0.000000
    22  H    0.000000   0.000001  -0.000017   0.000000   0.000000  -0.000002
    23  H   -0.000738   0.002105   0.003274  -0.004857   0.000816  -0.012844
    24  C   -0.052459   0.010423  -0.006352   0.180599   0.185737   0.200693
    25  Cl  17.777041   0.033750  -0.006719  -0.012546  -0.012738   0.010491
    26  H    0.033750   0.602395  -0.122334  -0.001167  -0.001014  -0.000151
    27  H   -0.006719  -0.122334   1.333744  -0.000357  -0.000370  -0.000023
    28  F   -0.012546  -0.001167  -0.000357   9.320471  -0.016497  -0.069340
    29  F   -0.012738  -0.001014  -0.000370  -0.016497   9.319507  -0.070142
    30  F    0.010491  -0.000151  -0.000023  -0.069340  -0.070142   9.324035
 Mulliken charges:
               1
     1  C    0.655728
     2  N   -0.382312
     3  C    0.091157
     4  O   -0.767574
     5  N   -0.148373
     6  C   -0.155203
     7  C   -0.411774
     8  C   -0.978249
     9  C   -0.689167
    10  C    0.341724
    11  C    0.677918
    12  C   -0.773971
    13  C   -0.357425
    14  H    0.024987
    15  H    0.048214
    16  H    0.309124
    17  H    0.286635
    18  H    0.233181
    19  H    0.253210
    20  H    0.274864
    21  H    0.276997
    22  H    0.277718
    23  H    0.456523
    24  C    1.234947
    25  Cl  -0.463218
    26  H    0.398260
    27  H    0.469127
    28  F   -0.407303
    29  F   -0.409871
    30  F   -0.365874
 Sum of Mulliken charges =  -0.00000
 Mulliken charges with hydrogens summed into heavy atoms:
               1
     1  C    0.655728
     2  N   -0.357325
     3  C    0.091157
     4  O   -0.767574
     5  N   -0.100159
     6  C    0.440557
     7  C    0.074616
     8  C   -0.148670
     9  C   -0.232645
    10  C    0.341724
    11  C    0.677918
    12  C   -0.375711
    13  C    0.111702
    24  C    1.234947
    25  Cl  -0.463218
    28  F   -0.407303
    29  F   -0.409871
    30  F   -0.365874
 Electronic spatial extent (au):  <R**2>=           8112.0040
 Charge=             -0.0000 electrons
 Dipole moment (field-independent basis, Debye):
    X=             -5.8527    Y=             -5.3977    Z=              1.0340  Tot=              8.0286
 Quadrupole moment (field-independent basis, Debye-Ang):
   XX=           -103.4301   YY=           -105.8546   ZZ=           -113.8721
   XY=              2.6362   XZ=             -3.5215   YZ=             -0.4608
 Traceless Quadrupole moment (field-independent basis, Debye-Ang):
   XX=              4.2888   YY=              1.8643   ZZ=             -6.1532
   XY=              2.6362   XZ=             -3.5215   YZ=             -0.4608
 Octapole moment (field-independent basis, Debye-Ang**2):
  XXX=            -97.0789  YYY=             -3.1450  ZZZ=              0.1047  XYY=              7.3784
  XXY=            -13.0864  XXZ=              9.6517  XZZ=              7.2083  YZZ=             16.0963
  YYZ=              2.3278  XYZ=              4.1341
 Hexadecapole moment (field-independent basis, Debye-Ang**3):
 XXXX=          -8484.8526 YYYY=          -1186.4102 ZZZZ=           -209.5944 XXXY=            102.7513
 XXXZ=            -32.3643 YYYX=             93.5820 YYYZ=             -1.6861 ZZZX=              1.5557
 ZZZY=              0.0279 XXYY=          -1691.2964 XXZZ=          -1536.0050 YYZZ=           -257.4779
 XXYZ=            -18.3182 YYXZ=            -11.1301 ZZXY=             29.8219
 N-N= 1.445646376066D+03 E-N=-6.119500947869D+03  KE= 1.364301504276D+03
 Unable to Open any file for archive entry.
 1\1\GINC-GADI-CPU-CLX-1823\SP\RDSDPBEP86-FC\Aug-CC-pVTZ\C11H12Cl1F3N2O
 1\HIO507\09-Sep-2020\0\\# DSDPBEP86/AUG-cc-PVTZ SCF=Tight INT(grid=ult
 rafine) MaxDisk=60000MB\\29.DSDPBEP86_AUG-cc-PVTZ\\0,1\C,0,-6.20092316
 37,1.1990203291,0.6560703402\N,0,-4.9142114676,0.6459745048,0.64909246
 09\C,0,-3.7212946558,1.3045173835,0.3685412452\O,0,-3.6480555079,2.483
 4609009,0.1015979647\N,0,-2.6215149277,0.4852927514,0.4523941644\C,0,-
 1.3212566893,1.0160004795,0.0609797986\C,0,-0.2179881904,0.0273533668,
 0.407867626\C,0,1.1560335356,0.5626239616,0.0173066045\C,0,-6.50363955
 06,2.4537168803,0.120475415\C,0,-7.8141412702,2.9187704705,0.136687199
 3\C,0,-8.8361418833,2.1438200575,0.6825167252\C,0,-8.5369664744,0.8980
 357944,1.2152670638\C,0,-7.2333003554,0.4324190255,1.2026408709\H,0,-4
 .8375477155,-0.2673863287,1.070546771\H,0,-2.7588539891,-0.5051818099,
 0.3100634237\H,0,-1.1749202459,1.9567526753,0.5939704971\H,0,-1.305776
 7869,1.2514197699,-1.0098178583\H,0,-0.4005045032,-0.9230921437,-0.107
 7813095\H,0,-0.2525923503,-0.1831702818,1.4808797339\H,0,1.2131551346,
 0.7584071106,-1.056081995\H,0,1.9440043725,-0.1489565459,0.2681185016\
 H,0,1.3740347313,1.4983193806,0.5373684005\H,0,-5.7199573762,3.0661907
 029,-0.2970930212\C,0,-8.1075334885,4.2777464305,-0.4514059011\Cl,0,-1
 0.4860670074,2.6888579962,0.7210369835\H,0,-9.3301565174,0.2966433893,
 1.6414681285\H,0,-7.016940504,-0.544307512,1.6245592595\F,0,-8.9756300
 916,4.2012870317,-1.4696151085\F,0,-8.6324983511,5.1107595171,0.456939
 7779\F,0,-7.0023947108,4.8632747122,-0.9255337623\\Version=ES64L-G16Re
 vC.01\State=1-A\HF=-1367.7654617\MP2=-1369.4618054\RMSD=9.513e-09\PG=C
 01 [X(C11H12Cl1F3N2O1)]\\@
 The archive entry for this job was punched.


 The earth never tires,
 The earth is rude, silent, incomprehensible at first,
 Nature is rude and incomprehensible at first,
 Be not discouraged, keep on,
 There are divine things well envelop'd,
 I swear to you there are divine things more beautiful than words can tell.
                                 -- Walt Whitman
 Job cpu time:       1 days  1 hours 26 minutes 39.4 seconds.
 Elapsed time:       0 days  4 hours 15 minutes 17.6 seconds.
 File lengths (MBytes):  RWF=    635 Int=      0 D2E=      0 Chk=     81 Scr=      1
 Normal termination of Gaussian 16 at Wed Sep  9 20:35:45 2020.
