 Entering Gaussian System, Link 0=/apps/gaussian/g09e01/g09/g09
 Initial command:
 /apps/gaussian/g09e01/g09/l1.exe "/jobfs/local/3578928.r-man2/Gau-12977.inp" -scrdir="/jobfs/local/3578928.r-man2/"
 Entering Link 1 = /apps/gaussian/g09e01/g09/l1.exe PID=     12978.
  
 Copyright (c) 1988,1990,1992,1993,1995,1998,2003,2009,2015,
            Gaussian, Inc.  All Rights Reserved.
  
 This is part of the Gaussian(R) 09 program.  It is based on
 the Gaussian(R) 03 system (copyright 2003, Gaussian, Inc.),
 the Gaussian(R) 98 system (copyright 1998, Gaussian, Inc.),
 the Gaussian(R) 94 system (copyright 1995, Gaussian, Inc.),
 the Gaussian 92(TM) system (copyright 1992, Gaussian, Inc.),
 the Gaussian 90(TM) system (copyright 1990, Gaussian, Inc.),
 the Gaussian 88(TM) system (copyright 1988, Gaussian, Inc.),
 the Gaussian 86(TM) system (copyright 1986, Carnegie Mellon
 University), and the Gaussian 82(TM) system (copyright 1983,
 Carnegie Mellon University). Gaussian is a federally registered
 trademark of Gaussian, Inc.
  
 This software contains proprietary and confidential information,
 including trade secrets, belonging to Gaussian, Inc.
  
 This software is provided under written license and may be
 used, copied, transmitted, or stored only in accord with that
 written license.
  
 The following legend is applicable only to US Government
 contracts under FAR:
  
                    RESTRICTED RIGHTS LEGEND
  
 Use, reproduction and disclosure by the US Government is
 subject to restrictions as set forth in subparagraphs (a)
 and (c) of the Commercial Computer Software - Restricted
 Rights clause in FAR 52.227-19.
  
 Gaussian, Inc.
 340 Quinnipiac St., Bldg. 40, Wallingford CT 06492
  
  
 ---------------------------------------------------------------
 Warning -- This program may not be used in any manner that
 competes with the business of Gaussian, Inc. or will provide
 assistance to any competitor of Gaussian, Inc.  The licensee
 of this program is prohibited from giving any competitor of
 Gaussian, Inc. access to this program.  By using this program,
 the user acknowledges that Gaussian, Inc. is engaged in the
 business of creating and licensing software in the field of
 computational chemistry and represents and warrants to the
 licensee that it is not a competitor of Gaussian, Inc. and that
 it will not use this program in any manner prohibited above.
 ---------------------------------------------------------------
  

 Cite this work as:
 Gaussian 09, Revision E.01,
 M. J. Frisch, G. W. Trucks, H. B. Schlegel, G. E. Scuseria, 
 M. A. Robb, J. R. Cheeseman, G. Scalmani, V. Barone, B. Mennucci, 
 G. A. Petersson, H. Nakatsuji, M. Caricato, X. Li, H. P. Hratchian, 
 A. F. Izmaylov, J. Bloino, G. Zheng, J. L. Sonnenberg, M. Hada, 
 M. Ehara, K. Toyota, R. Fukuda, J. Hasegawa, M. Ishida, T. Nakajima, 
 Y. Honda, O. Kitao, H. Nakai, T. Vreven, J. A. Montgomery, Jr., 
 J. E. Peralta, F. Ogliaro, M. Bearpark, J. J. Heyd, E. Brothers, 
 K. N. Kudin, V. N. Staroverov, T. Keith, R. Kobayashi, J. Normand, 
 K. Raghavachari, A. Rendell, J. C. Burant, S. S. Iyengar, J. Tomasi, 
 M. Cossi, N. Rega, J. M. Millam, M. Klene, J. E. Knox, J. B. Cross, 
 V. Bakken, C. Adamo, J. Jaramillo, R. Gomperts, R. E. Stratmann, 
 O. Yazyev, A. J. Austin, R. Cammi, C. Pomelli, J. W. Ochterski, 
 R. L. Martin, K. Morokuma, V. G. Zakrzewski, G. A. Voth, 
 P. Salvador, J. J. Dannenberg, S. Dapprich, A. D. Daniels, 
 O. Farkas, J. B. Foresman, J. V. Ortiz, J. Cioslowski, 
 and D. J. Fox, Gaussian, Inc., Wallingford CT, 2013.
 
 ******************************************
 Gaussian 09:  ES64L-G09RevE.01 30-Nov-2015
                14-Nov-2019 
 ******************************************
 %chk=29.M062X_6-311pGd_opt_GD3.chk
 %mem=196608000
 %nproc=4
 Will use up to    4 processors via shared memory.
 ----------------------------------------------------------------------
 # M062X/6-311+G* SCF=Tight INT(grid=ultrafine) OPT IOP(2/17=4) Empiric
 alDispersion=GD3 maxdisk=2147483648
 ----------------------------------------------------------------------
 1/14=-1,18=20,19=15,26=4,38=1/1,3;
 2/9=110,12=2,17=4,18=5,40=1/2;
 3/5=4,6=6,7=11,11=2,16=1,25=1,30=1,71=1,74=-55,75=-5,124=31/1,2,3;
 4//1;
 5/5=2,32=2,38=5/2;
 6/7=2,8=2,9=2,10=2,28=1/1;
 7//1,2,3,16;
 1/14=-1,18=20,19=15,26=4/3(2);
 2/9=110,17=4/2;
 99//99;
 2/9=110,17=4/2;
 3/5=4,6=6,7=11,11=2,16=1,25=1,30=1,71=1,74=-55,75=-5,124=31/1,2,3;
 4/5=5,16=3,69=1/1;
 5/5=2,32=2,38=5/2;
 7//1,2,3,16;
 1/14=-1,18=20,19=15,26=4/3(-5);
 2/9=110,17=4/2;
 6/7=2,8=2,9=2,10=2,19=2,28=1/1;
 99/9=1/99;
 -------------------------
 29.M062X_6-311pGd_opt_GD3
 -------------------------
 Symbolic Z-matrix:
 Charge =  0 Multiplicity = 1
 C                    -6.20092   1.19902   0.65607 
 N                    -4.91421   0.64597   0.64909 
 C                    -3.72129   1.30452   0.36854 
 O                    -3.64806   2.48346   0.1016 
 N                    -2.62151   0.48529   0.45239 
 C                    -1.32126   1.016     0.06098 
 C                    -0.21799   0.02735   0.40787 
 C                     1.15603   0.56262   0.01731 
 C                    -6.50364   2.45372   0.12048 
 C                    -7.81414   2.91877   0.13669 
 C                    -8.83614   2.14382   0.68252 
 C                    -8.53697   0.89804   1.21527 
 C                    -7.2333    0.43242   1.20264 
 H                    -4.83755  -0.26739   1.07055 
 H                    -2.75885  -0.50518   0.31006 
 H                    -1.17492   1.95675   0.59397 
 H                    -1.30578   1.25142  -1.00982 
 H                    -0.4005   -0.92309  -0.10778 
 H                    -0.25259  -0.18317   1.48088 
 H                     1.21316   0.75841  -1.05608 
 H                     1.944    -0.14896   0.26812 
 H                     1.37403   1.49832   0.53737 
 H                    -5.71996   3.06619  -0.29709 
 C                    -8.10753   4.27775  -0.45141 
 Cl                   -10.48607   2.68886   0.72104 
 H                    -9.33016   0.29664   1.64147 
 H                    -7.01694  -0.54431   1.62456 
 F                    -8.97563   4.20129  -1.46962 
 F                    -8.6325    5.11076   0.45694 
 F                    -7.00239   4.86327  -0.92553 
 

 GradGradGradGradGradGradGradGradGradGradGradGradGradGradGradGradGradGrad
 Berny optimization.
 Initialization pass.
                           ----------------------------
                           !    Initial Parameters    !
                           ! (Angstroms and Degrees)  !
 --------------------------                            --------------------------
 ! Name  Definition              Value          Derivative Info.                !
 --------------------------------------------------------------------------------
 ! R1    R(1,2)                  1.4005         estimate D2E/DX2                !
 ! R2    R(1,9)                  1.3974         estimate D2E/DX2                !
 ! R3    R(1,13)                 1.3972         estimate D2E/DX2                !
 ! R4    R(2,3)                  1.3912         estimate D2E/DX2                !
 ! R5    R(2,14)                 1.0088         estimate D2E/DX2                !
 ! R6    R(3,4)                  1.211          estimate D2E/DX2                !
 ! R7    R(3,5)                  1.3739         estimate D2E/DX2                !
 ! R8    R(5,6)                  1.4579         estimate D2E/DX2                !
 ! R9    R(5,15)                 1.01           estimate D2E/DX2                !
 ! R10   R(6,7)                  1.5215         estimate D2E/DX2                !
 ! R11   R(6,16)                 1.0911         estimate D2E/DX2                !
 ! R12   R(6,17)                 1.0965         estimate D2E/DX2                !
 ! R13   R(7,8)                  1.5254         estimate D2E/DX2                !
 ! R14   R(7,18)                 1.0966         estimate D2E/DX2                !
 ! R15   R(7,19)                 1.094          estimate D2E/DX2                !
 ! R16   R(8,20)                 1.0926         estimate D2E/DX2                !
 ! R17   R(8,21)                 1.0909         estimate D2E/DX2                !
 ! R18   R(8,22)                 1.0925         estimate D2E/DX2                !
 ! R19   R(9,10)                 1.3907         estimate D2E/DX2                !
 ! R20   R(9,23)                 1.0787         estimate D2E/DX2                !
 ! R21   R(10,11)                1.3939         estimate D2E/DX2                !
 ! R22   R(10,24)                1.5096         estimate D2E/DX2                !
 ! R23   R(11,12)                1.3876         estimate D2E/DX2                !
 ! R24   R(11,25)                1.738          estimate D2E/DX2                !
 ! R25   R(12,13)                1.3844         estimate D2E/DX2                !
 ! R26   R(12,26)                1.0828         estimate D2E/DX2                !
 ! R27   R(13,27)                1.0857         estimate D2E/DX2                !
 ! R28   R(24,28)                1.3402         estimate D2E/DX2                !
 ! R29   R(24,29)                1.3396         estimate D2E/DX2                !
 ! R30   R(24,30)                1.3375         estimate D2E/DX2                !
 ! A1    A(2,1,9)              123.4809         estimate D2E/DX2                !
 ! A2    A(2,1,13)             117.6532         estimate D2E/DX2                !
 ! A3    A(9,1,13)             118.8487         estimate D2E/DX2                !
 ! A4    A(1,2,3)              127.0033         estimate D2E/DX2                !
 ! A5    A(1,2,14)             115.1662         estimate D2E/DX2                !
 ! A6    A(3,2,14)             116.5933         estimate D2E/DX2                !
 ! A7    A(2,3,4)              123.8584         estimate D2E/DX2                !
 ! A8    A(2,3,5)              113.0677         estimate D2E/DX2                !
 ! A9    A(4,3,5)              123.0603         estimate D2E/DX2                !
 ! A10   A(3,5,6)              118.7158         estimate D2E/DX2                !
 ! A11   A(3,5,15)             117.8577         estimate D2E/DX2                !
 ! A12   A(6,5,15)             116.1299         estimate D2E/DX2                !
 ! A13   A(5,6,7)              110.4238         estimate D2E/DX2                !
 ! A14   A(5,6,16)             107.5972         estimate D2E/DX2                !
 ! A15   A(5,6,17)             110.6668         estimate D2E/DX2                !
 ! A16   A(7,6,16)             110.5867         estimate D2E/DX2                !
 ! A17   A(7,6,17)             110.6051         estimate D2E/DX2                !
 ! A18   A(16,6,17)            106.86           estimate D2E/DX2                !
 ! A19   A(6,7,8)              111.516          estimate D2E/DX2                !
 ! A20   A(6,7,18)             109.5898         estimate D2E/DX2                !
 ! A21   A(6,7,19)             109.009          estimate D2E/DX2                !
 ! A22   A(8,7,18)             109.4904         estimate D2E/DX2                !
 ! A23   A(8,7,19)             110.3118         estimate D2E/DX2                !
 ! A24   A(18,7,19)            106.8068         estimate D2E/DX2                !
 ! A25   A(7,8,20)             111.1923         estimate D2E/DX2                !
 ! A26   A(7,8,21)             111.2753         estimate D2E/DX2                !
 ! A27   A(7,8,22)             111.0016         estimate D2E/DX2                !
 ! A28   A(20,8,21)            107.7571         estimate D2E/DX2                !
 ! A29   A(20,8,22)            107.6838         estimate D2E/DX2                !
 ! A30   A(21,8,22)            107.7631         estimate D2E/DX2                !
 ! A31   A(1,9,10)             119.9953         estimate D2E/DX2                !
 ! A32   A(1,9,23)             120.0514         estimate D2E/DX2                !
 ! A33   A(10,9,23)            119.9507         estimate D2E/DX2                !
 ! A34   A(9,10,11)            120.6356         estimate D2E/DX2                !
 ! A35   A(9,10,24)            118.6636         estimate D2E/DX2                !
 ! A36   A(11,10,24)           120.7007         estimate D2E/DX2                !
 ! A37   A(10,11,12)           119.4337         estimate D2E/DX2                !
 ! A38   A(10,11,25)           122.0294         estimate D2E/DX2                !
 ! A39   A(12,11,25)           118.5369         estimate D2E/DX2                !
 ! A40   A(11,12,13)           120.1001         estimate D2E/DX2                !
 ! A41   A(11,12,26)           119.4613         estimate D2E/DX2                !
 ! A42   A(13,12,26)           120.4384         estimate D2E/DX2                !
 ! A43   A(1,13,12)            120.9864         estimate D2E/DX2                !
 ! A44   A(1,13,27)            119.891          estimate D2E/DX2                !
 ! A45   A(12,13,27)           119.1226         estimate D2E/DX2                !
 ! A46   A(10,24,28)           111.747          estimate D2E/DX2                !
 ! A47   A(10,24,29)           111.8269         estimate D2E/DX2                !
 ! A48   A(10,24,30)           111.8152         estimate D2E/DX2                !
 ! A49   A(28,24,29)           107.265          estimate D2E/DX2                !
 ! A50   A(28,24,30)           106.909          estimate D2E/DX2                !
 ! A51   A(29,24,30)           106.9737         estimate D2E/DX2                !
 ! D1    D(9,1,2,3)             13.1651         estimate D2E/DX2                !
 ! D2    D(9,1,2,14)           179.9288         estimate D2E/DX2                !
 ! D3    D(13,1,2,3)          -168.3628         estimate D2E/DX2                !
 ! D4    D(13,1,2,14)           -1.5991         estimate D2E/DX2                !
 ! D5    D(2,1,9,10)           178.4051         estimate D2E/DX2                !
 ! D6    D(2,1,9,23)            -2.1864         estimate D2E/DX2                !
 ! D7    D(13,1,9,10)           -0.0497         estimate D2E/DX2                !
 ! D8    D(13,1,9,23)          179.3587         estimate D2E/DX2                !
 ! D9    D(2,1,13,12)         -178.4045         estimate D2E/DX2                !
 ! D10   D(2,1,13,27)            1.5368         estimate D2E/DX2                !
 ! D11   D(9,1,13,12)            0.1405         estimate D2E/DX2                !
 ! D12   D(9,1,13,27)         -179.9182         estimate D2E/DX2                !
 ! D13   D(1,2,3,4)              0.9214         estimate D2E/DX2                !
 ! D14   D(1,2,3,5)            179.6168         estimate D2E/DX2                !
 ! D15   D(14,2,3,4)          -165.6783         estimate D2E/DX2                !
 ! D16   D(14,2,3,5)            13.017          estimate D2E/DX2                !
 ! D17   D(2,3,5,6)            174.3308         estimate D2E/DX2                !
 ! D18   D(2,3,5,15)            25.2892         estimate D2E/DX2                !
 ! D19   D(4,3,5,6)             -6.9619         estimate D2E/DX2                !
 ! D20   D(4,3,5,15)          -156.0035         estimate D2E/DX2                !
 ! D21   D(3,5,6,7)            172.1232         estimate D2E/DX2                !
 ! D22   D(3,5,6,16)            51.3438         estimate D2E/DX2                !
 ! D23   D(3,5,6,17)           -65.069          estimate D2E/DX2                !
 ! D24   D(15,5,6,7)           -38.3126         estimate D2E/DX2                !
 ! D25   D(15,5,6,16)         -159.092          estimate D2E/DX2                !
 ! D26   D(15,5,6,17)           84.4951         estimate D2E/DX2                !
 ! D27   D(5,6,7,8)           -179.6001         estimate D2E/DX2                !
 ! D28   D(5,6,7,18)            59.0021         estimate D2E/DX2                !
 ! D29   D(5,6,7,19)           -57.5631         estimate D2E/DX2                !
 ! D30   D(16,6,7,8)           -60.6219         estimate D2E/DX2                !
 ! D31   D(16,6,7,18)          177.9803         estimate D2E/DX2                !
 ! D32   D(16,6,7,19)           61.4151         estimate D2E/DX2                !
 ! D33   D(17,6,7,8)            57.5561         estimate D2E/DX2                !
 ! D34   D(17,6,7,18)          -63.8417         estimate D2E/DX2                !
 ! D35   D(17,6,7,19)          179.5931         estimate D2E/DX2                !
 ! D36   D(6,7,8,20)           -59.8936         estimate D2E/DX2                !
 ! D37   D(6,7,8,21)           179.974          estimate D2E/DX2                !
 ! D38   D(6,7,8,22)            59.9624         estimate D2E/DX2                !
 ! D39   D(18,7,8,20)           61.5619         estimate D2E/DX2                !
 ! D40   D(18,7,8,21)          -58.5704         estimate D2E/DX2                !
 ! D41   D(18,7,8,22)         -178.582          estimate D2E/DX2                !
 ! D42   D(19,7,8,20)          178.8242         estimate D2E/DX2                !
 ! D43   D(19,7,8,21)           58.6919         estimate D2E/DX2                !
 ! D44   D(19,7,8,22)          -61.3198         estimate D2E/DX2                !
 ! D45   D(1,9,10,11)           -0.069          estimate D2E/DX2                !
 ! D46   D(1,9,10,24)         -179.9303         estimate D2E/DX2                !
 ! D47   D(23,9,10,11)        -179.4781         estimate D2E/DX2                !
 ! D48   D(23,9,10,24)           0.6607         estimate D2E/DX2                !
 ! D49   D(9,10,11,12)           0.0988         estimate D2E/DX2                !
 ! D50   D(9,10,11,25)        -179.9702         estimate D2E/DX2                !
 ! D51   D(24,10,11,12)        179.9572         estimate D2E/DX2                !
 ! D52   D(24,10,11,25)         -0.1119         estimate D2E/DX2                !
 ! D53   D(9,10,24,28)         119.7756         estimate D2E/DX2                !
 ! D54   D(9,10,24,29)        -119.961          estimate D2E/DX2                !
 ! D55   D(9,10,24,30)          -0.0237         estimate D2E/DX2                !
 ! D56   D(11,10,24,28)        -60.0855         estimate D2E/DX2                !
 ! D57   D(11,10,24,29)         60.1779         estimate D2E/DX2                !
 ! D58   D(11,10,24,30)       -179.8848         estimate D2E/DX2                !
 ! D59   D(10,11,12,13)         -0.0086         estimate D2E/DX2                !
 ! D60   D(10,11,12,26)        179.8587         estimate D2E/DX2                !
 ! D61   D(25,11,12,13)       -179.942          estimate D2E/DX2                !
 ! D62   D(25,11,12,26)         -0.0747         estimate D2E/DX2                !
 ! D63   D(11,12,13,1)          -0.112          estimate D2E/DX2                !
 ! D64   D(11,12,13,27)        179.9463         estimate D2E/DX2                !
 ! D65   D(26,12,13,1)        -179.978          estimate D2E/DX2                !
 ! D66   D(26,12,13,27)          0.0803         estimate D2E/DX2                !
 --------------------------------------------------------------------------------
 Trust Radius=3.00D-01 FncErr=1.00D-07 GrdErr=1.00D-06
 Number of steps in this run=    157 maximum allowed number of steps=    180.
 GradGradGradGradGradGradGradGradGradGradGradGradGradGradGradGradGradGrad

                          Input orientation:                          
 ---------------------------------------------------------------------
 Center     Atomic      Atomic             Coordinates (Angstroms)
 Number     Number       Type             X           Y           Z
 ---------------------------------------------------------------------
      1          6           0       -6.200923    1.199020    0.656070
      2          7           0       -4.914211    0.645975    0.649092
      3          6           0       -3.721295    1.304517    0.368541
      4          8           0       -3.648056    2.483461    0.101598
      5          7           0       -2.621515    0.485293    0.452394
      6          6           0       -1.321257    1.016000    0.060980
      7          6           0       -0.217988    0.027353    0.407868
      8          6           0        1.156034    0.562624    0.017307
      9          6           0       -6.503640    2.453717    0.120475
     10          6           0       -7.814141    2.918770    0.136687
     11          6           0       -8.836142    2.143820    0.682517
     12          6           0       -8.536966    0.898036    1.215267
     13          6           0       -7.233300    0.432419    1.202641
     14          1           0       -4.837548   -0.267386    1.070547
     15          1           0       -2.758854   -0.505182    0.310063
     16          1           0       -1.174920    1.956753    0.593970
     17          1           0       -1.305777    1.251420   -1.009818
     18          1           0       -0.400505   -0.923092   -0.107781
     19          1           0       -0.252592   -0.183170    1.480880
     20          1           0        1.213155    0.758407   -1.056082
     21          1           0        1.944004   -0.148957    0.268119
     22          1           0        1.374035    1.498319    0.537368
     23          1           0       -5.719957    3.066191   -0.297093
     24          6           0       -8.107533    4.277746   -0.451406
     25         17           0      -10.486067    2.688858    0.721037
     26          1           0       -9.330157    0.296643    1.641468
     27          1           0       -7.016941   -0.544308    1.624559
     28          9           0       -8.975630    4.201287   -1.469615
     29          9           0       -8.632498    5.110760    0.456940
     30          9           0       -7.002395    4.863275   -0.925534
 ---------------------------------------------------------------------
                    Distance matrix (angstroms):
                    1          2          3          4          5
     1  C    0.000000
     2  N    1.400548   0.000000
     3  C    2.498472   1.391200   0.000000
     4  O    2.911075   2.297663   1.211004   0.000000
     5  N    3.655551   2.306722   1.373927   2.273658   0.000000
     6  C    4.919225   3.659525   2.436805   2.751197   1.457919
     7  C    6.101632   4.742931   3.729055   4.229850   2.447168
     8  C    7.412006   6.103603   4.945918   5.174552   3.803308
     9  C    1.397413   2.464478   3.020536   2.855801   4.365290
    10  C    2.414492   3.719913   4.405787   4.188913   5.743244
    11  C    2.799593   4.198356   5.192752   5.231545   6.436246
    12  C    2.420824   3.675383   4.906411   5.258829   5.978704
    13  C    1.397219   2.393783   3.713551   4.274699   4.672711
    14  H    2.044733   1.008826   2.051759   3.149748   2.420628
    15  H    3.856406   2.466915   2.050542   3.125080   1.010030
    16  H    5.083180   3.962761   2.638229   2.576092   2.068302
    17  H    5.171111   4.017381   2.781622   2.870442   2.110967
    18  H    6.223479   4.838221   4.027006   4.711160   2.688909
    19  H    6.162256   4.807291   3.934769   4.532385   2.667662
    20  H    7.621953   6.361201   5.164938   5.286530   4.129744
    21  H    8.264829   6.914635   5.849640   6.182919   4.613046
    22  H    7.581798   6.346733   5.101808   5.136321   4.122846
    23  H    2.150854   2.720651   2.746127   2.188905   4.101599
    24  C    3.786848   4.959654   5.362042   4.838617   6.730227
    25  Cl   4.537212   5.934991   6.913957   6.869082   8.171845
    26  H    3.402557   4.539539   5.839134   6.280099   6.815817
    27  H    2.154773   2.605720   3.982087   4.778721   4.664098
    28  F    4.607726   5.798646   6.275200   5.814008   7.607727
    29  F    4.610197   5.813509   6.214114   5.645674   7.584648
    30  F    4.070699   4.962417   5.010489   4.239116   6.344881
                    6          7          8          9         10
     6  C    0.000000
     7  C    1.521498   0.000000
     8  C    2.518814   1.525447   0.000000
     9  C    5.378444   6.743830   7.890340   0.000000
    10  C    6.766374   8.132366   9.275220   1.390666   0.000000
    11  C    7.624420   8.878482  10.138356   2.419193   1.393902
    12  C    7.308404   8.403296   9.772505   2.784444   2.401912
    13  C    6.049481   7.071799   8.473659   2.406062   2.766871
    14  H    3.876933   4.676146   6.141763   3.329099   4.459125
    15  H    2.107777   2.597914   4.068447   4.776447   6.108145
    16  H    1.091104   2.161697   2.776595   5.372748   6.724124
    17  H    1.096481   2.165977   2.754984   5.453518   6.815669
    18  H    2.153217   1.096610   2.155414   6.978768   8.353543
    19  H    2.143868   1.094017   2.163904   6.919499   8.282869
    20  H    2.781623   2.173881   1.092592   7.987946   9.358523
    21  H    3.473033   2.173667   1.090941   8.840724  10.229840
    22  H    2.779240   2.171416   1.092481   7.946341   9.305955
    23  H    4.866217   6.324806   7.324339   1.078724   2.143713
    24  C    7.546859   9.002728   9.991772   2.495317   1.509552
    25  Cl   9.339586  10.612027  11.855573   4.034315   2.744724
    26  H    8.194992   9.199234  10.614557   3.867245   3.382044
    27  H    6.109022   6.930576   8.402741   3.393213   3.852558
    28  F    8.430789   9.881445  10.867447   3.419521   2.360956
    29  F    8.389165   9.830941  10.802508   3.421275   2.361585
    30  F    6.931815   8.437551   9.270625   2.673735   2.359734
                   11         12         13         14         15
    11  C    0.000000
    12  C    1.387554   0.000000
    13  C    2.401775   1.384378   0.000000
    14  H    4.685428   3.881347   2.499361   0.000000
    15  H    6.639982   6.014565   4.657946   2.226174   0.000000
    16  H    7.664017   7.463686   6.276786   4.311468   2.941185
    17  H    7.769606   7.574034   6.379755   4.371281   2.634230
    18  H    9.010577   8.442096   7.088139   4.637430   2.431266
    19  H    8.929143   8.358852   7.013320   4.604051   2.784933
    20  H   10.292253  10.012162   8.749326   6.495060   4.386327
    21  H   11.029057  10.575634   9.243065   6.829888   4.716517
    22  H   10.231591   9.952278   8.698560   6.479641   4.598527
    23  H    3.394261   3.863116   3.387648   3.709693   4.678833
    24  C    2.523944   3.792711   4.276295   5.802360   7.215581
    25  Cl   1.738046   2.692638   3.987976   6.384928   8.371416
    26  H    2.139089   1.082807   2.146581   4.563728   6.752598
    27  H    3.379788   2.135030   1.085735   2.265694   4.456538
    28  F    2.980654   4.279309   4.937715   6.598878   7.997900
    29  F    2.982463   4.281498   4.939706   6.610795   8.127734
    30  F    3.652929   4.760363   4.920866   5.915622   6.953752
                   16         17         18         19         20
    16  H    0.000000
    17  H    1.756916   0.000000
    18  H    3.063606   2.522239   0.000000
    19  H    2.493304   3.061180   1.758751   0.000000
    20  H    3.140320   2.567142   2.516071   3.077525   0.000000
    21  H    3.777285   3.762347   2.497460   2.509382   1.763790
    22  H    2.590470   3.104212   3.070577   2.522605   1.764210
    23  H    4.762584   4.825594   6.651826   6.603909   7.346426
    24  C    7.385185   7.465546   9.304037   9.237619   9.981313
    25  Cl   9.340748   9.451974  10.744845  10.655980  11.989854
    26  H    8.388152   8.504798   9.180758   9.091654  10.892723
    27  H    6.437905   6.540793   6.849942   6.775505   8.753135
    28  F    8.375404   8.230418  10.081995  10.199033  10.762703
    29  F    8.098272   8.409919  10.222133   9.964787  10.870561
    30  F    6.687019   6.745669   8.816786   8.764546   9.184892
                   21         22         23         24         25
    21  H    0.000000
    22  H    1.763768   0.000000
    23  H    8.330243   7.312952   0.000000
    24  C   11.006672   9.929906   2.681828   0.000000
    25  Cl  12.757939  11.921121   4.888228   3.091377   0.000000
    26  H   11.366237  10.827870   4.945902   4.660913   2.811763
    27  H    9.071646   8.704181   4.290759   5.362017   4.827479
    28  F   11.882035  10.883454   3.641793   1.340219   3.060689
    29  F   11.813665  10.638933   3.637543   1.339623   3.061221
    30  F   10.324017   9.144811   2.295451   1.337525   4.424393
                   26         27         28         29         30
    26  H    0.000000
    27  H    2.461392   0.000000
    28  F    5.005074   5.994251   0.000000
    29  F    5.006551   5.996094   2.157891   0.000000
    30  F    5.732547   5.978723   2.151258   2.151678   0.000000
 Stoichiometry    C11H12ClF3N2O
 Framework group  C1[X(C11H12ClF3N2O)]
 Deg. of freedom    84
 Full point group                 C1      NOp   1
 Largest Abelian subgroup         C1      NOp   1
 Largest concise Abelian subgroup C1      NOp   1
                         Standard orientation:                         
 ---------------------------------------------------------------------
 Center     Atomic      Atomic             Coordinates (Angstroms)
 Number     Number       Type             X           Y           Z
 ---------------------------------------------------------------------
      1          6           0       -0.043779   -1.076731    0.050012
      2          7           0       -1.438586   -1.183420    0.118322
      3          6           0       -2.365756   -0.159453   -0.046859
      4          8           0       -2.067066    0.987772   -0.294225
      5          7           0       -3.666256   -0.586568    0.071236
      6          6           0       -4.734443    0.405301    0.044759
      7          6           0       -6.092696   -0.278412   -0.006634
      8          6           0       -7.229576    0.737961   -0.045082
      9          6           0        0.637585    0.143249    0.062497
     10          6           0        2.027585    0.163664    0.024641
     11          6           0        2.754342   -1.024771   -0.024468
     12          6           0        2.079134   -2.236889   -0.037557
     13          6           0        0.695430   -2.261256   -0.001850
     14          1           0       -1.798222   -2.125764    0.098877
     15          1           0       -3.842684   -1.415748    0.620320
     16          1           0       -4.584649    1.027900   -0.838666
     17          1           0       -4.668774    1.068090    0.915775
     18          1           0       -6.211233   -0.927000    0.869628
     19          1           0       -6.132463   -0.926189   -0.887358
     20          1           0       -7.215790    1.379632    0.839127
     21          1           0       -8.201383    0.243638   -0.082328
     22          1           0       -7.149379    1.382076   -0.923831
     23          1           0        0.085961    1.069799    0.091851
     24          6           0        2.732857    1.498232    0.041020
     25         17           0        4.491655   -1.041543   -0.072051
     26          1           0        2.643181   -3.160298   -0.078025
     27          1           0        0.183321   -3.218558   -0.013632
     28          9           0        3.540991    1.619797    1.103248
     29          9           0        3.484659    1.677743   -1.053129
     30          9           0        1.867716    2.517018    0.091787
 ---------------------------------------------------------------------
 Rotational constants (GHZ):      0.8808710      0.1410279      0.1246528
 Standard basis: 6-311+G(d) (5D, 7F)
 There are   458 symmetry adapted cartesian basis functions of A   symmetry.
 There are   440 symmetry adapted basis functions of A   symmetry.
   440 basis functions,   725 primitive gaussians,   458 cartesian basis functions
    72 alpha electrons       72 beta electrons
       nuclear repulsion energy      1445.6692642551 Hartrees.
 NAtoms=   30 NActive=   30 NUniq=   30 SFac= 1.00D+00 NAtFMM=   60 NAOKFM=F Big=F
 Integral buffers will be    131072 words long.
 Raffenetti 2 integral format.
 Two-electron integral symmetry is turned on.
 Nuclear repulsion after empirical dispersion term =     1445.6679400215 Hartrees.
 One-electron integrals computed using PRISM.
 NBasis=   440 RedAO= T EigKep=  1.12D-06  NBF=   440
 NBsUse=   439 1.00D-06 EigRej=  2.89D-07 NBFU=   439
 ExpMin= 4.38D-02 ExpMax= 1.06D+05 ExpMxC= 3.62D+03 IAcc=3 IRadAn=         5 AccDes= 0.00D+00
 Harris functional with IExCor= 1009 and IRadAn=       5 diagonalized for initial guess.
 HarFok:  IExCor= 1009 AccDes= 0.00D+00 IRadAn=         5 IDoV= 1 UseB2=F ITyADJ=14
 ICtDFT=  3500011 ScaDFX=  1.000000  1.000000  1.000000  1.000000
 FoFCou: FMM=F IPFlag=           0 FMFlag=      100000 FMFlg1=           0
         NFxFlg=           0 DoJE=T BraDBF=F KetDBF=T FulRan=T
         wScrn=  0.000000 ICntrl=     500 IOpCl=  0 I1Cent=   200000004 NGrid=           0
         NMat0=    1 NMatS0=      1 NMatT0=    0 NMatD0=    1 NMtDS0=    0 NMtDT0=    0
 Petite list used in FoFCou.
 Requested convergence on RMS density matrix=1.00D-08 within 128 cycles.
 Requested convergence on MAX density matrix=1.00D-06.
 Requested convergence on             energy=1.00D-06.
 No special actions if energy rises.
 SCF Done:  E(RM062X) =  -1370.79443712     A.U. after   17 cycles
            NFock= 17  Conv=0.31D-08     -V/T= 2.0028

 **********************************************************************

            Population analysis using the SCF density.

 **********************************************************************

 Orbital symmetries:
       Occupied  (A) (A) (A) (A) (A) (A) (A) (A) (A) (A) (A) (A)
                 (A) (A) (A) (A) (A) (A) (A) (A) (A) (A) (A) (A)
                 (A) (A) (A) (A) (A) (A) (A) (A) (A) (A) (A) (A)
                 (A) (A) (A) (A) (A) (A) (A) (A) (A) (A) (A) (A)
                 (A) (A) (A) (A) (A) (A) (A) (A) (A) (A) (A) (A)
                 (A) (A) (A) (A) (A) (A) (A) (A) (A) (A) (A) (A)
       Virtual   (A) (A) (A) (A) (A) (A) (A) (A) (A) (A) (A) (A)
                 (A) (A) (A) (A) (A) (A) (A) (A) (A) (A) (A) (A)
                 (A) (A) (A) (A) (A) (A) (A) (A) (A) (A) (A) (A)
                 (A) (A) (A) (A) (A) (A) (A) (A) (A) (A) (A) (A)
                 (A) (A) (A) (A) (A) (A) (A) (A) (A) (A) (A) (A)
                 (A) (A) (A) (A) (A) (A) (A) (A) (A) (A) (A) (A)
                 (A) (A) (A) (A) (A) (A) (A) (A) (A) (A) (A) (A)
                 (A) (A) (A) (A) (A) (A) (A) (A) (A) (A) (A) (A)
                 (A) (A) (A) (A) (A) (A) (A) (A) (A) (A) (A) (A)
                 (A) (A) (A) (A) (A) (A) (A) (A) (A) (A) (A) (A)
                 (A) (A) (A) (A) (A) (A) (A) (A) (A) (A) (A) (A)
                 (A) (A) (A) (A) (A) (A) (A) (A) (A) (A) (A) (A)
                 (A) (A) (A) (A) (A) (A) (A) (A) (A) (A) (A) (A)
                 (A) (A) (A) (A) (A) (A) (A) (A) (A) (A) (A) (A)
                 (A) (A) (A) (A) (A) (A) (A) (A) (A) (A) (A) (A)
                 (A) (A) (A) (A) (A) (A) (A) (A) (A) (A) (A) (A)
                 (A) (A) (A) (A) (A) (A) (A) (A) (A) (A) (A) (A)
                 (A) (A) (A) (A) (A) (A) (A) (A) (A) (A) (A) (A)
                 (A) (A) (A) (A) (A) (A) (A) (A) (A) (A) (A) (A)
                 (A) (A) (A) (A) (A) (A) (A) (A) (A) (A) (A) (A)
                 (A) (A) (A) (A) (A) (A) (A) (A) (A) (A) (A) (A)
                 (A) (A) (A) (A) (A) (A) (A) (A) (A) (A) (A) (A)
                 (A) (A) (A) (A) (A) (A) (A) (A) (A) (A) (A) (A)
                 (A) (A) (A) (A) (A) (A) (A) (A) (A) (A) (A) (A)
                 (A) (A) (A) (A) (A) (A) (A) (A) (A) (A) (A) (A)
                 (A) (A) (A) (A) (A) (A) (A) (A) (A) (A) (A) (A)
                 (A) (A) (A) (A) (A) (A) (A) (A) (A) (A) (A) (A)
                 (A) (A) (A) (A) (A) (A) (A) (A) (A) (A) (A) (A)
                 (A) (A) (A) (A) (A) (A) (A) (A) (A) (A) (A) (A)
                 (A) (A) (A) (A) (A) (A) (A) (A) (A) (A) (A) (A)
                 (A) (A) (A) (A) (A) (A) (A)
 The electronic state is 1-A.
 Alpha  occ. eigenvalues -- -102.68288 -25.27414 -25.27001 -25.26988 -19.60501
 Alpha  occ. eigenvalues --  -14.80530 -14.78448 -10.80221 -10.69180 -10.62348
 Alpha  occ. eigenvalues --  -10.61997 -10.58941 -10.58276 -10.57574 -10.57491
 Alpha  occ. eigenvalues --  -10.56774 -10.55374 -10.53940  -9.82565  -7.55089
 Alpha  occ. eigenvalues --   -7.54391  -7.54382  -1.46740  -1.37307  -1.36993
 Alpha  occ. eigenvalues --   -1.19952  -1.08145  -1.04819  -1.01517  -0.95077
 Alpha  occ. eigenvalues --   -0.90621  -0.89804  -0.85185  -0.81459  -0.79042
 Alpha  occ. eigenvalues --   -0.74720  -0.72880  -0.70341  -0.70018  -0.69005
 Alpha  occ. eigenvalues --   -0.68691  -0.66994  -0.64854  -0.60435  -0.58123
 Alpha  occ. eigenvalues --   -0.57371  -0.57317  -0.57151  -0.55729  -0.54871
 Alpha  occ. eigenvalues --   -0.54069  -0.53297  -0.52951  -0.51811  -0.51516
 Alpha  occ. eigenvalues --   -0.50777  -0.49608  -0.49314  -0.48394  -0.47137
 Alpha  occ. eigenvalues --   -0.46168  -0.44580  -0.44174  -0.43352  -0.42053
 Alpha  occ. eigenvalues --   -0.41390  -0.38478  -0.37770  -0.36615  -0.34216
 Alpha  occ. eigenvalues --   -0.33849  -0.28546
 Alpha virt. eigenvalues --   -0.01565  -0.01484  -0.00216   0.00826   0.01699
 Alpha virt. eigenvalues --    0.02270   0.02802   0.02862   0.04053   0.04461
 Alpha virt. eigenvalues --    0.04850   0.05421   0.05929   0.06425   0.06636
 Alpha virt. eigenvalues --    0.06787   0.07183   0.07478   0.07807   0.08251
 Alpha virt. eigenvalues --    0.08461   0.08691   0.09288   0.10124   0.11093
 Alpha virt. eigenvalues --    0.11463   0.11832   0.12167   0.12528   0.13002
 Alpha virt. eigenvalues --    0.13471   0.14150   0.14405   0.14655   0.15411
 Alpha virt. eigenvalues --    0.16211   0.16964   0.17312   0.17635   0.17791
 Alpha virt. eigenvalues --    0.18393   0.18471   0.18831   0.19066   0.20135
 Alpha virt. eigenvalues --    0.20305   0.20536   0.20959   0.21277   0.21633
 Alpha virt. eigenvalues --    0.21913   0.22080   0.22137   0.22730   0.23555
 Alpha virt. eigenvalues --    0.23918   0.24261   0.24466   0.24871   0.25454
 Alpha virt. eigenvalues --    0.25772   0.26026   0.26445   0.26744   0.27238
 Alpha virt. eigenvalues --    0.27648   0.27808   0.28100   0.28748   0.28975
 Alpha virt. eigenvalues --    0.29233   0.30257   0.30830   0.30946   0.31242
 Alpha virt. eigenvalues --    0.31502   0.32179   0.32673   0.32691   0.33640
 Alpha virt. eigenvalues --    0.34705   0.35113   0.35415   0.35758   0.36474
 Alpha virt. eigenvalues --    0.36785   0.37558   0.38776   0.39827   0.40233
 Alpha virt. eigenvalues --    0.41028   0.41475   0.42042   0.42424   0.42777
 Alpha virt. eigenvalues --    0.44490   0.44636   0.44748   0.45869   0.46634
 Alpha virt. eigenvalues --    0.47912   0.48194   0.48601   0.49341   0.50449
 Alpha virt. eigenvalues --    0.51193   0.51356   0.52167   0.53037   0.55415
 Alpha virt. eigenvalues --    0.56510   0.56724   0.57933   0.59199   0.60033
 Alpha virt. eigenvalues --    0.60894   0.62111   0.62880   0.63141   0.63830
 Alpha virt. eigenvalues --    0.64182   0.65261   0.65570   0.66417   0.66877
 Alpha virt. eigenvalues --    0.67818   0.68877   0.69934   0.70243   0.70759
 Alpha virt. eigenvalues --    0.71319   0.71780   0.72089   0.72604   0.73393
 Alpha virt. eigenvalues --    0.73719   0.75526   0.75972   0.76134   0.76360
 Alpha virt. eigenvalues --    0.77240   0.77668   0.79043   0.79871   0.82417
 Alpha virt. eigenvalues --    0.82982   0.83970   0.85233   0.87042   0.88212
 Alpha virt. eigenvalues --    0.90484   0.91060   0.91529   0.93171   0.94257
 Alpha virt. eigenvalues --    0.94457   0.94961   0.95414   0.96176   0.97330
 Alpha virt. eigenvalues --    0.98135   0.99114   1.01288   1.01910   1.03060
 Alpha virt. eigenvalues --    1.04926   1.05753   1.06146   1.06996   1.09004
 Alpha virt. eigenvalues --    1.10268   1.12037   1.13593   1.15346   1.16939
 Alpha virt. eigenvalues --    1.19485   1.21212   1.23398   1.23963   1.25124
 Alpha virt. eigenvalues --    1.26225   1.27044   1.28078   1.31456   1.34063
 Alpha virt. eigenvalues --    1.34138   1.36861   1.39895   1.40217   1.42304
 Alpha virt. eigenvalues --    1.43691   1.46202   1.47152   1.48339   1.49360
 Alpha virt. eigenvalues --    1.50354   1.51250   1.52117   1.52947   1.53239
 Alpha virt. eigenvalues --    1.54313   1.54987   1.56548   1.57871   1.58658
 Alpha virt. eigenvalues --    1.59241   1.59934   1.60619   1.62079   1.63041
 Alpha virt. eigenvalues --    1.63861   1.66940   1.67571   1.71223   1.73644
 Alpha virt. eigenvalues --    1.74455   1.74482   1.77487   1.77541   1.79487
 Alpha virt. eigenvalues --    1.80296   1.82025   1.83580   1.84303   1.86176
 Alpha virt. eigenvalues --    1.86744   1.88597   1.90747   1.94514   1.94940
 Alpha virt. eigenvalues --    1.96511   1.97240   1.99889   2.00072   2.03522
 Alpha virt. eigenvalues --    2.05359   2.07880   2.09271   2.10366   2.12341
 Alpha virt. eigenvalues --    2.15237   2.19137   2.22206   2.23330   2.27822
 Alpha virt. eigenvalues --    2.30213   2.31735   2.32169   2.33093   2.34501
 Alpha virt. eigenvalues --    2.36810   2.38419   2.40503   2.45928   2.48757
 Alpha virt. eigenvalues --    2.51545   2.53356   2.53846   2.54856   2.57133
 Alpha virt. eigenvalues --    2.57632   2.58892   2.61548   2.62043   2.63805
 Alpha virt. eigenvalues --    2.65878   2.70979   2.71452   2.75494   2.80789
 Alpha virt. eigenvalues --    2.80991   2.83644   2.85280   2.86203   2.89887
 Alpha virt. eigenvalues --    2.93273   2.94770   2.96113   2.99881   3.01255
 Alpha virt. eigenvalues --    3.02934   3.04883   3.05540   3.10418   3.11300
 Alpha virt. eigenvalues --    3.12079   3.16106   3.18708   3.23930   3.24480
 Alpha virt. eigenvalues --    3.26474   3.28019   3.30217   3.35344   3.38265
 Alpha virt. eigenvalues --    3.40666   3.41831   3.43442   3.44347   3.52237
 Alpha virt. eigenvalues --    3.55454   3.63671   3.66868   3.70043   3.74888
 Alpha virt. eigenvalues --    3.77466   3.81089   3.81394   3.84853   3.85211
 Alpha virt. eigenvalues --    3.87389   3.88104   3.89339   3.96208   3.98301
 Alpha virt. eigenvalues --    4.00473   4.01548   4.02003   4.03096   4.05280
 Alpha virt. eigenvalues --    4.08022   4.11141   4.23913   4.29002   4.33174
 Alpha virt. eigenvalues --    4.52937   4.57213   4.76859   4.81127   4.87393
 Alpha virt. eigenvalues --    4.99597   5.03674   5.18565   5.19210   5.41851
 Alpha virt. eigenvalues --    5.90084   6.46154   6.49586   6.50697   6.54251
 Alpha virt. eigenvalues --    6.56869   6.58714   6.64144   6.89028   6.92704
 Alpha virt. eigenvalues --   10.00544  23.43600  23.57078  23.66159  23.72364
 Alpha virt. eigenvalues --   23.79660  23.92947  23.93549  23.95012  24.07743
 Alpha virt. eigenvalues --   24.12374  24.19343  25.96295  26.31666  26.81561
 Alpha virt. eigenvalues --   35.57927  35.67642  50.13330  66.89547  66.92803
 Alpha virt. eigenvalues --   66.98038 216.11468
          Condensed to atoms (all electrons):
               1          2          3          4          5          6
     1  C   26.322999  -0.365605  -0.920268  -0.146266  -0.207284  -0.767491
     2  N   -0.365605   7.968864   0.179321  -0.085638  -0.681013  -0.433236
     3  C   -0.920268   0.179321   8.467587   0.615731   0.155038  -1.118432
     4  O   -0.146266  -0.085638   0.615731   8.067944  -0.166914  -0.098578
     5  N   -0.207284  -0.681013   0.155038  -0.166914   7.840147   0.639702
     6  C   -0.767491  -0.433236  -1.118432  -0.098578   0.639702   8.562874
     7  C    0.033524   0.030959   0.211235   0.018672  -0.157312  -0.929918
     8  C   -0.017776  -0.009448  -0.222656  -0.000887   0.002652   0.353766
     9  C   -2.982474   0.281361   1.308480   0.209681  -0.077924   0.193030
    10  C   -5.876004   0.142315   0.096714  -0.004515   0.011626   0.046279
    11  C   -4.857454   0.056476  -0.759416  -0.036432  -0.069694  -0.079191
    12  C    2.339501   0.030776   0.802584   0.016959   0.047109   0.047444
    13  C   -3.376515  -0.065334  -3.099124  -0.052661  -0.229940  -0.436818
    14  H    0.071014   0.210389   0.024263  -0.004826   0.068300   0.035856
    15  H   -0.030710   0.089536   0.023640  -0.002043   0.234802  -0.083095
    16  H   -0.000610   0.011133   0.053465  -0.001592  -0.039913   0.333625
    17  H   -0.000456   0.009804   0.077145  -0.004464  -0.112187   0.411855
    18  H   -0.003914  -0.001407  -0.020634  -0.000307   0.002358  -0.044842
    19  H    0.003442   0.000421   0.032088  -0.000145   0.002882  -0.093492
    20  H    0.000313   0.000066   0.010246  -0.000033   0.000690  -0.048929
    21  H    0.000044  -0.000003   0.003125   0.000025  -0.001298   0.076956
    22  H   -0.000344  -0.000105  -0.009005  -0.000094  -0.000375  -0.043809
    23  H   -0.049053  -0.021984   0.073490   0.003078   0.003827   0.006411
    24  C   -2.766901   0.010653  -0.016341   0.000586   0.018105   0.008095
    25  Cl   0.103891  -0.001984  -0.047588   0.000434  -0.000109  -0.001024
    26  H   -0.069070  -0.002701  -0.000133  -0.000008  -0.000063   0.000003
    27  H    0.264137  -0.026257   0.020066  -0.000042  -0.000237   0.000505
    28  F   -0.003700   0.000570   0.001631  -0.000019   0.000024   0.000026
    29  F    0.024179   0.000484   0.002764   0.000033   0.000005   0.000004
    30  F    0.241611  -0.000063   0.007288  -0.000479  -0.000089   0.000177
               7          8          9         10         11         12
     1  C    0.033524  -0.017776  -2.982474  -5.876004  -4.857454   2.339501
     2  N    0.030959  -0.009448   0.281361   0.142315   0.056476   0.030776
     3  C    0.211235  -0.222656   1.308480   0.096714  -0.759416   0.802584
     4  O    0.018672  -0.000887   0.209681  -0.004515  -0.036432   0.016959
     5  N   -0.157312   0.002652  -0.077924   0.011626  -0.069694   0.047109
     6  C   -0.929918   0.353766   0.193030   0.046279  -0.079191   0.047444
     7  C    6.335937  -0.163497  -0.029979  -0.007896   0.002290  -0.000412
     8  C   -0.163497   6.043713  -0.001877   0.000117  -0.000411   0.000231
     9  C   -0.029979  -0.001877  18.989577   4.211143  -8.901702   1.670650
    10  C   -0.007896   0.000117   4.211143  37.056875 -12.967425 -10.582113
    11  C    0.002290  -0.000411  -8.901702 -12.967425  44.042477  -8.473808
    12  C   -0.000412   0.000231   1.670650 -10.582113  -8.473808  24.890336
    13  C    0.041147  -0.004115  -9.661455  -2.226880   1.318078  -4.029478
    14  H   -0.006044   0.000141   0.156882   0.022358  -0.020980   0.032978
    15  H    0.011652   0.007664   0.032662   0.000161   0.001024  -0.000863
    16  H    0.001447  -0.024802   0.005246   0.000672   0.000175  -0.000082
    17  H   -0.082054  -0.003449   0.003197   0.001025   0.000316  -0.000041
    18  H    0.438654  -0.033058   0.001560   0.000087  -0.000004  -0.000020
    19  H    0.448875  -0.050602  -0.000619  -0.000037   0.000010   0.000005
    20  H    0.020886   0.363867  -0.000046  -0.000006   0.000000   0.000000
    21  H   -0.120656   0.393437   0.000010   0.000000   0.000000  -0.000000
    22  H    0.005219   0.393502   0.000056   0.000004   0.000000  -0.000000
    23  H   -0.000464   0.000044   0.374608  -0.050779  -0.023429  -0.013524
    24  C   -0.000714  -0.000004   0.027314  -3.511560  -2.165055  -0.618651
    25  Cl   0.000017  -0.000003  -0.034347   0.658974  -1.661340  -0.072544
    26  H    0.000000  -0.000000  -0.023867   0.135594   0.220485   0.036172
    27  H    0.000010   0.000005   0.043183  -0.032064  -0.122983   0.120892
    28  F   -0.000000   0.000000  -0.004156   0.177588  -0.162637   0.093838
    29  F   -0.000001  -0.000000   0.036644   0.158435  -0.181079   0.109323
    30  F    0.000007  -0.000000   0.212547  -0.373065  -0.177112  -0.002174
              13         14         15         16         17         18
     1  C   -3.376515   0.071014  -0.030710  -0.000610  -0.000456  -0.003914
     2  N   -0.065334   0.210389   0.089536   0.011133   0.009804  -0.001407
     3  C   -3.099124   0.024263   0.023640   0.053465   0.077145  -0.020634
     4  O   -0.052661  -0.004826  -0.002043  -0.001592  -0.004464  -0.000307
     5  N   -0.229940   0.068300   0.234802  -0.039913  -0.112187   0.002358
     6  C   -0.436818   0.035856  -0.083095   0.333625   0.411855  -0.044842
     7  C    0.041147  -0.006044   0.011652   0.001447  -0.082054   0.438654
     8  C   -0.004115   0.000141   0.007664  -0.024802  -0.003449  -0.033058
     9  C   -9.661455   0.156882   0.032662   0.005246   0.003197   0.001560
    10  C   -2.226880   0.022358   0.000161   0.000672   0.001025   0.000087
    11  C    1.318078  -0.020980   0.001024   0.000175   0.000316  -0.000004
    12  C   -4.029478   0.032978  -0.000863  -0.000082  -0.000041  -0.000020
    13  C   26.919282  -0.335954  -0.018074   0.000347  -0.002369  -0.001104
    14  H   -0.335954   0.401850   0.001130  -0.000009   0.000372   0.000115
    15  H   -0.018074   0.001130   0.402164   0.002821   0.001676   0.003779
    16  H    0.000347  -0.000009   0.002821   0.423733  -0.037894   0.005407
    17  H   -0.002369   0.000372   0.001676  -0.037894   0.475974  -0.009465
    18  H   -0.001104   0.000115   0.003779   0.005407  -0.009465   0.482656
    19  H    0.000556  -0.000028  -0.000520  -0.007788   0.006327  -0.045525
    20  H    0.000035  -0.000001   0.000054  -0.000217   0.003300  -0.008806
    21  H   -0.000003  -0.000000  -0.000026  -0.000216  -0.000100  -0.003496
    22  H   -0.000019   0.000001  -0.000028   0.003736  -0.000972   0.006843
    23  H   -0.034946   0.000376  -0.000041  -0.000050   0.000048  -0.000001
    24  C    0.986597   0.001014  -0.000249  -0.000025  -0.000161  -0.000001
    25  Cl   0.399763  -0.000128  -0.000005   0.000000  -0.000000  -0.000000
    26  H    0.021518  -0.000033   0.000000   0.000000   0.000000  -0.000000
    27  H    0.044016   0.011740   0.000079  -0.000000   0.000000  -0.000000
    28  F   -0.016102   0.000002   0.000000  -0.000000   0.000000   0.000000
    29  F   -0.032148   0.000002  -0.000000  -0.000000  -0.000000  -0.000000
    30  F   -0.003058  -0.000007   0.000000   0.000001  -0.000001   0.000000
              19         20         21         22         23         24
     1  C    0.003442   0.000313   0.000044  -0.000344  -0.049053  -2.766901
     2  N    0.000421   0.000066  -0.000003  -0.000105  -0.021984   0.010653
     3  C    0.032088   0.010246   0.003125  -0.009005   0.073490  -0.016341
     4  O   -0.000145  -0.000033   0.000025  -0.000094   0.003078   0.000586
     5  N    0.002882   0.000690  -0.001298  -0.000375   0.003827   0.018105
     6  C   -0.093492  -0.048929   0.076956  -0.043809   0.006411   0.008095
     7  C    0.448875   0.020886  -0.120656   0.005219  -0.000464  -0.000714
     8  C   -0.050602   0.363867   0.393437   0.393502   0.000044  -0.000004
     9  C   -0.000619  -0.000046   0.000010   0.000056   0.374608   0.027314
    10  C   -0.000037  -0.000006   0.000000   0.000004  -0.050779  -3.511560
    11  C    0.000010   0.000000   0.000000   0.000000  -0.023429  -2.165055
    12  C    0.000005   0.000000  -0.000000  -0.000000  -0.013524  -0.618651
    13  C    0.000556   0.000035  -0.000003  -0.000019  -0.034946   0.986597
    14  H   -0.000028  -0.000001  -0.000000   0.000001   0.000376   0.001014
    15  H   -0.000520   0.000054  -0.000026  -0.000028  -0.000041  -0.000249
    16  H   -0.007788  -0.000217  -0.000216   0.003736  -0.000050  -0.000025
    17  H    0.006327   0.003300  -0.000100  -0.000972   0.000048  -0.000161
    18  H   -0.045525  -0.008806  -0.003496   0.006843  -0.000001  -0.000001
    19  H    0.447943   0.005996  -0.003343  -0.008659   0.000001   0.000001
    20  H    0.005996   0.453931  -0.025781  -0.035928   0.000000   0.000000
    21  H   -0.003343  -0.025781   0.436242  -0.024279   0.000000   0.000000
    22  H   -0.008659  -0.035928  -0.024279   0.451900  -0.000000  -0.000000
    23  H    0.000001   0.000000   0.000000  -0.000000   0.336895   0.048595
    24  C    0.000001   0.000000   0.000000  -0.000000   0.048595  13.455964
    25  Cl   0.000000   0.000000   0.000000   0.000000  -0.001873  -0.461630
    26  H   -0.000000   0.000000  -0.000000   0.000000   0.000044   0.020403
    27  H   -0.000000   0.000000  -0.000000  -0.000000  -0.000055   0.002787
    28  F    0.000000  -0.000000   0.000000  -0.000000   0.000554   0.075514
    29  F    0.000000   0.000000   0.000000  -0.000000   0.000376   0.043641
    30  F   -0.000000  -0.000000  -0.000000   0.000000   0.014645   0.229739
              25         26         27         28         29         30
     1  C    0.103891  -0.069070   0.264137  -0.003700   0.024179   0.241611
     2  N   -0.001984  -0.002701  -0.026257   0.000570   0.000484  -0.000063
     3  C   -0.047588  -0.000133   0.020066   0.001631   0.002764   0.007288
     4  O    0.000434  -0.000008  -0.000042  -0.000019   0.000033  -0.000479
     5  N   -0.000109  -0.000063  -0.000237   0.000024   0.000005  -0.000089
     6  C   -0.001024   0.000003   0.000505   0.000026   0.000004   0.000177
     7  C    0.000017   0.000000   0.000010  -0.000000  -0.000001   0.000007
     8  C   -0.000003  -0.000000   0.000005   0.000000  -0.000000  -0.000000
     9  C   -0.034347  -0.023867   0.043183  -0.004156   0.036644   0.212547
    10  C    0.658974   0.135594  -0.032064   0.177588   0.158435  -0.373065
    11  C   -1.661340   0.220485  -0.122983  -0.162637  -0.181079  -0.177112
    12  C   -0.072544   0.036172   0.120892   0.093838   0.109323  -0.002174
    13  C    0.399763   0.021518   0.044016  -0.016102  -0.032148  -0.003058
    14  H   -0.000128  -0.000033   0.011740   0.000002   0.000002  -0.000007
    15  H   -0.000005   0.000000   0.000079   0.000000  -0.000000   0.000000
    16  H    0.000000   0.000000  -0.000000  -0.000000  -0.000000   0.000001
    17  H   -0.000000   0.000000   0.000000   0.000000  -0.000000  -0.000001
    18  H   -0.000000  -0.000000  -0.000000   0.000000  -0.000000   0.000000
    19  H    0.000000  -0.000000  -0.000000   0.000000   0.000000  -0.000000
    20  H    0.000000   0.000000   0.000000  -0.000000   0.000000  -0.000000
    21  H    0.000000  -0.000000  -0.000000   0.000000   0.000000  -0.000000
    22  H    0.000000   0.000000  -0.000000  -0.000000  -0.000000   0.000000
    23  H   -0.001873   0.000044  -0.000055   0.000554   0.000376   0.014645
    24  C   -0.461630   0.020403   0.002787   0.075514   0.043641   0.229739
    25  Cl  17.722357  -0.020703   0.000488  -0.016507  -0.015876   0.010852
    26  H   -0.020703   0.410009  -0.005201  -0.000016  -0.000018   0.000032
    27  H    0.000488  -0.005201   0.444981   0.000003   0.000003  -0.000007
    28  F   -0.016507  -0.000016   0.000003   8.969629  -0.048312  -0.035111
    29  F   -0.015876  -0.000018   0.000003  -0.048312   8.970058  -0.035783
    30  F    0.010852   0.000032  -0.000007  -0.035111  -0.035783   9.033858
 Mulliken charges:
               1
     1  C   -0.962760
     2  N   -0.328350
     3  C    0.047696
     4  O   -0.327197
     5  N   -0.282915
     6  C   -0.537755
     7  C   -0.101584
     8  C   -1.026553
     9  C   -0.039386
    10  C   -1.087624
    11  C    1.018820
    12  C   -0.445090
    13  C   -0.105239
    14  H    0.329228
    15  H    0.322808
    16  H    0.271391
    17  H    0.262571
    18  H    0.231124
    19  H    0.262211
    20  H    0.260364
    21  H    0.269363
    22  H    0.262357
    23  H    0.333206
    24  C    0.612284
    25  Cl   0.438884
    26  H    0.277551
    27  H    0.233953
    28  F   -0.032818
    29  F   -0.032734
    30  F   -0.123807
 Sum of Mulliken charges =  -0.00000
 Mulliken charges with hydrogens summed into heavy atoms:
               1
     1  C   -0.962760
     2  N    0.000877
     3  C    0.047696
     4  O   -0.327197
     5  N    0.039893
     6  C   -0.003793
     7  C    0.391752
     8  C   -0.234469
     9  C    0.293820
    10  C   -1.087624
    11  C    1.018820
    12  C   -0.167538
    13  C    0.128714
    24  C    0.612284
    25  Cl   0.438884
    28  F   -0.032818
    29  F   -0.032734
    30  F   -0.123807
 Electronic spatial extent (au):  <R**2>=           8112.1617
 Charge=             -0.0000 electrons
 Dipole moment (field-independent basis, Debye):
    X=             -5.9270    Y=             -5.4988    Z=              1.0504  Tot=              8.1529
 Quadrupole moment (field-independent basis, Debye-Ang):
   XX=           -102.5051   YY=           -105.8878   ZZ=           -114.9761
   XY=              2.0683   XZ=             -3.6373   YZ=             -0.5439
 Traceless Quadrupole moment (field-independent basis, Debye-Ang):
   XX=              5.2846   YY=              1.9019   ZZ=             -7.1864
   XY=              2.0683   XZ=             -3.6373   YZ=             -0.5439
 Octapole moment (field-independent basis, Debye-Ang**2):
  XXX=           -100.6573  YYY=             -6.2494  ZZZ=             -0.0020  XYY=              7.6238
  XXY=            -15.3475  XXZ=              9.9439  XZZ=              7.1408  YZZ=             16.0104
  YYZ=              2.4081  XYZ=              4.5697
 Hexadecapole moment (field-independent basis, Debye-Ang**3):
 XXXX=          -8457.1074 YYYY=          -1193.3274 ZZZZ=           -213.7637 XXXY=             84.9297
 XXXZ=            -34.7040 YYYX=             88.7893 YYYZ=             -1.7201 ZZZX=              1.6737
 ZZZY=             -0.0503 XXYY=          -1696.5621 XXZZ=          -1548.6160 YYZZ=           -260.0295
 XXYZ=            -19.3512 YYXZ=            -11.5741 ZZXY=             27.5847
 N-N= 1.445667940022D+03 E-N=-6.122083064113D+03  KE= 1.366900610357D+03
 Calling FoFJK, ICntrl=      2127 FMM=F ISym2X=0 I1Cent= 0 IOpClX= 0 NMat=1 NMatS=1 NMatT=0.
 ***** Axes restored to original set *****
 -------------------------------------------------------------------
 Center     Atomic                   Forces (Hartrees/Bohr)
 Number     Number              X              Y              Z
 -------------------------------------------------------------------
      1        6          -0.000009525   -0.000000219   -0.000000017
      2        7           0.000002440   -0.000004435   -0.000000736
      3        6           0.000017663   -0.000007624   -0.000000813
      4        8           0.000002036   -0.000001533    0.000000844
      5        7          -0.000005123    0.000011933    0.000000985
      6        6          -0.000006269   -0.000002165   -0.000001176
      7        6          -0.000001664    0.000004656    0.000001693
      8        6           0.000000355    0.000002540   -0.000000748
      9        6           0.000002027    0.000003708    0.000005895
     10        6           0.000004159    0.000001248   -0.000010861
     11        6          -0.000002958   -0.000006135   -0.000000259
     12        6          -0.000002070   -0.000001800   -0.000001083
     13        6          -0.000000142   -0.000001320   -0.000000870
     14        1           0.000002823   -0.000004047   -0.000000176
     15        1          -0.000000471   -0.000000173   -0.000000929
     16        1          -0.000001579    0.000000156    0.000003805
     17        1           0.000003729    0.000004011   -0.000001285
     18        1          -0.000000213    0.000000267   -0.000002549
     19        1          -0.000000528    0.000002183    0.000001765
     20        1           0.000000492    0.000002808    0.000000007
     21        1           0.000000682    0.000001008    0.000000845
     22        1          -0.000000739    0.000001095    0.000002671
     23        1          -0.000000037   -0.000000991   -0.000000310
     24        6          -0.000009829   -0.000005521    0.000000848
     25       17           0.000001062    0.000003824   -0.000000087
     26        1          -0.000000034   -0.000002843   -0.000002564
     27        1           0.000000062   -0.000001596   -0.000002673
     28        9          -0.000002341   -0.000002678    0.000000395
     29        9          -0.000003620   -0.000000811    0.000007351
     30        9           0.000009609    0.000004454    0.000000035
 -------------------------------------------------------------------
 Cartesian Forces:  Max     0.000017663 RMS     0.000004029

 GradGradGradGradGradGradGradGradGradGradGradGradGradGradGradGradGradGrad
 Berny optimization.
 FormGI is forming the generalized inverse of G from B-inverse, IUseBI=4.
 GSVD:  received Info=                   1 from GESDD.
 Internal  Forces:  Max     0.000020072 RMS     0.000003616
 Search for a local minimum.
 Step number   1 out of a maximum of  157
 All quantities printed in internal units (Hartrees-Bohrs-Radians)
 Mixed Optimization -- En-DIIS/RFO-DIIS
 Second derivative matrix not updated -- first step.
 ITU=  0
     Eigenvalues ---    0.00429   0.00482   0.00640   0.00926   0.01577
     Eigenvalues ---    0.01685   0.01808   0.01842   0.01894   0.01923
     Eigenvalues ---    0.01995   0.02037   0.02139   0.02165   0.02192
     Eigenvalues ---    0.02204   0.02216   0.02249   0.02275   0.03712
     Eigenvalues ---    0.04428   0.04926   0.05504   0.05522   0.05552
     Eigenvalues ---    0.08192   0.09230   0.10720   0.10751   0.12086
     Eigenvalues ---    0.12671   0.14572   0.15814   0.15999   0.16000
     Eigenvalues ---    0.16000   0.16000   0.16000   0.16000   0.21889
     Eigenvalues ---    0.21895   0.22071   0.22342   0.22371   0.23485
     Eigenvalues ---    0.24609   0.24991   0.24995   0.25000   0.25000
     Eigenvalues ---    0.25000   0.25000   0.25000   0.25000   0.29848
     Eigenvalues ---    0.30223   0.31395   0.31675   0.34060   0.34074
     Eigenvalues ---    0.34353   0.34515   0.34527   0.34685   0.34704
     Eigenvalues ---    0.35310   0.35657   0.36149   0.37226   0.42604
     Eigenvalues ---    0.42843   0.45530   0.45968   0.46170   0.46313
     Eigenvalues ---    0.46569   0.47111   0.47385   0.47972   0.50229
     Eigenvalues ---    0.57156   0.57289   0.57763   0.99483
 RFO step:  Lambda= 0.00000000D+00 EMin= 4.29333822D-03
 Linear search not attempted -- first point.
 Iteration  1 RMS(Cart)=  0.00016050 RMS(Int)=  0.00000001
 Iteration  2 RMS(Cart)=  0.00000001 RMS(Int)=  0.00000000
 Variable       Old X    -DE/DX   Delta X   Delta X   Delta X     New X
                                 (Linear)    (Quad)   (Total)
    R1        2.64665   0.00001   0.00000   0.00002   0.00002   2.64668
    R2        2.64073   0.00000   0.00000   0.00000   0.00000   2.64073
    R3        2.64036   0.00000   0.00000   0.00001   0.00001   2.64037
    R4        2.62899   0.00001   0.00000   0.00001   0.00001   2.62900
    R5        1.90640   0.00000   0.00000   0.00001   0.00001   1.90641
    R6        2.28847  -0.00000   0.00000  -0.00000  -0.00000   2.28846
    R7        2.59635  -0.00002   0.00000  -0.00004  -0.00004   2.59631
    R8        2.75507  -0.00001   0.00000  -0.00002  -0.00002   2.75505
    R9        1.90868   0.00000   0.00000   0.00000   0.00000   1.90868
   R10        2.87521  -0.00001   0.00000  -0.00002  -0.00002   2.87520
   R11        2.06189   0.00000   0.00000   0.00000   0.00000   2.06189
   R12        2.07205   0.00000   0.00000   0.00001   0.00001   2.07206
   R13        2.88268  -0.00000   0.00000  -0.00000  -0.00000   2.88268
   R14        2.07229   0.00000   0.00000   0.00001   0.00001   2.07230
   R15        2.06739   0.00000   0.00000   0.00000   0.00000   2.06740
   R16        2.06470   0.00000   0.00000   0.00000   0.00000   2.06470
   R17        2.06158   0.00000   0.00000   0.00000   0.00000   2.06158
   R18        2.06449  -0.00000   0.00000  -0.00000  -0.00000   2.06449
   R19        2.62798  -0.00000   0.00000  -0.00000  -0.00000   2.62798
   R20        2.03849  -0.00000   0.00000  -0.00000  -0.00000   2.03849
   R21        2.63409   0.00000   0.00000   0.00000   0.00000   2.63409
   R22        2.85264  -0.00000   0.00000  -0.00001  -0.00001   2.85263
   R23        2.62210   0.00000   0.00000   0.00000   0.00000   2.62210
   R24        3.28443   0.00000   0.00000   0.00000   0.00000   3.28443
   R25        2.61610   0.00000   0.00000   0.00001   0.00001   2.61610
   R26        2.04621   0.00000   0.00000   0.00000   0.00000   2.04621
   R27        2.05174  -0.00000   0.00000  -0.00000  -0.00000   2.05174
   R28        2.53265   0.00000   0.00000   0.00000   0.00000   2.53265
   R29        2.53152   0.00001   0.00000   0.00001   0.00001   2.53153
   R30        2.52756   0.00001   0.00000   0.00002   0.00002   2.52757
    A1        2.15515  -0.00001   0.00000  -0.00004  -0.00004   2.15511
    A2        2.05344   0.00001   0.00000   0.00003   0.00003   2.05347
    A3        2.07430   0.00000   0.00000   0.00000   0.00000   2.07431
    A4        2.21663  -0.00001   0.00000  -0.00005  -0.00005   2.21658
    A5        2.01003   0.00001   0.00000   0.00004   0.00004   2.01007
    A6        2.03494   0.00000   0.00000   0.00001   0.00001   2.03495
    A7        2.16174  -0.00000   0.00000  -0.00001  -0.00001   2.16173
    A8        1.97340   0.00001   0.00000   0.00004   0.00004   1.97344
    A9        2.14781  -0.00001   0.00000  -0.00003  -0.00003   2.14778
   A10        2.07198  -0.00001   0.00000  -0.00005  -0.00005   2.07193
   A11        2.05700   0.00000   0.00000   0.00001   0.00001   2.05701
   A12        2.02685   0.00001   0.00000   0.00002   0.00002   2.02687
   A13        1.92726  -0.00000   0.00000  -0.00001  -0.00001   1.92725
   A14        1.87793  -0.00000   0.00000  -0.00002  -0.00002   1.87790
   A15        1.93150   0.00000   0.00000   0.00004   0.00004   1.93154
   A16        1.93010   0.00000   0.00000  -0.00001  -0.00001   1.93009
   A17        1.93042  -0.00000   0.00000  -0.00000  -0.00000   1.93042
   A18        1.86506   0.00000   0.00000   0.00000   0.00000   1.86506
   A19        1.94632  -0.00000   0.00000  -0.00000  -0.00000   1.94632
   A20        1.91270  -0.00000   0.00000  -0.00001  -0.00001   1.91269
   A21        1.90257  -0.00000   0.00000  -0.00001  -0.00001   1.90256
   A22        1.91097  -0.00000   0.00000  -0.00000  -0.00000   1.91096
   A23        1.92530   0.00000   0.00000   0.00001   0.00001   1.92532
   A24        1.86413   0.00000   0.00000   0.00002   0.00002   1.86415
   A25        1.94067   0.00000   0.00000   0.00000   0.00000   1.94067
   A26        1.94212  -0.00000   0.00000  -0.00000  -0.00000   1.94212
   A27        1.93734  -0.00000   0.00000  -0.00001  -0.00001   1.93734
   A28        1.88072   0.00000   0.00000   0.00000   0.00000   1.88072
   A29        1.87944   0.00000   0.00000   0.00001   0.00001   1.87944
   A30        1.88082   0.00000   0.00000   0.00000   0.00000   1.88082
   A31        2.09431  -0.00000   0.00000  -0.00000  -0.00000   2.09431
   A32        2.09529  -0.00000   0.00000  -0.00000  -0.00000   2.09529
   A33        2.09353   0.00000   0.00000   0.00001   0.00001   2.09354
   A34        2.10549   0.00000   0.00000   0.00000   0.00000   2.10549
   A35        2.07107   0.00001   0.00000   0.00004   0.00004   2.07111
   A36        2.10662  -0.00001   0.00000  -0.00004  -0.00004   2.10659
   A37        2.08451   0.00000   0.00000   0.00001   0.00001   2.08452
   A38        2.12982  -0.00001   0.00000  -0.00004  -0.00004   2.12978
   A39        2.06886   0.00001   0.00000   0.00003   0.00003   2.06889
   A40        2.09614  -0.00000   0.00000  -0.00001  -0.00001   2.09614
   A41        2.08499   0.00000   0.00000   0.00001   0.00001   2.08500
   A42        2.10205   0.00000   0.00000   0.00000   0.00000   2.10205
   A43        2.11161  -0.00000   0.00000  -0.00000  -0.00000   2.11161
   A44        2.09249   0.00000   0.00000   0.00000   0.00000   2.09249
   A45        2.07908   0.00000   0.00000   0.00000   0.00000   2.07908
   A46        1.95035  -0.00000   0.00000  -0.00001  -0.00001   1.95034
   A47        1.95175  -0.00001   0.00000  -0.00003  -0.00003   1.95172
   A48        1.95154  -0.00000   0.00000   0.00000   0.00000   1.95154
   A49        1.87213   0.00000   0.00000   0.00001   0.00001   1.87213
   A50        1.86591   0.00000   0.00000   0.00002   0.00002   1.86594
   A51        1.86704   0.00000   0.00000   0.00001   0.00001   1.86705
    D1        0.22977  -0.00000   0.00000  -0.00003  -0.00003   0.22974
    D2        3.14035  -0.00000   0.00000  -0.00004  -0.00004   3.14031
    D3       -2.93849   0.00000   0.00000  -0.00001  -0.00001  -2.93849
    D4       -0.02791  -0.00000   0.00000  -0.00001  -0.00001  -0.02792
    D5        3.11376  -0.00000   0.00000  -0.00001  -0.00001   3.11374
    D6       -0.03816   0.00000   0.00000   0.00003   0.00003  -0.03813
    D7       -0.00087  -0.00000   0.00000  -0.00004  -0.00004  -0.00091
    D8        3.13040   0.00000   0.00000   0.00001   0.00001   3.13041
    D9       -3.11375  -0.00000   0.00000  -0.00003  -0.00003  -3.11378
   D10        0.02682  -0.00000   0.00000  -0.00001  -0.00001   0.02681
   D11        0.00245  -0.00000   0.00000  -0.00001  -0.00001   0.00244
   D12       -3.14016   0.00000   0.00000   0.00001   0.00001  -3.14015
   D13        0.01608  -0.00000   0.00000  -0.00001  -0.00001   0.01607
   D14        3.13490   0.00000   0.00000  -0.00000  -0.00000   3.13490
   D15       -2.89163  -0.00000   0.00000  -0.00001  -0.00001  -2.89164
   D16        0.22719  -0.00000   0.00000   0.00000   0.00000   0.22719
   D17        3.04265  -0.00000   0.00000  -0.00002  -0.00002   3.04263
   D18        0.44138   0.00000   0.00000   0.00002   0.00002   0.44140
   D19       -0.12151  -0.00000   0.00000  -0.00001  -0.00001  -0.12151
   D20       -2.72277   0.00000   0.00000   0.00003   0.00003  -2.72275
   D21        3.00412   0.00000   0.00000   0.00003   0.00003   3.00414
   D22        0.89612   0.00000   0.00000   0.00005   0.00005   0.89617
   D23       -1.13567   0.00000   0.00000   0.00004   0.00004  -1.13562
   D24       -0.66868  -0.00000   0.00000  -0.00001  -0.00001  -0.66869
   D25       -2.77668   0.00000   0.00000   0.00002   0.00002  -2.77666
   D26        1.47472  -0.00000   0.00000   0.00001   0.00001   1.47473
   D27       -3.13461   0.00000   0.00000  -0.00009  -0.00009  -3.13470
   D28        1.02978   0.00000   0.00000  -0.00007  -0.00007   1.02971
   D29       -1.00467   0.00000   0.00000  -0.00008  -0.00008  -1.00475
   D30       -1.05805  -0.00000   0.00000  -0.00013  -0.00013  -1.05818
   D31        3.10634  -0.00000   0.00000  -0.00011  -0.00011   3.10623
   D32        1.07190  -0.00000   0.00000  -0.00012  -0.00012   1.07177
   D33        1.00454  -0.00000   0.00000  -0.00013  -0.00013   1.00441
   D34       -1.11425  -0.00000   0.00000  -0.00012  -0.00012  -1.11436
   D35        3.13449  -0.00000   0.00000  -0.00012  -0.00012   3.13437
   D36       -1.04534   0.00000   0.00000   0.00004   0.00004  -1.04530
   D37        3.14114   0.00000   0.00000   0.00004   0.00004   3.14118
   D38        1.04654   0.00000   0.00000   0.00005   0.00005   1.04659
   D39        1.07446  -0.00000   0.00000   0.00002   0.00002   1.07448
   D40       -1.02225  -0.00000   0.00000   0.00002   0.00002  -1.02223
   D41       -3.11684  -0.00000   0.00000   0.00003   0.00003  -3.11682
   D42        3.12107   0.00000   0.00000   0.00005   0.00005   3.12112
   D43        1.02437   0.00000   0.00000   0.00004   0.00004   1.02441
   D44       -1.07023   0.00000   0.00000   0.00005   0.00005  -1.07018
   D45       -0.00120   0.00000   0.00000   0.00008   0.00008  -0.00113
   D46       -3.14038  -0.00000   0.00000  -0.00006  -0.00006  -3.14043
   D47       -3.13248   0.00000   0.00000   0.00003   0.00003  -3.13245
   D48        0.01153  -0.00000   0.00000  -0.00011  -0.00011   0.01143
   D49        0.00172  -0.00000   0.00000  -0.00007  -0.00007   0.00166
   D50       -3.14107  -0.00000   0.00000  -0.00018  -0.00018  -3.14125
   D51        3.14085   0.00000   0.00000   0.00007   0.00007   3.14092
   D52       -0.00195  -0.00000   0.00000  -0.00004  -0.00004  -0.00199
   D53        2.09048   0.00000   0.00000  -0.00001  -0.00001   2.09047
   D54       -2.09371   0.00000   0.00000  -0.00002  -0.00002  -2.09374
   D55       -0.00041  -0.00000   0.00000  -0.00003  -0.00003  -0.00044
   D56       -1.04869  -0.00000   0.00000  -0.00014  -0.00014  -1.04883
   D57        1.05030  -0.00000   0.00000  -0.00016  -0.00016   1.05014
   D58       -3.13958  -0.00000   0.00000  -0.00017  -0.00017  -3.13975
   D59       -0.00015   0.00000   0.00000   0.00002   0.00002  -0.00013
   D60        3.13913  -0.00000   0.00000  -0.00001  -0.00001   3.13912
   D61       -3.14058   0.00000   0.00000   0.00012   0.00012  -3.14046
   D62       -0.00130   0.00000   0.00000   0.00010   0.00010  -0.00120
   D63       -0.00195   0.00000   0.00000   0.00002   0.00002  -0.00193
   D64        3.14066   0.00000   0.00000  -0.00000  -0.00000   3.14065
   D65       -3.14121   0.00000   0.00000   0.00005   0.00005  -3.14116
   D66        0.00140   0.00000   0.00000   0.00002   0.00002   0.00142
         Item               Value     Threshold  Converged?
 Maximum Force            0.000020     0.000450     YES
 RMS     Force            0.000004     0.000300     YES
 Maximum Displacement     0.000579     0.001800     YES
 RMS     Displacement     0.000161     0.001200     YES
 Predicted change in Energy=-4.901538D-09
 Optimization completed.
    -- Stationary point found.
                           ----------------------------
                           !   Optimized Parameters   !
                           ! (Angstroms and Degrees)  !
 --------------------------                            --------------------------
 ! Name  Definition              Value          Derivative Info.                !
 --------------------------------------------------------------------------------
 ! R1    R(1,2)                  1.4005         -DE/DX =    0.0                 !
 ! R2    R(1,9)                  1.3974         -DE/DX =    0.0                 !
 ! R3    R(1,13)                 1.3972         -DE/DX =    0.0                 !
 ! R4    R(2,3)                  1.3912         -DE/DX =    0.0                 !
 ! R5    R(2,14)                 1.0088         -DE/DX =    0.0                 !
 ! R6    R(3,4)                  1.211          -DE/DX =    0.0                 !
 ! R7    R(3,5)                  1.3739         -DE/DX =    0.0                 !
 ! R8    R(5,6)                  1.4579         -DE/DX =    0.0                 !
 ! R9    R(5,15)                 1.01           -DE/DX =    0.0                 !
 ! R10   R(6,7)                  1.5215         -DE/DX =    0.0                 !
 ! R11   R(6,16)                 1.0911         -DE/DX =    0.0                 !
 ! R12   R(6,17)                 1.0965         -DE/DX =    0.0                 !
 ! R13   R(7,8)                  1.5254         -DE/DX =    0.0                 !
 ! R14   R(7,18)                 1.0966         -DE/DX =    0.0                 !
 ! R15   R(7,19)                 1.094          -DE/DX =    0.0                 !
 ! R16   R(8,20)                 1.0926         -DE/DX =    0.0                 !
 ! R17   R(8,21)                 1.0909         -DE/DX =    0.0                 !
 ! R18   R(8,22)                 1.0925         -DE/DX =    0.0                 !
 ! R19   R(9,10)                 1.3907         -DE/DX =    0.0                 !
 ! R20   R(9,23)                 1.0787         -DE/DX =    0.0                 !
 ! R21   R(10,11)                1.3939         -DE/DX =    0.0                 !
 ! R22   R(10,24)                1.5096         -DE/DX =    0.0                 !
 ! R23   R(11,12)                1.3876         -DE/DX =    0.0                 !
 ! R24   R(11,25)                1.738          -DE/DX =    0.0                 !
 ! R25   R(12,13)                1.3844         -DE/DX =    0.0                 !
 ! R26   R(12,26)                1.0828         -DE/DX =    0.0                 !
 ! R27   R(13,27)                1.0857         -DE/DX =    0.0                 !
 ! R28   R(24,28)                1.3402         -DE/DX =    0.0                 !
 ! R29   R(24,29)                1.3396         -DE/DX =    0.0                 !
 ! R30   R(24,30)                1.3375         -DE/DX =    0.0                 !
 ! A1    A(2,1,9)              123.4809         -DE/DX =    0.0                 !
 ! A2    A(2,1,13)             117.6532         -DE/DX =    0.0                 !
 ! A3    A(9,1,13)             118.8487         -DE/DX =    0.0                 !
 ! A4    A(1,2,3)              127.0033         -DE/DX =    0.0                 !
 ! A5    A(1,2,14)             115.1662         -DE/DX =    0.0                 !
 ! A6    A(3,2,14)             116.5933         -DE/DX =    0.0                 !
 ! A7    A(2,3,4)              123.8584         -DE/DX =    0.0                 !
 ! A8    A(2,3,5)              113.0677         -DE/DX =    0.0                 !
 ! A9    A(4,3,5)              123.0603         -DE/DX =    0.0                 !
 ! A10   A(3,5,6)              118.7158         -DE/DX =    0.0                 !
 ! A11   A(3,5,15)             117.8577         -DE/DX =    0.0                 !
 ! A12   A(6,5,15)             116.1299         -DE/DX =    0.0                 !
 ! A13   A(5,6,7)              110.4238         -DE/DX =    0.0                 !
 ! A14   A(5,6,16)             107.5972         -DE/DX =    0.0                 !
 ! A15   A(5,6,17)             110.6668         -DE/DX =    0.0                 !
 ! A16   A(7,6,16)             110.5867         -DE/DX =    0.0                 !
 ! A17   A(7,6,17)             110.6051         -DE/DX =    0.0                 !
 ! A18   A(16,6,17)            106.86           -DE/DX =    0.0                 !
 ! A19   A(6,7,8)              111.516          -DE/DX =    0.0                 !
 ! A20   A(6,7,18)             109.5898         -DE/DX =    0.0                 !
 ! A21   A(6,7,19)             109.009          -DE/DX =    0.0                 !
 ! A22   A(8,7,18)             109.4904         -DE/DX =    0.0                 !
 ! A23   A(8,7,19)             110.3118         -DE/DX =    0.0                 !
 ! A24   A(18,7,19)            106.8068         -DE/DX =    0.0                 !
 ! A25   A(7,8,20)             111.1923         -DE/DX =    0.0                 !
 ! A26   A(7,8,21)             111.2753         -DE/DX =    0.0                 !
 ! A27   A(7,8,22)             111.0016         -DE/DX =    0.0                 !
 ! A28   A(20,8,21)            107.7571         -DE/DX =    0.0                 !
 ! A29   A(20,8,22)            107.6838         -DE/DX =    0.0                 !
 ! A30   A(21,8,22)            107.7631         -DE/DX =    0.0                 !
 ! A31   A(1,9,10)             119.9953         -DE/DX =    0.0                 !
 ! A32   A(1,9,23)             120.0514         -DE/DX =    0.0                 !
 ! A33   A(10,9,23)            119.9507         -DE/DX =    0.0                 !
 ! A34   A(9,10,11)            120.6356         -DE/DX =    0.0                 !
 ! A35   A(9,10,24)            118.6636         -DE/DX =    0.0                 !
 ! A36   A(11,10,24)           120.7007         -DE/DX =    0.0                 !
 ! A37   A(10,11,12)           119.4337         -DE/DX =    0.0                 !
 ! A38   A(10,11,25)           122.0294         -DE/DX =    0.0                 !
 ! A39   A(12,11,25)           118.5369         -DE/DX =    0.0                 !
 ! A40   A(11,12,13)           120.1001         -DE/DX =    0.0                 !
 ! A41   A(11,12,26)           119.4613         -DE/DX =    0.0                 !
 ! A42   A(13,12,26)           120.4384         -DE/DX =    0.0                 !
 ! A43   A(1,13,12)            120.9864         -DE/DX =    0.0                 !
 ! A44   A(1,13,27)            119.891          -DE/DX =    0.0                 !
 ! A45   A(12,13,27)           119.1226         -DE/DX =    0.0                 !
 ! A46   A(10,24,28)           111.747          -DE/DX =    0.0                 !
 ! A47   A(10,24,29)           111.8269         -DE/DX =    0.0                 !
 ! A48   A(10,24,30)           111.8152         -DE/DX =    0.0                 !
 ! A49   A(28,24,29)           107.265          -DE/DX =    0.0                 !
[...]
 005868,0.00015217,0.00000399,-0.00002046,-0.00003345,0.00003418,0.0000
 1114,0.00001623,0.00000407,-0.00000982,0.00003634,-0.00010106,0.000007
 27,0.00000823,-0.00000358,-0.00004733,-0.00002163,-0.00142965,0.000445
 74,-0.00137427,-0.00691870,0.60067441,0.00042670,0.00220632,0.00625053
 ,0.00293940,-0.00012282,-0.00032650,-0.00298931,-0.00164673,0.00114344
 ,0.00087174,0.00110971,-0.00095215,0.00124589,-0.00009604,-0.00012917,
 -0.00040134,-0.00021606,0.00025513,0.00004886,0.00008493,-0.00004966,0
 .00000717,-0.00004966,0.00003765,-0.00618843,-0.00020270,0.00288880,-0
 .00594921,0.05255457,-0.09013685,0.00229752,0.00972815,-0.00572045,0.0
 0191484,0.00256459,0.00367896,0.00109205,-0.00124097,-0.00066374,0.000
 02880,-0.00001709,-0.00003136,-0.00008075,0.00009786,0.00006750,0.0000
 1538,0.00000556,0.00000190,0.00012585,0.00002180,-0.00011802,-0.000003
 65,-0.00001725,0.00001163,-0.00002475,0.00001573,-0.00003424,0.0000070
 6,0.00000607,-0.00003610,0.00003690,0.00000282,-0.00000238,-0.00000389
 ,0.00000227,0.00000835,0.00092401,-0.00192172,-0.00234999,-0.00429070,
 -0.03659654,0.53779643,0.00224551,-0.00212902,0.00034676,-0.00527716,0
 .00052095,0.00060977,0.00397464,0.00131586,-0.00114058,-0.00113399,-0.
 00086129,0.00032574,-0.00186382,0.00060979,-0.00020689,0.00055683,0.00
 029772,-0.00007196,-0.00002803,-0.00013002,0.00007405,-0.00001803,0.00
 008380,-0.00003316,-0.00109326,-0.00333529,0.00258881,-0.03288743,0.01
 231515,0.00068234,-0.16823074,0.04332703,0.00561822,-0.02735023,0.0118
 0558,0.00009574,0.00298113,0.00184593,-0.00067786,-0.00006491,-0.00014
 383,0.00011529,0.00006465,-0.00016780,0.00013606,-0.00002201,-0.000027
 43,0.00002213,-0.00012863,-0.00005090,0.00007369,0.00000069,0.00001360
 ,-0.00000645,0.00001500,0.00000564,-0.00000388,0.00000738,-0.00001581,
 0.00001316,-0.00006867,0.00001362,0.00000083,0.00000886,-0.00002148,0.
 00000129,-0.00087278,0.00123603,-0.00022380,-0.00629741,0.00594066,-0.
 00224665,0.23184899,0.00004028,0.00213858,-0.00124519,0.00173301,-0.00
 008722,-0.00049145,-0.00127001,-0.00076220,0.00034893,0.00020609,0.000
 46301,-0.00020341,0.00056783,-0.00010449,0.00007603,-0.00016722,-0.000
 09283,0.00002796,0.00001203,0.00003962,-0.00002296,0.00000529,-0.00002
 451,0.00001124,0.00068930,-0.00249541,0.00283942,-0.00924071,0.0080250
 1,-0.00092636,0.04387623,-0.05051745,0.00636216,0.03592460,-0.00973219
 ,-0.00007731,-0.00287102,-0.00226255,0.00383206,-0.00006823,0.00005804
 ,-0.00000485,-0.00003517,0.00005641,-0.00002530,0.00001288,0.00000570,
 -0.00000626,0.00003909,0.00001385,-0.00002672,-0.00000086,-0.00000216,
 0.00000302,-0.00000621,-0.00000089,-0.00000070,-0.00000134,0.00000417,
 -0.00000470,0.00001992,-0.00000347,-0.00000055,-0.00000204,0.00000674,
 0.00000037,-0.00029407,0.00023598,0.00019135,0.00178040,-0.00344864,-0
 .00003663,-0.06562007,0.06066730,-0.00060156,-0.00092978,-0.00011366,0
 .00003973,-0.00027154,-0.00045450,-0.00011166,0.00010455,-0.00015049,0
 .00020065,-0.00010773,0.00002217,0.00006341,-0.00002995,0.00007755,-0.
 00001889,-0.00000285,0.00000245,-0.00000171,0.00000581,-0.00000597,0.0
 0000119,-0.00000352,0.00000492,0.00071993,0.00354317,0.00217764,0.0105
 2900,-0.00483538,0.00285826,0.00554618,0.00655324,-0.02460655,-0.01133
 876,0.00418156,0.00371490,0.00166318,0.00304702,0.00312810,0.00005193,
 0.00002421,0.00000195,-0.00000661,0.00000720,-0.00000077,0.00000166,-0
 .00000383,-0.00000528,-0.00000014,0.00000301,-0.00000328,0.00000169,-0
 .00000171,0.00000042,-0.00000043,0.00000003,0.00000052,-0.00000003,0.0
 0000073,-0.00000018,0.00000303,-0.00000076,-0.00000004,-0.00000063,0.0
 0000084,-0.00000037,0.00033388,-0.00011683,0.00044539,-0.00022300,-0.0
 0078556,-0.00245549,-0.00802292,-0.01121150,0.01885018,-0.00302011,0.0
 0333226,0.00031454,-0.00121069,-0.00113002,0.00062001,0.00030257,0.000
 62697,-0.00014840,-0.00003257,-0.00020675,0.00006732,-0.00031883,-0.00
 004862,0.00000074,0.00005049,0.00006690,-0.00002617,-0.00001289,-0.000
 02729,0.00001542,-0.00000529,0.00001478,-0.00000484,-0.00034183,0.0007
 5704,-0.00050460,0.00071003,0.00201125,-0.00007001,0.00685905,0.005824
 65,-0.00343569,-0.21310838,-0.11924711,0.08800289,-0.01540764,-0.01695
 031,0.01139776,0.00000984,-0.00007185,0.00002171,0.00001436,-0.0000272
 1,0.00001616,-0.00000317,-0.00000475,0.00000296,-0.00001376,-0.0000057
 4,0.00000797,0.00000061,0.00000270,0.00000092,0.00000109,0.00000035,-0
 .00000273,0.00000130,-0.00000151,0.00000039,-0.00000908,0.00000026,0.0
 0000101,0.00000125,-0.00000194,0.00000051,-0.00001397,-0.00008895,-0.0
 0004573,0.00051044,0.00020335,-0.00006094,0.00095819,0.00069655,-0.000
 99609,0.22338823,0.00336419,0.00107024,0.00224696,0.00028924,0.0005955
 4,-0.00017096,0.00009865,-0.00016784,-0.00002556,-0.00001253,0.0000163
 1,-0.00000487,0.00007907,0.00004133,-0.00002760,-0.00000070,-0.0000225
 3,0.00001048,0.00000512,0.00000901,-0.00000211,0.00000176,-0.00000387,
 0.00000119,0.00095776,-0.00056644,-0.00037495,0.00253665,-0.00356774,0
 .00386919,-0.02152169,-0.01145670,0.01066779,-0.11677101,-0.14531724,0
 .07226508,0.00917497,0.01029429,-0.00492174,-0.00000447,0.00002010,0.0
 0001116,-0.00000364,0.00000789,0.00000293,-0.00000011,-0.00000009,0.00
 000026,0.00000122,0.00000126,-0.00000279,-0.00000039,-0.00000192,-0.00
 000147,-0.00000032,0.00000082,0.00000029,-0.00000009,0.00000038,-0.000
 00039,0.00000201,0.00000054,-0.00000014,-0.00000058,-0.00000057,-0.000
 00007,-0.00006564,-0.00007150,-0.00017104,-0.00156451,0.00074111,0.000
 25722,-0.00062913,0.00003202,-0.00119273,0.12436397,0.14952809,0.00022
 815,0.00227887,0.00612769,0.00003674,0.00001376,0.00015671,-0.00005339
 ,0.00002403,-0.00006100,0.00003846,-0.00000635,0.00002208,0.00000426,-
 0.00001119,-0.00003494,-0.00000491,-0.00000149,0.00000190,-0.00000032,
 0.00000429,0.00000389,-0.00000020,-0.00000082,0.00000076,-0.00057022,-
 0.00037795,-0.00074471,-0.00027515,0.00395813,0.00378281,0.00941058,0.
 00565127,-0.00135864,0.08682468,0.07283534,-0.08624206,-0.00093896,-0.
 00024810,0.00366282,0.00000944,0.00001832,0.00001334,-0.00000020,0.000
 00413,0.00001076,0.00000010,-0.00000163,-0.00000034,0.00000197,0.00000
 203,-0.00000292,0.00000007,-0.00000251,-0.00000072,-0.00000066,0.00000
 034,-0.00000159,0.00000042,0.00000085,-0.00000128,0.00000078,0.0000000
 6,0.00000059,-0.00000062,-0.00000088,-0.00000010,-0.00003061,-0.000177
 80,-0.00040305,0.00076516,-0.00005893,0.00059119,-0.00035351,-0.001425
 19,-0.00201113,-0.09424836,-0.08079948,0.08031778,0.00782682,-0.019461
 51,0.00859905,0.00203480,-0.00167170,-0.00012155,-0.00046418,-0.000564
 85,0.00001941,0.00001167,0.00044668,-0.00010763,0.00017028,0.00004480,
 -0.00000908,-0.00006932,-0.00003711,0.00002884,0.00000875,0.00001676,-
 0.00000784,0.00000105,-0.00000915,0.00000256,-0.00292879,-0.00236125,0
 .00263988,-0.00144228,-0.00016380,0.00024355,-0.00378144,0.00168414,0.
 00119572,-0.00161761,0.02801589,-0.01229766,-0.06981613,0.05038616,-0.
 01751872,-0.00106852,0.00035322,0.00018389,-0.00003932,0.00002573,0.00
 003514,0.00001070,0.00000425,-0.00000260,0.00001760,0.00000676,-0.0000
 1468,-0.00000203,-0.00000017,0.00000208,-0.00000469,-0.00000003,-0.000
 00324,0.00000003,0.00000228,-0.00000259,0.00000778,-0.00000117,-0.0000
 0013,-0.00000031,0.00000224,-0.00000002,0.00048028,-0.00093010,0.00030
 275,-0.00032993,-0.00014289,0.00003265,-0.00102477,0.00113215,-0.00034
 630,0.00066930,-0.00065111,-0.00059777,0.07095724,0.00777822,-0.011928
 61,0.00643781,0.00125165,0.00080968,-0.00212557,-0.00080624,-0.0005070
 8,-0.00026887,0.00009188,0.00066999,-0.00011951,0.00000759,0.00004198,
 0.00000220,-0.00004385,0.00000419,0.00004797,0.00000485,0.00000443,0.0
 0000473,-0.00000291,-0.00000261,-0.00000032,-0.00314327,0.00018348,0.0
 0303546,-0.00051799,0.00043868,-0.00032761,0.00167234,0.00281446,0.001
 77425,0.00058013,-0.00587925,0.00413767,0.05003050,-0.28292950,0.10792
 605,-0.00148444,0.00032058,0.00052497,-0.00003490,0.00002080,0.0000395
 1,0.00001172,-0.00000182,-0.00000132,0.00000853,0.00000231,-0.00001527
 ,-0.00000226,0.00000035,0.00000175,-0.00000613,0.00000115,-0.00000692,
 0.00000189,0.00000152,-0.00000442,0.00000370,-0.00000070,0.00000044,0.
 00000015,0.00000086,0.00000124,0.00063442,-0.00063315,0.00007815,-0.00
 017114,0.00003463,-0.00023217,0.00035688,-0.00035343,0.00014562,-0.000
 16975,-0.00024083,-0.00191120,-0.05618260,0.29738982,-0.00390078,0.011
 00867,0.00026590,-0.00160914,-0.00146501,-0.00247359,0.00011011,-0.000
 09666,-0.00069106,-0.00008999,-0.00030632,0.00022511,0.00002618,-0.000
 04951,0.00007607,0.00003005,0.00001366,0.00006704,0.00000375,0.0000100
 5,0.00001495,0.00000101,-0.00000057,-0.00000413,0.00286196,0.00289221,
 0.00357801,0.00049847,-0.00039506,-0.00037494,0.00113543,0.00172325,0.
 00621091,0.00052127,-0.00066480,0.00343211,-0.01736308,0.10790325,-0.0
 8325557,0.00110641,0.00027341,0.00056229,0.00005578,0.00003361,-0.0000
 0779,0.00000134,-0.00001214,-0.00000041,-0.00001562,-0.00000032,-0.000
 00339,0.00000071,-0.00000841,-0.00000537,-0.00000100,0.00000189,-0.000
 00348,0.00000159,0.00000137,-0.00000152,-0.00000156,0.00000094,0.00000
 094,-0.00000267,-0.00000434,-0.00000027,-0.00035076,0.00034168,-0.0003
 8684,0.00004799,-0.00021102,-0.00045141,0.00003607,-0.00000294,0.00006
 821,-0.00081124,-0.00182425,-0.00335095,0.01786892,-0.11917561,0.07663
 151,0.00065823,0.00058164,0.00085582,-0.00014089,0.00030880,0.00000372
 ,0.00077080,-0.00085377,0.00005851,-0.00047714,0.00059724,-0.00007546,
 -0.00059459,0.00035458,-0.00009567,0.00020221,0.00008603,-0.00004202,0
 .00000077,-0.00004747,0.00002073,-0.00000754,0.00003054,-0.00001522,0.
 00122253,0.00114691,-0.00104410,-0.00872045,0.00378435,-0.02241023,-0.
 00655733,0.00198569,0.00002053,0.00081359,0.00076523,0.00049954,-0.000
 06382,0.00049336,-0.00034179,-0.00004445,-0.00001394,-0.00006085,0.000
 00783,-0.00003830,0.00003186,0.00001435,-0.00001243,0.00001861,-0.0000
 3258,-0.00002892,0.00002035,-0.00000231,0.00001575,-0.00000034,0.00000
 330,0.00000179,-0.00000141,0.00000502,-0.00001057,0.00000615,-0.000029
 70,0.00000966,-0.00000203,0.00000826,-0.00000652,0.00000480,0.00054425
 ,-0.00092268,-0.00050773,-0.15644088,0.00772159,-0.10277592,0.00187696
 ,-0.00278894,0.00212571,-0.00002863,0.00031633,-0.00015288,0.00006998,
 -0.00000925,-0.00014882,0.22361402,-0.00077777,-0.00108415,-0.00103146
 ,0.00125059,-0.00011133,-0.00018291,-0.00150727,-0.00068984,0.00039385
 ,0.00051786,0.00050903,-0.00019361,0.00065034,-0.00009605,0.00001680,-
 0.00022341,-0.00013220,0.00005291,0.00001871,0.00004515,-0.00002841,0.
 00000304,-0.00003307,0.00001079,-0.00222868,-0.00125089,0.00215067,0.0
 2239324,0.00254345,0.02552312,0.00202770,-0.00014597,-0.00041341,-0.00
 013402,0.00045451,-0.00084285,0.00095177,-0.00040526,0.00021711,0.0000
 2563,-0.00000419,-0.00000936,-0.00004645,0.00005496,-0.00002120,0.0000
 1452,0.00001002,-0.00000094,0.00004765,0.00001357,-0.00003520,-0.00000
 098,0.00000338,0.00000739,-0.00000809,-0.00000248,-0.00000415,-0.00000
 137,0.00000271,-0.00000893,0.00002368,-0.00000223,-0.00000156,-0.00000
 002,0.00001049,0.00000452,0.00014607,0.00016064,0.00065517,0.00779306,
 -0.07943112,0.01172368,-0.00175950,-0.00048447,0.00198248,-0.00003697,
 -0.00004570,0.00002140,0.00003726,-0.00001180,0.00003696,0.01806862,0.
 07686437,0.00008217,0.00072357,0.00077037,-0.00110549,0.00051595,0.000
 15984,0.00155919,-0.00003430,-0.00034151,-0.00063790,0.00003896,0.0002
 1183,-0.00083791,0.00030015,-0.00002618,0.00027545,0.00013782,-0.00010
 294,-0.00001583,-0.00006261,0.00003062,-0.00000778,0.00003881,-0.00002
 247,0.00194215,0.00341144,-0.00296607,-0.02632361,0.00380412,-0.019015
 46,-0.00309915,0.00020614,0.00140565,0.00044855,0.00013784,0.00051074,
 -0.00066307,0.00029003,-0.00018168,-0.00010824,0.00000071,-0.00003589,
 0.00002957,-0.00006302,0.00000545,0.00000196,-0.00001114,0.00001344,-0
 .00006352,-0.00002911,0.00005009,-0.00000092,0.00001584,-0.00000420,0.
 00000979,-0.00000290,0.00000879,0.00000126,-0.00000936,0.00001479,-0.0
 0003293,0.00000576,-0.00000055,0.00000649,-0.00000610,0.00000085,0.000
 26065,-0.00050534,-0.00066918,-0.10072299,0.01320501,-0.19570080,0.003
 02183,0.00090610,-0.00221652,0.00003046,0.00009151,-0.00015694,0.00000
 979,0.00004533,-0.00008739,0.16229360,0.01891533,0.27009537,0.00040865
 ,-0.00027637,-0.00095250,-0.00000412,0.00007910,-0.00007762,0.00050855
 ,-0.00064654,0.00012937,-0.00034655,0.00042289,-0.00016458,-0.00040090
 ,0.00025206,-0.00009848,0.00013979,0.00006060,-0.00000919,0.00000282,-
 0.00003164,0.00001628,-0.00000497,0.00002338,-0.00000666,0.00096086,0.
 00040250,-0.00025167,0.00157137,0.01641164,0.01088739,-0.00551897,0.00
 217048,0.00039141,0.00043135,-0.00001274,-0.00092900,0.00003104,0.0005
 2586,-0.00014791,-0.00000030,0.00001910,0.00002411,0.00000904,-0.00002
 588,0.00004363,0.00000701,-0.00000986,0.00001247,-0.00001598,-0.000019
 47,0.00000514,-0.00000185,0.00000612,-0.00000071,0.00000082,0.00000440
 ,-0.00000584,0.00000487,-0.00000678,0.00000077,-0.00002175,0.00000795,
 -0.00000111,0.00000510,-0.00000782,0.00000301,0.00058099,-0.00025341,0
 .00069531,-0.10485197,0.05845288,0.05002937,0.00064447,-0.00395150,0.0
 0035486,-0.00003801,0.00026447,-0.00014095,0.00009327,0.00007122,0.000
 07213,0.01567655,-0.01537648,-0.01929709,0.13450962,-0.00010124,0.0002
 5301,0.00195491,0.00181086,-0.00017654,0.00014691,-0.00231078,-0.00062
 604,0.00038898,0.00090441,0.00049303,-0.00005170,0.00109863,-0.0002625
 5,0.00009986,-0.00036540,-0.00021111,0.00005379,0.00002271,0.00007617,
 -0.00004835,0.00000733,-0.00005898,0.00001508,-0.00354732,-0.00477084,
 0.00131219,0.02418877,-0.03115539,-0.02880275,0.00475514,0.00004200,-0
 .00012530,-0.00024777,0.00092720,0.00070289,0.00103369,-0.00075982,-0.
 00009334,0.00008267,-0.00004034,-0.00006323,-0.00007083,0.00008767,-0.
 00006485,0.00001807,0.00002055,-0.00000907,0.00006923,0.00003096,-0.00
 004260,0.00000016,0.00000462,0.00001094,-0.00000948,-0.00000863,0.0000
 0151,-0.00000510,0.00000701,-0.00000897,0.00004318,-0.00000734,-0.0000
 0190,-0.00000154,0.00002036,0.00000442,-0.00047999,-0.00034563,-0.0010
 3437,0.05743685,-0.18124541,-0.08276198,-0.00436544,-0.00195420,-0.000
 04208,-0.00006517,-0.00020128,0.00002925,-0.00002237,-0.00011731,-0.00
 005562,-0.00741950,-0.00154883,-0.03318139,-0.07745471,0.20082801,0.00
 026005,0.00008696,-0.00026644,-0.00014279,-0.00018421,0.00017126,-0.00
 010026,0.00042220,-0.00020594,0.00015527,-0.00026476,0.00028316,0.0001
 4313,-0.00013262,0.00009352,-0.00004429,-0.00002454,-0.00004403,-0.000
 00649,0.00000993,-0.00000814,0.00000292,-0.00001178,-0.00000209,0.0001
 9039,-0.00124849,0.00068718,0.00236945,-0.00244058,0.00458555,0.002307
 70,-0.00030545,0.00011270,-0.00036980,-0.00049435,0.00047908,-0.000291
 68,-0.00001525,0.00004293,0.00005440,-0.00002866,-0.00003795,-0.000002
 52,0.00000930,-0.00004893,0.00000017,0.00000795,-0.00000804,-0.0000054
 4,0.00001002,0.00001550,0.00000168,0.00000354,0.00000061,0.00000323,-0
 .00000802,0.00001110,-0.00000450,0.00000276,0.00000655,0.00000949,-0.0
 0000503,0.00000004,-0.00000087,0.00000743,-0.00000216,-0.00049373,0.00
 027839,-0.00024916,0.04854026,-0.08443399,-0.14743812,-0.00081157,0.00
 119271,0.00037559,-0.00000205,-0.00016531,0.00000402,-0.00006915,-0.00
 005377,-0.00001097,-0.00635770,-0.04344529,-0.06656437,-0.09266183,0.1
 4215207,0.23713875,0.00096606,0.00041881,-0.00035108,0.00161998,0.0002
 3351,-0.00018427,-0.00101819,-0.00247798,0.00079507,-0.00003091,0.0016
 8292,-0.00057015,0.00002977,0.00044179,-0.00018248,-0.00000621,-0.0000
 5395,0.00004830,0.00003399,-0.00000597,-0.00000466,-0.00000649,0.00000
 305,-0.00000131,-0.00477611,0.00344688,-0.00075467,-0.00858165,-0.0077
 6457,0.00667173,0.00142469,-0.00065966,0.00030385,-0.00043487,-0.00008
 499,0.00006275,0.00017518,0.00027291,-0.00014125,-0.00002160,-0.000001
 62,-0.00003491,-0.00005337,0.00002293,0.00005958,0.00003809,-0.0000076
 7,0.00002829,0.00003088,-0.00002442,-0.00003610,-0.00000615,0.00002047
 ,0.00000888,-0.00000979,0.00000555,-0.00001674,0.00000885,-0.00001125,
 -0.00000915,-0.00001335,0.00001348,-0.00000470,0.00001156,-0.00000092,
 0.00001305,0.00213096,0.00154874,-0.00115912,-0.19743666,-0.08600804,0
 .06297136,0.00117858,-0.00041826,0.00003270,0.00008812,-0.00022949,0.0
 0004791,0.00022978,0.00006908,-0.00008451,-0.07234833,-0.03186874,-0.0
 1705647,-0.04438080,0.00499493,0.04732653,0.32115801,-0.00249220,0.001
 11585,0.00004577,0.00244908,0.00017620,-0.00036208,-0.00233490,-0.0015
 7904,0.00075855,0.00083299,0.00120405,-0.00039589,0.00087559,-0.000019
 16,-0.00002544,-0.00029089,-0.00019060,0.00008759,0.00003502,0.0000561
 4,-0.00004054,0.00000201,-0.00004281,0.00001392,-0.00030464,-0.0029394
 9,0.00156946,-0.03759283,-0.01956116,0.01984215,0.00731862,-0.00558706
 ,0.00200685,-0.00244450,-0.00105065,0.00075291,0.00023225,-0.00032244,
 0.00012311,-0.00000722,0.00002409,-0.00003291,-0.00007197,0.00007787,-
 0.00001810,0.00003164,0.00000913,0.00000925,0.00007127,0.00000993,-0.0
 0005784,-0.00000307,0.00001123,0.00001219,-0.00001237,-0.00000097,-0.0
 0001043,0.00000162,-0.00000077,-0.00001470,0.00002571,0.00000267,-0.00
 000394,0.00000437,0.00001304,0.00001100,0.00005885,-0.00449337,0.00182
 775,-0.07740281,-0.13931139,0.04477708,-0.00043122,0.00057967,-0.00006
 375,0.00018290,-0.00069469,0.00018147,0.00004150,-0.00013284,0.0000316
 6,-0.02411582,0.00480730,-0.00888515,0.01889854,0.02069963,-0.01092118
 ,0.11644247,0.14713964,0.00101009,-0.00056407,0.00009030,-0.00139431,-
 0.00006195,0.00026404,0.00124007,0.00099483,-0.00050720,-0.00037355,-0
 .00069465,0.00042623,-0.00043992,-0.00002991,0.00005609,0.00014637,0.0
 0009317,-0.00008261,-0.00002301,-0.00002766,0.00002091,-0.00000046,0.0
 0001721,-0.00001221,0.00109270,0.00102637,-0.00010719,0.02076307,0.014
 53882,-0.00220505,-0.00344578,0.00346833,0.00044518,0.00116030,0.00030
 763,-0.00077751,-0.00013970,0.00011135,-0.00001847,0.00001321,-0.00001
 044,0.00000748,0.00003618,-0.00003833,-0.00002388,-0.00001445,-0.00000
 046,-0.00000638,-0.00004760,-0.00000110,0.00004555,0.00000178,-0.00000
 105,-0.00000648,0.00001061,-0.00000515,0.00001330,-0.00000370,0.000001
 03,0.00001260,-0.00001017,-0.00000362,0.00000241,-0.00000180,-0.000002
 42,-0.00000591,-0.00050847,0.00160787,-0.00112500,0.05872664,0.0462496
 9,-0.10613507,0.00003744,-0.00007934,0.00029598,-0.00014395,0.00026139
 ,-0.00032596,-0.00006527,0.00003942,-0.00002399,-0.03192776,-0.0154928
 9,0.01481433,0.05207987,-0.00048531,-0.02912120,-0.09777843,-0.0512187
 7,0.12398972\\0.00000953,0.00000022,0.00000002,-0.00000244,0.00000443,
 0.00000074,-0.00001766,0.00000762,0.00000081,-0.00000204,0.00000153,-0
 .00000084,0.00000512,-0.00001193,-0.00000098,0.00000627,0.00000216,0.0
 0000118,0.00000166,-0.00000466,-0.00000169,-0.00000036,-0.00000254,0.0
 0000075,-0.00000203,-0.00000371,-0.00000590,-0.00000416,-0.00000124,0.
 00001086,0.00000296,0.00000613,0.00000026,0.00000207,0.00000180,0.0000
 0108,0.00000015,0.00000132,0.00000087,-0.00000282,0.00000405,0.0000001
 8,0.00000047,0.00000017,0.00000093,0.00000158,-0.00000016,-0.00000381,
 -0.00000373,-0.00000401,0.00000128,0.00000021,-0.00000027,0.00000255,0
 .00000053,-0.00000218,-0.00000177,-0.00000049,-0.00000281,0.,-0.000000
 68,-0.00000101,-0.00000084,0.00000074,-0.00000109,-0.00000267,0.000000
 04,0.00000099,0.00000031,0.00000983,0.00000552,-0.00000085,-0.00000106
 ,-0.00000383,0.00000009,0.00000003,0.00000284,0.00000256,-0.00000006,0
 .00000160,0.00000267,0.00000234,0.00000268,-0.00000039,0.00000362,0.00
 000081,-0.00000735,-0.00000961,-0.00000445,-0.00000004\\\@


 It is also a good rule not to put too much confidence in
 experimental results until they have been confirmed by
 Theory.
                             -- Sir Arthur Eddington
 Job cpu time:       0 days  4 hours 29 minutes 58.1 seconds.
 File lengths (MBytes):  RWF=    582 Int=      0 D2E=      0 Chk=     15 Scr=      1
 Normal termination of Gaussian 09 at Thu Nov 14 10:35:45 2019.
pbs_rusage has been removed.
Please contact help@nci.org.au if you require this functionality.
