 Entering Gaussian System, Link 0=/apps/gaussian/g09e01/g09/g09
 Initial command:
 /apps/gaussian/g09e01/g09/l1.exe "/jobfs/local/3578921.r-man2/Gau-3167.inp" -scrdir="/jobfs/local/3578921.r-man2/"
 Entering Link 1 = /apps/gaussian/g09e01/g09/l1.exe PID=      3168.
  
 Copyright (c) 1988,1990,1992,1993,1995,1998,2003,2009,2015,
            Gaussian, Inc.  All Rights Reserved.
  
 This is part of the Gaussian(R) 09 program.  It is based on
 the Gaussian(R) 03 system (copyright 2003, Gaussian, Inc.),
 the Gaussian(R) 98 system (copyright 1998, Gaussian, Inc.),
 the Gaussian(R) 94 system (copyright 1995, Gaussian, Inc.),
 the Gaussian 92(TM) system (copyright 1992, Gaussian, Inc.),
 the Gaussian 90(TM) system (copyright 1990, Gaussian, Inc.),
 the Gaussian 88(TM) system (copyright 1988, Gaussian, Inc.),
 the Gaussian 86(TM) system (copyright 1986, Carnegie Mellon
 University), and the Gaussian 82(TM) system (copyright 1983,
 Carnegie Mellon University). Gaussian is a federally registered
 trademark of Gaussian, Inc.
  
 This software contains proprietary and confidential information,
 including trade secrets, belonging to Gaussian, Inc.
  
 This software is provided under written license and may be
 used, copied, transmitted, or stored only in accord with that
 written license.
  
 The following legend is applicable only to US Government
 contracts under FAR:
  
                    RESTRICTED RIGHTS LEGEND
  
 Use, reproduction and disclosure by the US Government is
 subject to restrictions as set forth in subparagraphs (a)
 and (c) of the Commercial Computer Software - Restricted
 Rights clause in FAR 52.227-19.
  
 Gaussian, Inc.
 340 Quinnipiac St., Bldg. 40, Wallingford CT 06492
  
  
 ---------------------------------------------------------------
 Warning -- This program may not be used in any manner that
 competes with the business of Gaussian, Inc. or will provide
 assistance to any competitor of Gaussian, Inc.  The licensee
 of this program is prohibited from giving any competitor of
 Gaussian, Inc. access to this program.  By using this program,
 the user acknowledges that Gaussian, Inc. is engaged in the
 business of creating and licensing software in the field of
 computational chemistry and represents and warrants to the
 licensee that it is not a competitor of Gaussian, Inc. and that
 it will not use this program in any manner prohibited above.
 ---------------------------------------------------------------
  

 Cite this work as:
 Gaussian 09, Revision E.01,
 M. J. Frisch, G. W. Trucks, H. B. Schlegel, G. E. Scuseria, 
 M. A. Robb, J. R. Cheeseman, G. Scalmani, V. Barone, B. Mennucci, 
 G. A. Petersson, H. Nakatsuji, M. Caricato, X. Li, H. P. Hratchian, 
 A. F. Izmaylov, J. Bloino, G. Zheng, J. L. Sonnenberg, M. Hada, 
 M. Ehara, K. Toyota, R. Fukuda, J. Hasegawa, M. Ishida, T. Nakajima, 
 Y. Honda, O. Kitao, H. Nakai, T. Vreven, J. A. Montgomery, Jr., 
 J. E. Peralta, F. Ogliaro, M. Bearpark, J. J. Heyd, E. Brothers, 
 K. N. Kudin, V. N. Staroverov, T. Keith, R. Kobayashi, J. Normand, 
 K. Raghavachari, A. Rendell, J. C. Burant, S. S. Iyengar, J. Tomasi, 
 M. Cossi, N. Rega, J. M. Millam, M. Klene, J. E. Knox, J. B. Cross, 
 V. Bakken, C. Adamo, J. Jaramillo, R. Gomperts, R. E. Stratmann, 
 O. Yazyev, A. J. Austin, R. Cammi, C. Pomelli, J. W. Ochterski, 
 R. L. Martin, K. Morokuma, V. G. Zakrzewski, G. A. Voth, 
 P. Salvador, J. J. Dannenberg, S. Dapprich, A. D. Daniels, 
 O. Farkas, J. B. Foresman, J. V. Ortiz, J. Cioslowski, 
 and D. J. Fox, Gaussian, Inc., Wallingford CT, 2013.
 
 ******************************************
 Gaussian 09:  ES64L-G09RevE.01 30-Nov-2015
                14-Nov-2019 
 ******************************************
 %chk=29.M062X_6-311pGd_opt_Pentadecane_GD3.chk
 %mem=196608000
 %nproc=4
 Will use up to    4 processors via shared memory.
 ----------------------------------------------------------------------
 # M062X/6-311+G* SCF=Tight INT(grid=ultrafine) OPT IOP(2/17=4) Empiric
 alDispersion=GD3 SCRF=(SMD,Solvent=n-Pentadecane) maxdisk=2147483648
 ----------------------------------------------------------------------
 1/14=-1,18=20,19=15,26=4,38=1/1,3;
 2/9=110,12=2,17=4,18=5,40=1/2;
 3/5=4,6=6,7=11,11=2,16=1,25=1,30=1,70=32201,71=1,72=151,74=-55,75=-5,124=31/1,2,3;
 4//1;
 5/5=2,32=2,38=5,53=151/2;
 6/7=2,8=2,9=2,10=2,28=1/1;
 7//1,2,3,16;
 1/14=-1,18=20,19=15,26=4/3(2);
 2/9=110,17=4/2;
 99//99;
 2/9=110,17=4/2;
 3/5=4,6=6,7=11,11=2,16=1,25=1,30=1,70=32205,71=1,72=151,74=-55,75=-5,124=31/1,2,3;
 4/5=5,16=3,69=1/1;
 5/5=2,32=2,38=5,53=151/2;
 7//1,2,3,16;
 1/14=-1,18=20,19=15,26=4/3(-5);
 2/9=110,17=4/2;
 6/7=2,8=2,9=2,10=2,19=2,28=1/1;
 99/9=1/99;
 -------------------------------------
 29.M062X_6-311pGd_opt_Pentadecane_GD3
 -------------------------------------
 Symbolic Z-matrix:
 Charge =  0 Multiplicity = 1
 C                    -6.1891    1.22919   0.68803 
 N                    -4.88763   0.72986   0.78514 
 C                    -3.7262    1.2898    0.26695 
 O                    -3.70646   2.32219  -0.37447 
 N                    -2.6057    0.55318   0.52651 
 C                    -1.29387   1.06703   0.1558 
 C                    -0.2396   -0.01983   0.30442 
 C                     1.14617   0.49049  -0.07342 
 C                    -6.50063   2.49286   0.17701 
 C                    -7.82374   2.9201    0.13646 
 C                    -8.84959   2.10043   0.60272 
 C                    -8.54392   0.84569   1.11014 
 C                    -7.22887   0.41619   1.15082 
 H                    -4.81086  -0.19416   1.186 
 H                    -2.63464  -0.13393   1.26647 
 H                    -1.03431   1.93838   0.7684 
 H                    -1.34745   1.40757  -0.87952 
 H                    -0.51433  -0.87132  -0.32559 
 H                    -0.22882  -0.37976   1.33996 
 H                     1.16904   0.83606  -1.11002 
 H                     1.89812  -0.2937    0.03162 
 H                     1.44728   1.327     0.56237 
 H                    -5.71558   3.13441  -0.19079 
 C                    -8.12466   4.2886   -0.42016 
 Cl                   -10.51715   2.60181   0.56815 
 H                    -9.33888   0.20535   1.47182 
 H                    -7.00656  -0.56874   1.54941 
 F                    -8.93695   4.2301   -1.48633 
 F                    -8.72271   5.07821   0.48521 
 F                    -7.01601   4.9255   -0.81406 
 

 GradGradGradGradGradGradGradGradGradGradGradGradGradGradGradGradGradGrad
 Berny optimization.
 Initialization pass.
                           ----------------------------
                           !    Initial Parameters    !
                           ! (Angstroms and Degrees)  !
 --------------------------                            --------------------------
 ! Name  Definition              Value          Derivative Info.                !
 --------------------------------------------------------------------------------
 ! R1    R(1,2)                  1.3974         estimate D2E/DX2                !
 ! R2    R(1,9)                  1.3982         estimate D2E/DX2                !
 ! R3    R(1,13)                 1.3987         estimate D2E/DX2                !
 ! R4    R(2,3)                  1.3896         estimate D2E/DX2                !
 ! R5    R(2,14)                 1.0101         estimate D2E/DX2                !
 ! R6    R(3,4)                  1.2156         estimate D2E/DX2                !
 ! R7    R(3,5)                  1.3658         estimate D2E/DX2                !
 ! R8    R(5,6)                  1.4568         estimate D2E/DX2                !
 ! R9    R(5,15)                 1.0102         estimate D2E/DX2                !
 ! R10   R(6,7)                  1.5215         estimate D2E/DX2                !
 ! R11   R(6,16)                 1.0963         estimate D2E/DX2                !
 ! R12   R(6,17)                 1.0912         estimate D2E/DX2                !
 ! R13   R(7,8)                  1.5243         estimate D2E/DX2                !
 ! R14   R(7,18)                 1.0943         estimate D2E/DX2                !
 ! R15   R(7,19)                 1.0964         estimate D2E/DX2                !
 ! R16   R(8,20)                 1.0929         estimate D2E/DX2                !
 ! R17   R(8,21)                 1.0915         estimate D2E/DX2                !
 ! R18   R(8,22)                 1.093          estimate D2E/DX2                !
 ! R19   R(9,10)                 1.391          estimate D2E/DX2                !
 ! R20   R(9,23)                 1.0785         estimate D2E/DX2                !
 ! R21   R(10,11)                1.3934         estimate D2E/DX2                !
 ! R22   R(10,24)                1.5077         estimate D2E/DX2                !
 ! R23   R(11,12)                1.3875         estimate D2E/DX2                !
 ! R24   R(11,25)                1.7416         estimate D2E/DX2                !
 ! R25   R(12,13)                1.384          estimate D2E/DX2                !
 ! R26   R(12,26)                1.083          estimate D2E/DX2                !
 ! R27   R(13,27)                1.0855         estimate D2E/DX2                !
 ! R28   R(24,28)                1.3416         estimate D2E/DX2                !
 ! R29   R(24,29)                1.342          estimate D2E/DX2                !
 ! R30   R(24,30)                1.3379         estimate D2E/DX2                !
 ! A1    A(2,1,9)              123.7704         estimate D2E/DX2                !
 ! A2    A(2,1,13)             117.4959         estimate D2E/DX2                !
 ! A3    A(9,1,13)             118.7264         estimate D2E/DX2                !
 ! A4    A(1,2,3)              127.4846         estimate D2E/DX2                !
 ! A5    A(1,2,14)             115.1656         estimate D2E/DX2                !
 ! A6    A(3,2,14)             116.9401         estimate D2E/DX2                !
 ! A7    A(2,3,4)              123.5434         estimate D2E/DX2                !
 ! A8    A(2,3,5)              113.4213         estimate D2E/DX2                !
 ! A9    A(4,3,5)              123.0245         estimate D2E/DX2                !
 ! A10   A(3,5,6)              120.0091         estimate D2E/DX2                !
 ! A11   A(3,5,15)             118.8509         estimate D2E/DX2                !
 ! A12   A(6,5,15)             116.8785         estimate D2E/DX2                !
 ! A13   A(5,6,7)              110.3129         estimate D2E/DX2                !
 ! A14   A(5,6,16)             110.5693         estimate D2E/DX2                !
 ! A15   A(5,6,17)             107.8963         estimate D2E/DX2                !
 ! A16   A(7,6,16)             110.4338         estimate D2E/DX2                !
 ! A17   A(7,6,17)             110.4652         estimate D2E/DX2                !
 ! A18   A(16,6,17)            107.0824         estimate D2E/DX2                !
 ! A19   A(6,7,8)              111.5053         estimate D2E/DX2                !
 ! A20   A(6,7,18)             109.0049         estimate D2E/DX2                !
 ! A21   A(6,7,19)             109.487          estimate D2E/DX2                !
 ! A22   A(8,7,18)             110.2459         estimate D2E/DX2                !
 ! A23   A(8,7,19)             109.5784         estimate D2E/DX2                !
 ! A24   A(18,7,19)            106.9057         estimate D2E/DX2                !
 ! A25   A(7,8,20)             111.0988         estimate D2E/DX2                !
 ! A26   A(7,8,21)             111.2176         estimate D2E/DX2                !
 ! A27   A(7,8,22)             111.2529         estimate D2E/DX2                !
 ! A28   A(20,8,21)            107.6992         estimate D2E/DX2                !
 ! A29   A(20,8,22)            107.6956         estimate D2E/DX2                !
 ! A30   A(21,8,22)            107.7031         estimate D2E/DX2                !
 ! A31   A(1,9,10)             120.012          estimate D2E/DX2                !
 ! A32   A(1,9,23)             120.0043         estimate D2E/DX2                !
 ! A33   A(10,9,23)            119.9829         estimate D2E/DX2                !
 ! A34   A(9,10,11)            120.6541         estimate D2E/DX2                !
 ! A35   A(9,10,24)            118.6466         estimate D2E/DX2                !
 ! A36   A(11,10,24)           120.6992         estimate D2E/DX2                !
 ! A37   A(10,11,12)           119.4802         estimate D2E/DX2                !
 ! A38   A(10,11,25)           121.9315         estimate D2E/DX2                !
 ! A39   A(12,11,25)           118.5882         estimate D2E/DX2                !
 ! A40   A(11,12,13)           120.0464         estimate D2E/DX2                !
 ! A41   A(11,12,26)           119.6768         estimate D2E/DX2                !
 ! A42   A(13,12,26)           120.2768         estimate D2E/DX2                !
 ! A43   A(1,13,12)            121.0808         estimate D2E/DX2                !
 ! A44   A(1,13,27)            119.7782         estimate D2E/DX2                !
 ! A45   A(12,13,27)           119.141          estimate D2E/DX2                !
 ! A46   A(10,24,28)           112.0023         estimate D2E/DX2                !
 ! A47   A(10,24,29)           111.9591         estimate D2E/DX2                !
 ! A48   A(10,24,30)           112.0492         estimate D2E/DX2                !
 ! A49   A(28,24,29)           106.9766         estimate D2E/DX2                !
 ! A50   A(28,24,30)           106.7685         estimate D2E/DX2                !
 ! A51   A(29,24,30)           106.7283         estimate D2E/DX2                !
 ! D1    D(9,1,2,3)             -8.4228         estimate D2E/DX2                !
 ! D2    D(9,1,2,14)           179.2095         estimate D2E/DX2                !
 ! D3    D(13,1,2,3)           172.5805         estimate D2E/DX2                !
 ! D4    D(13,1,2,14)            0.2128         estimate D2E/DX2                !
 ! D5    D(2,1,9,10)          -178.9578         estimate D2E/DX2                !
 ! D6    D(2,1,9,23)             1.3758         estimate D2E/DX2                !
 ! D7    D(13,1,9,10)            0.0274         estimate D2E/DX2                !
 ! D8    D(13,1,9,23)         -179.6391         estimate D2E/DX2                !
 ! D9    D(2,1,13,12)          178.9452         estimate D2E/DX2                !
 ! D10   D(2,1,13,27)           -1.058          estimate D2E/DX2                !
 ! D11   D(9,1,13,12)           -0.1038         estimate D2E/DX2                !
 ! D12   D(9,1,13,27)          179.893          estimate D2E/DX2                !
 ! D13   D(1,2,3,4)             -0.8326         estimate D2E/DX2                !
 ! D14   D(1,2,3,5)           -179.6686         estimate D2E/DX2                !
 ! D15   D(14,2,3,4)           171.4179         estimate D2E/DX2                !
 ! D16   D(14,2,3,5)            -7.4181         estimate D2E/DX2                !
 ! D17   D(2,3,5,6)           -174.4211         estimate D2E/DX2                !
 ! D18   D(2,3,5,15)           -18.3204         estimate D2E/DX2                !
 ! D19   D(4,3,5,6)              6.736          estimate D2E/DX2                !
 ! D20   D(4,3,5,15)           162.8366         estimate D2E/DX2                !
 ! D21   D(3,5,6,7)           -169.5698         estimate D2E/DX2                !
 ! D22   D(3,5,6,16)            67.9821         estimate D2E/DX2                !
 ! D23   D(3,5,6,17)           -48.8183         estimate D2E/DX2                !
 ! D24   D(15,5,6,7)            33.8725         estimate D2E/DX2                !
 ! D25   D(15,5,6,16)          -88.5757         estimate D2E/DX2                !
 ! D26   D(15,5,6,17)          154.6239         estimate D2E/DX2                !
 ! D27   D(5,6,7,8)           -179.8432         estimate D2E/DX2                !
 ! D28   D(5,6,7,18)            58.2125         estimate D2E/DX2                !
 ! D29   D(5,6,7,19)           -58.4114         estimate D2E/DX2                !
 ! D30   D(16,6,7,8)           -57.3155         estimate D2E/DX2                !
 ! D31   D(16,6,7,18)         -179.2598         estimate D2E/DX2                !
 ! D32   D(16,6,7,19)           64.1163         estimate D2E/DX2                !
 ! D33   D(17,6,7,8)            60.9547         estimate D2E/DX2                !
 ! D34   D(17,6,7,18)          -60.9896         estimate D2E/DX2                !
 ! D35   D(17,6,7,19)         -177.6135         estimate D2E/DX2                !
 ! D36   D(6,7,8,20)           -59.8492         estimate D2E/DX2                !
 ! D37   D(6,7,8,21)          -179.8067         estimate D2E/DX2                !
 ! D38   D(6,7,8,22)            60.1274         estimate D2E/DX2                !
 ! D39   D(18,7,8,20)           61.3754         estimate D2E/DX2                !
 ! D40   D(18,7,8,21)          -58.582          estimate D2E/DX2                !
 ! D41   D(18,7,8,22)         -178.648          estimate D2E/DX2                !
 ! D42   D(19,7,8,20)          178.7721         estimate D2E/DX2                !
 ! D43   D(19,7,8,21)           58.8146         estimate D2E/DX2                !
 ! D44   D(19,7,8,22)          -61.2513         estimate D2E/DX2                !
 ! D45   D(1,9,10,11)            0.0643         estimate D2E/DX2                !
 ! D46   D(1,9,10,24)          179.9702         estimate D2E/DX2                !
 ! D47   D(23,9,10,11)         179.7308         estimate D2E/DX2                !
 ! D48   D(23,9,10,24)          -0.3633         estimate D2E/DX2                !
 ! D49   D(9,10,11,12)          -0.0809         estimate D2E/DX2                !
 ! D50   D(9,10,11,25)         179.9821         estimate D2E/DX2                !
 ! D51   D(24,10,11,12)       -179.9849         estimate D2E/DX2                !
 ! D52   D(24,10,11,25)          0.0782         estimate D2E/DX2                !
 ! D53   D(9,10,24,28)         119.9386         estimate D2E/DX2                !
 ! D54   D(9,10,24,29)        -119.8977         estimate D2E/DX2                !
 ! D55   D(9,10,24,30)          -0.0204         estimate D2E/DX2                !
 ! D56   D(11,10,24,28)        -60.1555         estimate D2E/DX2                !
 ! D57   D(11,10,24,29)         60.0081         estimate D2E/DX2                !
 ! D58   D(11,10,24,30)        179.8854         estimate D2E/DX2                !
 ! D59   D(10,11,12,13)          0.005          estimate D2E/DX2                !
 ! D60   D(10,11,12,26)       -179.8965         estimate D2E/DX2                !
 ! D61   D(25,11,12,13)        179.944          estimate D2E/DX2                !
 ! D62   D(25,11,12,26)          0.0426         estimate D2E/DX2                !
 ! D63   D(11,12,13,1)           0.0881         estimate D2E/DX2                !
 ! D64   D(11,12,13,27)       -179.9087         estimate D2E/DX2                !
 ! D65   D(26,12,13,1)         179.9889         estimate D2E/DX2                !
 ! D66   D(26,12,13,27)         -0.0079         estimate D2E/DX2                !
 --------------------------------------------------------------------------------
 Trust Radius=3.00D-01 FncErr=1.00D-07 GrdErr=1.00D-06
 Number of steps in this run=    157 maximum allowed number of steps=    180.
 GradGradGradGradGradGradGradGradGradGradGradGradGradGradGradGradGradGrad

                          Input orientation:                          
 ---------------------------------------------------------------------
 Center     Atomic      Atomic             Coordinates (Angstroms)
 Number     Number       Type             X           Y           Z
 ---------------------------------------------------------------------
      1          6           0       -6.189103    1.229193    0.688033
      2          7           0       -4.887626    0.729857    0.785142
      3          6           0       -3.726195    1.289796    0.266948
      4          8           0       -3.706455    2.322187   -0.374470
      5          7           0       -2.605698    0.553180    0.526514
      6          6           0       -1.293870    1.067027    0.155798
      7          6           0       -0.239597   -0.019827    0.304415
      8          6           0        1.146169    0.490490   -0.073421
      9          6           0       -6.500631    2.492857    0.177014
     10          6           0       -7.823740    2.920098    0.136461
     11          6           0       -8.849589    2.100427    0.602725
     12          6           0       -8.543915    0.845690    1.110141
     13          6           0       -7.228874    0.416189    1.150820
     14          1           0       -4.810858   -0.194155    1.185998
     15          1           0       -2.634638   -0.133929    1.266472
     16          1           0       -1.034306    1.938384    0.768402
     17          1           0       -1.347450    1.407571   -0.879521
     18          1           0       -0.514334   -0.871316   -0.325589
     19          1           0       -0.228821   -0.379762    1.339956
     20          1           0        1.169038    0.836065   -1.110024
     21          1           0        1.898121   -0.293702    0.031616
     22          1           0        1.447278    1.326998    0.562369
     23          1           0       -5.715576    3.134412   -0.190787
     24          6           0       -8.124658    4.288605   -0.420160
     25         17           0      -10.517147    2.601811    0.568154
     26          1           0       -9.338883    0.205352    1.471823
     27          1           0       -7.006557   -0.568736    1.549408
     28          9           0       -8.936948    4.230101   -1.486328
     29          9           0       -8.722710    5.078208    0.485212
     30          9           0       -7.016007    4.925497   -0.814061
 ---------------------------------------------------------------------
                    Distance matrix (angstroms):
                    1          2          3          4          5
     1  C    0.000000
     2  N    1.397358   0.000000
     3  C    2.499380   1.389596   0.000000
     4  O    2.913261   2.296819   1.215581   0.000000
     5  N    3.650189   2.303323   1.365830   2.269983   0.000000
     6  C    4.926752   3.663992   2.445033   2.770772   1.456833
     7  C    6.091292   4.732578   3.724632   4.238516   2.444606
     8  C    7.411593   6.099271   4.949209   5.195547   3.800047
     9  C    1.398226   2.465720   3.025382   2.853188   4.365203
    10  C    2.415663   3.720042   4.411892   4.191728   5.743032
    11  C    2.800805   4.196295   5.197983   5.239839   6.433192
    12  C    2.422889   3.672533   4.911073   5.271161   5.973995
    13  C    1.398668   2.390304   3.716609   4.285648   4.667150
    14  H    2.042902   1.010138   2.055057   3.160181   2.419951
    15  H    3.850573   2.460438   2.053665   3.142290   1.010196
    16  H    5.203974   4.038426   2.813963   2.931525   2.108689
    17  H    5.092214   3.970295   2.643235   2.580020   2.071257
    18  H    6.135355   4.787814   3.916320   4.515583   2.670032
    19  H    6.207955   4.821155   4.021243   4.725857   2.679853
    20  H    7.584840   6.347134   5.105412   5.149761   4.123943
    21  H    8.255500   6.903755   5.847716   6.198311   4.609394
    22  H    7.638042   6.366884   5.182035   5.331889   4.126341
    23  H    2.150909   2.723935   2.751320   2.174860   4.104707
    24  C    3.786088   4.959416   5.367629   4.836259   6.731160
    25  Cl   4.542071   5.936565   6.923087   6.881297   8.172494
    26  H    3.403482   4.534350   5.842090   6.293968   6.808112
    27  H    2.154704   2.600061   3.982414   4.790555   4.655381
    28  F    4.613452   5.814490   6.234686   5.677536   7.593155
    29  F    4.612506   5.805686   6.274143   5.787704   7.608904
    30  F    4.074642   4.968988   5.020932   4.233627   6.353355
                    6          7          8          9         10
     6  C    0.000000
     7  C    1.521457   0.000000
     8  C    2.517683   1.524313   0.000000
     9  C    5.398500   6.747619   7.908586   0.000000
    10  C    6.787743   8.135761   9.295500   1.390971   0.000000
    11  C    7.639146   8.872228  10.147130   2.419263   1.393423
    12  C    7.315936   8.388088   9.768558   2.785480   2.402056
    13  C    6.052928   7.053830   8.464375   2.406489   2.766289
    14  H    3.875707   4.658756   6.127075   3.330678   4.458426
    15  H    2.115078   2.583563   4.059522   4.799252   6.126238
    16  H    1.096321   2.163663   2.749461   5.526109   6.889088
    17  H    1.091204   2.160211   2.776504   5.371162   6.727726
    18  H    2.143965   1.094266   2.162262   6.885203   8.247166
    19  H    2.151687   1.096363   2.155358   6.995711   8.367812
    20  H    2.778770   2.171967   1.092927   7.951431   9.314880
    21  H    3.472148   2.172387   1.091523   8.850146  10.239829
    22  H    2.783303   2.173942   1.092996   8.042200   9.416536
    23  H    4.893433   6.338832   7.354430   1.078508   2.144150
    24  C    7.574296   9.014532  10.024676   2.493750   1.507710
    25  Cl   9.359190  10.609928  11.870225   4.036987   2.746289
    26  H    8.197356   9.176631  10.602142   3.868448   3.383592
    27  H    6.103497   6.902395   8.379886   3.393049   3.851775
    28  F    8.433164   9.844418  10.846670   3.423502   2.364061
    29  F    8.449009   9.898781  10.897431   3.422961   2.363728
    30  F    6.969309   8.463270   9.318741   2.676859   2.361683
                   11         12         13         14         15
    11  C    0.000000
    12  C    1.387542   0.000000
    13  C    2.400788   1.384001   0.000000
    14  H    4.681523   3.875919   2.494105   0.000000
    15  H    6.637659   5.991965   4.628499   2.178540   0.000000
    16  H    7.818718   7.596380   6.390305   4.357116   2.665261
    17  H    7.678488   7.487561   6.300498   4.339020   2.939110
    18  H    8.897724   8.335683   6.994462   4.604733   2.752106
    19  H    9.000694   8.408052   7.047699   4.588379   2.419461
    20  H   10.242315   9.963468   8.707046   6.487853   4.588745
    21  H   11.025937  10.559240   9.222722   6.808297   4.700671
    22  H   10.325952  10.017767   8.743653   6.470479   4.392279
    23  H    3.394233   3.863957   3.388026   3.713948   4.722058
    24  C    2.521892   3.790944   4.273875   5.801392   7.248713
    25  Cl   1.741646   2.696545   3.991138   6.384425   8.372924
    26  H    2.141506   1.082968   2.144676   4.554593   6.715965
    27  H    3.378966   2.134719   1.085529   2.256872   4.402588
    28  F    2.984507   4.283732   4.941456   6.613621   8.145046
    29  F    2.982798   4.282139   4.940547   6.602386   8.052413
    30  F    3.653809   4.762549   4.923406   5.922309   7.008765
                   16         17         18         19         20
    16  H    0.000000
    17  H    1.759395   0.000000
    18  H    3.059673   2.488826   0.000000
    19  H    2.519778   3.061367   1.759881   0.000000
    20  H    3.098115   2.590843   2.522742   3.071586   0.000000
    21  H    3.758216   3.776008   2.506226   2.498607   1.763881
    22  H    2.564080   3.145798   3.077170   2.515348   1.765030
    23  H    4.925933   4.747300   6.566350   6.693061   7.316099
    24  C    7.563683   7.378476   9.195149   9.340016   9.938246
    25  Cl   9.508128   9.359771  10.626272  10.739418  11.937381
    26  H    8.512591   8.416481   9.069872   9.129786  10.838826
    27  H    6.524063   6.467687   6.764328   6.783605   8.711280
    28  F    8.531560   8.120059   9.915251  10.250375  10.667335
    29  F    8.309648   8.350481  10.170137  10.132432  10.880590
    30  F    6.870791   6.671778   8.724299   8.879834   9.154562
                   21         22         23         24         25
    21  H    0.000000
    22  H    1.763980   0.000000
    23  H    8.352832   7.425663   0.000000
    24  C   11.029857  10.067693   2.681128   0.000000
    25  Cl  12.759731  12.032151   4.890270   3.089666   0.000000
    26  H   11.339908  10.882393   4.946920   4.661211   2.819208
    27  H    9.037291   8.719827   4.290480   5.359394   4.831094
    28  F   11.839243  10.975305   3.640906   1.341623   3.060923
    29  F   11.910719  10.840027   3.643923   1.341953   3.059317
    30  F   10.364211   9.298975   2.299473   1.337870   4.423574
                   26         27         28         29         30
    26  H    0.000000
    27  H    2.458654   0.000000
    28  F    5.011068   5.997578   0.000000
    29  F    5.009770   5.997139   2.156885   0.000000
    30  F    5.735920   5.981025   2.150705   2.150411   0.000000
 Stoichiometry    C11H12ClF3N2O
 Framework group  C1[X(C11H12ClF3N2O)]
 Deg. of freedom    84
 Full point group                 C1      NOp   1
 Largest Abelian subgroup         C1      NOp   1
 Largest concise Abelian subgroup C1      NOp   1
                         Standard orientation:                         
 ---------------------------------------------------------------------
 Center     Atomic      Atomic             Coordinates (Angstroms)
 Number     Number       Type             X           Y           Z
 ---------------------------------------------------------------------
      1          6           0        0.050698   -1.063174    0.037397
      2          7           0        1.443550   -1.164498    0.085418
      3          6           0        2.370383   -0.134155   -0.016328
      4          8           0        2.064411    1.030724   -0.180875
      5          7           0        3.665913   -0.559663    0.061377
      6          6           0        4.751177    0.411693    0.093473
      7          6           0        6.091327   -0.287789   -0.078439
      8          6           0        7.247930    0.704527   -0.045097
      9          6           0       -0.640841    0.152053    0.043240
     10          6           0       -2.031492    0.161329    0.014884
     11          6           0       -2.749388   -1.032471   -0.018155
     12          6           0       -2.066208   -2.240154   -0.024401
     13          6           0       -0.682528   -2.253725    0.002165
     14          1           0        1.805831   -2.107434    0.087176
     15          1           0        3.856987   -1.471052    0.452983
     16          1           0        4.732951    0.978751    1.031574
     17          1           0        4.586642    1.125171   -0.715602
     18          1           0        6.088837   -0.834723   -1.026213
     19          1           0        6.221170   -1.030231    0.717761
     20          1           0        7.154516    1.444600   -0.843880
     21          1           0        8.206561    0.198274   -0.172204
     22          1           0        7.280180    1.243611    0.905160
     23          1           0       -0.095963    1.082561    0.064301
     24          6           0       -2.745768    1.489085    0.022804
     25         17           0       -4.490457   -1.059686   -0.053792
     26          1           0       -2.620936   -3.169858   -0.051748
     27          1           0       -0.163012   -3.206841   -0.004656
     28          9           0       -3.508362    1.656104   -1.068300
     29          9           0       -3.551808    1.618946    1.087827
     30          9           0       -1.891972    2.518489    0.058248
 ---------------------------------------------------------------------
 Rotational constants (GHZ):      0.8841516      0.1405969      0.1243046
 Standard basis: 6-311+G(d) (5D, 7F)
 There are   458 symmetry adapted cartesian basis functions of A   symmetry.
 There are   440 symmetry adapted basis functions of A   symmetry.
   440 basis functions,   725 primitive gaussians,   458 cartesian basis functions
    72 alpha electrons       72 beta electrons
       nuclear repulsion energy      1445.0146756403 Hartrees.
 NAtoms=   30 NActive=   30 NUniq=   30 SFac= 1.00D+00 NAtFMM=   60 NAOKFM=F Big=F
 Integral buffers will be    131072 words long.
 Raffenetti 2 integral format.
 Two-electron integral symmetry is turned on.
 Nuclear repulsion after empirical dispersion term =     1445.0133529866 Hartrees.
 ------------------------------------------------------------------------------
 Polarizable Continuum Model (PCM)
 =================================
 Model                : PCM (using non-symmetric T matrix).
 Atomic radii         : SMD-Coulomb.
 Polarization charges : Total charges.
 Charge compensation  : None.
 Solution method      : On-the-fly selection.
 Cavity type          : VdW (van der Waals Surface) (Alpha=1.000).
 Cavity algorithm     : GePol (No added spheres)
                        Default sphere list used, NSphG=   30.
                        Lebedev-Laikov grids with approx.  5.0 points / Ang**2.
                        Smoothing algorithm: York/Karplus (Gamma=1.0000).
                        Polarization charges: spherical gaussians, with
                                              point-specific exponents (IZeta= 3).
                        Self-potential: point-specific (ISelfS= 7).
                        Self-field    : sphere-specific E.n sum rule (ISelfD= 2).
 1st derivatives      : Analytical E(r).r(x)/FMM algorithm (CHGder, D1EAlg=3).
                        Cavity 1st derivative terms included.
 Solvent              : n-Pentadecane, Eps=   2.033300 Eps(inf)=   2.049192
 ------------------------------------------------------------------------------
 ------------------------------------------------------------------------------
 Atomic radii for non-electrostatic terms: SMD-CDS.
 ------------------------------------------------------------------------------
 Nuclear repulsion after PCM non-electrostatic terms =     1445.0060011309 Hartrees.
 One-electron integrals computed using PRISM.
 NBasis=   440 RedAO= T EigKep=  1.07D-06  NBF=   440
 NBsUse=   439 1.00D-06 EigRej=  2.62D-07 NBFU=   439
 ExpMin= 4.38D-02 ExpMax= 1.06D+05 ExpMxC= 3.62D+03 IAcc=3 IRadAn=         5 AccDes= 0.00D+00
 Harris functional with IExCor= 1009 and IRadAn=       5 diagonalized for initial guess.
 HarFok:  IExCor= 1009 AccDes= 0.00D+00 IRadAn=         5 IDoV= 1 UseB2=F ITyADJ=14
 ICtDFT=  3500011 ScaDFX=  1.000000  1.000000  1.000000  1.000000
 FoFCou: FMM=F IPFlag=           0 FMFlag=      100000 FMFlg1=           0
         NFxFlg=           0 DoJE=T BraDBF=F KetDBF=T FulRan=T
         wScrn=  0.000000 ICntrl=     500 IOpCl=  0 I1Cent=   200000004 NGrid=           0
         NMat0=    1 NMatS0=      1 NMatT0=    0 NMatD0=    1 NMtDS0=    0 NMtDT0=    0
 Petite list used in FoFCou.
 Requested convergence on RMS density matrix=1.00D-08 within 128 cycles.
 Requested convergence on MAX density matrix=1.00D-06.
 Requested convergence on             energy=1.00D-06.
 No special actions if energy rises.
 Inv3:  Mode=1 IEnd=    18022203.
 Iteration    1 A*A^-1 deviation from unit magnitude is 5.33D-15 for    602.
 Iteration    1 A*A^-1 deviation from orthogonality  is 2.09D-15 for    930     68.
 Iteration    1 A^-1*A deviation from unit magnitude is 4.66D-15 for    601.
 Iteration    1 A^-1*A deviation from orthogonality  is 9.50D-14 for   1361   1335.
 Error on total polarization charges =  0.02027
 SCF Done:  E(RM062X) =  -1370.81099008     A.U. after   15 cycles
            NFock= 15  Conv=0.98D-08     -V/T= 2.0029
 SMD-CDS (non-electrostatic) energy       (kcal/mol) =      -4.61
 (included in total energy above)

 **********************************************************************

            Population analysis using the SCF density.

 **********************************************************************

 Orbital symmetries:
       Occupied  (A) (A) (A) (A) (A) (A) (A) (A) (A) (A) (A) (A)
                 (A) (A) (A) (A) (A) (A) (A) (A) (A) (A) (A) (A)
                 (A) (A) (A) (A) (A) (A) (A) (A) (A) (A) (A) (A)
                 (A) (A) (A) (A) (A) (A) (A) (A) (A) (A) (A) (A)
                 (A) (A) (A) (A) (A) (A) (A) (A) (A) (A) (A) (A)
                 (A) (A) (A) (A) (A) (A) (A) (A) (A) (A) (A) (A)
       Virtual   (A) (A) (A) (A) (A) (A) (A) (A) (A) (A) (A) (A)
                 (A) (A) (A) (A) (A) (A) (A) (A) (A) (A) (A) (A)
                 (A) (A) (A) (A) (A) (A) (A) (A) (A) (A) (A) (A)
                 (A) (A) (A) (A) (A) (A) (A) (A) (A) (A) (A) (A)
                 (A) (A) (A) (A) (A) (A) (A) (A) (A) (A) (A) (A)
                 (A) (A) (A) (A) (A) (A) (A) (A) (A) (A) (A) (A)
                 (A) (A) (A) (A) (A) (A) (A) (A) (A) (A) (A) (A)
                 (A) (A) (A) (A) (A) (A) (A) (A) (A) (A) (A) (A)
                 (A) (A) (A) (A) (A) (A) (A) (A) (A) (A) (A) (A)
                 (A) (A) (A) (A) (A) (A) (A) (A) (A) (A) (A) (A)
                 (A) (A) (A) (A) (A) (A) (A) (A) (A) (A) (A) (A)
                 (A) (A) (A) (A) (A) (A) (A) (A) (A) (A) (A) (A)
                 (A) (A) (A) (A) (A) (A) (A) (A) (A) (A) (A) (A)
                 (A) (A) (A) (A) (A) (A) (A) (A) (A) (A) (A) (A)
                 (A) (A) (A) (A) (A) (A) (A) (A) (A) (A) (A) (A)
                 (A) (A) (A) (A) (A) (A) (A) (A) (A) (A) (A) (A)
                 (A) (A) (A) (A) (A) (A) (A) (A) (A) (A) (A) (A)
                 (A) (A) (A) (A) (A) (A) (A) (A) (A) (A) (A) (A)
                 (A) (A) (A) (A) (A) (A) (A) (A) (A) (A) (A) (A)
                 (A) (A) (A) (A) (A) (A) (A) (A) (A) (A) (A) (A)
                 (A) (A) (A) (A) (A) (A) (A) (A) (A) (A) (A) (A)
                 (A) (A) (A) (A) (A) (A) (A) (A) (A) (A) (A) (A)
                 (A) (A) (A) (A) (A) (A) (A) (A) (A) (A) (A) (A)
                 (A) (A) (A) (A) (A) (A) (A) (A) (A) (A) (A) (A)
                 (A) (A) (A) (A) (A) (A) (A) (A) (A) (A) (A) (A)
                 (A) (A) (A) (A) (A) (A) (A) (A) (A) (A) (A) (A)
                 (A) (A) (A) (A) (A) (A) (A) (A) (A) (A) (A) (A)
                 (A) (A) (A) (A) (A) (A) (A) (A) (A) (A) (A) (A)
                 (A) (A) (A) (A) (A) (A) (A) (A) (A) (A) (A) (A)
                 (A) (A) (A) (A) (A) (A) (A) (A) (A) (A) (A) (A)
                 (A) (A) (A) (A) (A) (A) (A)
 The electronic state is 1-A.
 Alpha  occ. eigenvalues -- -102.68381 -25.27815 -25.27436 -25.27424 -19.59747
 Alpha  occ. eigenvalues --  -14.79750 -14.77585 -10.80551 -10.68525 -10.62149
 Alpha  occ. eigenvalues --  -10.61597 -10.58824 -10.57353 -10.57100 -10.56934
 Alpha  occ. eigenvalues --  -10.56462 -10.54268 -10.52850  -9.82657  -7.55177
 Alpha  occ. eigenvalues --   -7.54486  -7.54478  -1.47119  -1.37688  -1.37374
 Alpha  occ. eigenvalues --   -1.19131  -1.07419  -1.04068  -1.01285  -0.94851
 Alpha  occ. eigenvalues --   -0.90352  -0.88963  -0.84804  -0.81469  -0.78334
 Alpha  occ. eigenvalues --   -0.74533  -0.72562  -0.69878  -0.69409  -0.69361
 Alpha  occ. eigenvalues --   -0.68525  -0.66581  -0.64231  -0.60024  -0.57724
 Alpha  occ. eigenvalues --   -0.57594  -0.57466  -0.56551  -0.55547  -0.54189
 Alpha  occ. eigenvalues --   -0.53577  -0.53351  -0.52965  -0.51578  -0.51225
 Alpha  occ. eigenvalues --   -0.51056  -0.49148  -0.48957  -0.47680  -0.46366
 Alpha  occ. eigenvalues --   -0.45948  -0.44307  -0.43225  -0.42937  -0.41044
 Alpha  occ. eigenvalues --   -0.40342  -0.38565  -0.37515  -0.35896  -0.33851
 Alpha  occ. eigenvalues --   -0.33082  -0.28072
 Alpha virt. eigenvalues --   -0.01248  -0.00432   0.00140   0.01683   0.02192
 Alpha virt. eigenvalues --    0.02800   0.03154   0.03357   0.04543   0.04693
 Alpha virt. eigenvalues --    0.05178   0.05515   0.06504   0.06757   0.06858
 Alpha virt. eigenvalues --    0.07175   0.07302   0.07897   0.08260   0.08674
 Alpha virt. eigenvalues --    0.08764   0.09200   0.09380   0.10445   0.11399
 Alpha virt. eigenvalues --    0.11680   0.11895   0.12315   0.12969   0.13294
 Alpha virt. eigenvalues --    0.13633   0.14320   0.14505   0.15036   0.15770
 Alpha virt. eigenvalues --    0.16414   0.17236   0.17622   0.18011   0.18183
 Alpha virt. eigenvalues --    0.18520   0.19011   0.19415   0.19877   0.20383
 Alpha virt. eigenvalues --    0.20807   0.21164   0.21345   0.21643   0.21963
 Alpha virt. eigenvalues --    0.22263   0.22663   0.22759   0.23235   0.23898
 Alpha virt. eigenvalues --    0.24171   0.24608   0.24865   0.25149   0.25550
 Alpha virt. eigenvalues --    0.26314   0.26601   0.26928   0.27713   0.27788
 Alpha virt. eigenvalues --    0.28092   0.28265   0.28843   0.29321   0.29612
 Alpha virt. eigenvalues --    0.30081   0.30461   0.30789   0.31221   0.31549
 Alpha virt. eigenvalues --    0.31809   0.32305   0.32745   0.33430   0.33986
 Alpha virt. eigenvalues --    0.34780   0.35232   0.35554   0.36238   0.36843
 Alpha virt. eigenvalues --    0.37175   0.37763   0.38228   0.39701   0.40547
 Alpha virt. eigenvalues --    0.40964   0.41732   0.42446   0.42870   0.43681
 Alpha virt. eigenvalues --    0.44214   0.44652   0.45595   0.45985   0.47423
 Alpha virt. eigenvalues --    0.48168   0.48493   0.49275   0.50199   0.50718
 Alpha virt. eigenvalues --    0.51135   0.51348   0.52706   0.53431   0.55683
 Alpha virt. eigenvalues --    0.56684   0.57105   0.58625   0.59959   0.60129
 Alpha virt. eigenvalues --    0.61749   0.62411   0.63221   0.63389   0.64273
 Alpha virt. eigenvalues --    0.64367   0.65592   0.66311   0.66481   0.67472
 Alpha virt. eigenvalues --    0.68163   0.69150   0.70482   0.70737   0.71250
 Alpha virt. eigenvalues --    0.72068   0.72200   0.72962   0.73302   0.73858
 Alpha virt. eigenvalues --    0.74372   0.76044   0.76419   0.76726   0.77222
 Alpha virt. eigenvalues --    0.78171   0.78262   0.79667   0.80471   0.83760
 Alpha virt. eigenvalues --    0.84137   0.84355   0.86885   0.87797   0.88939
 Alpha virt. eigenvalues --    0.90913   0.91526   0.92227   0.93938   0.94662
 Alpha virt. eigenvalues --    0.94744   0.95486   0.95705   0.96737   0.97328
 Alpha virt. eigenvalues --    0.98898   0.99975   1.01396   1.03000   1.04105
 Alpha virt. eigenvalues --    1.05223   1.06588   1.07086   1.08433   1.10249
 Alpha virt. eigenvalues --    1.10747   1.12196   1.13997   1.16372   1.18374
 Alpha virt. eigenvalues --    1.20609   1.21912   1.23419   1.23982   1.25223
 Alpha virt. eigenvalues --    1.26780   1.27647   1.29288   1.32169   1.33956
 Alpha virt. eigenvalues --    1.34407   1.36094   1.39299   1.40081   1.43056
 Alpha virt. eigenvalues --    1.44549   1.45734   1.46963   1.48864   1.49517
 Alpha virt. eigenvalues --    1.50176   1.50716   1.52512   1.53281   1.53856
 Alpha virt. eigenvalues --    1.54012   1.55718   1.56900   1.57963   1.58315
 Alpha virt. eigenvalues --    1.59296   1.60343   1.61524   1.62592   1.63540
 Alpha virt. eigenvalues --    1.64061   1.67397   1.68363   1.72289   1.74659
 Alpha virt. eigenvalues --    1.74721   1.76331   1.78471   1.78796   1.79988
 Alpha virt. eigenvalues --    1.80325   1.82646   1.84652   1.85411   1.86403
 Alpha virt. eigenvalues --    1.87560   1.89267   1.90658   1.95074   1.95536
 Alpha virt. eigenvalues --    1.96698   1.97728   1.99521   2.00998   2.04048
 Alpha virt. eigenvalues --    2.06144   2.07824   2.09574   2.11637   2.12935
 Alpha virt. eigenvalues --    2.15468   2.19711   2.22772   2.24231   2.27706
 Alpha virt. eigenvalues --    2.30355   2.31957   2.32227   2.33799   2.34973
 Alpha virt. eigenvalues --    2.37073   2.38532   2.41352   2.46487   2.48820
 Alpha virt. eigenvalues --    2.52068   2.54585   2.54650   2.55994   2.57480
 Alpha virt. eigenvalues --    2.58258   2.59867   2.61515   2.62633   2.64955
 Alpha virt. eigenvalues --    2.67430   2.70970   2.72213   2.76800   2.81150
 Alpha virt. eigenvalues --    2.82485   2.84733   2.85677   2.86384   2.89745
 Alpha virt. eigenvalues --    2.94858   2.94877   2.96527   3.00299   3.02012
 Alpha virt. eigenvalues --    3.02653   3.05093   3.06054   3.10710   3.12048
 Alpha virt. eigenvalues --    3.12213   3.17188   3.19786   3.24718   3.25152
 Alpha virt. eigenvalues --    3.27125   3.28875   3.31179   3.35988   3.38934
 Alpha virt. eigenvalues --    3.41146   3.42356   3.43645   3.44569   3.52674
 Alpha virt. eigenvalues --    3.56721   3.66133   3.67559   3.71067   3.75748
 Alpha virt. eigenvalues --    3.78549   3.80653   3.82008   3.84424   3.84748
 Alpha virt. eigenvalues --    3.86983   3.87775   3.88949   3.96457   3.98719
 Alpha virt. eigenvalues --    4.00518   4.01311   4.02401   4.02929   4.06243
 Alpha virt. eigenvalues --    4.08323   4.11230   4.23390   4.28266   4.32406
 Alpha virt. eigenvalues --    4.54451   4.58327   4.76671   4.81552   4.89061
 Alpha virt. eigenvalues --    4.98827   5.03208   5.18693   5.20801   5.42758
 Alpha virt. eigenvalues --    5.91164   6.45538   6.49115   6.50203   6.53919
 Alpha virt. eigenvalues --    6.56470   6.58310   6.63815   6.88021   6.92079
 Alpha virt. eigenvalues --   10.00358  23.44037  23.58253  23.66135  23.73646
 Alpha virt. eigenvalues --   23.80777  23.93668  23.93842  23.95640  24.07995
 Alpha virt. eigenvalues --   24.12722  24.19674  25.96075  26.31510  26.81397
 Alpha virt. eigenvalues --   35.58990  35.69401  50.14364  66.89079  66.92429
 Alpha virt. eigenvalues --   66.97623 216.11298
          Condensed to atoms (all electrons):
               1          2          3          4          5          6
     1  C   26.317040  -0.148817  -1.056260  -0.252428  -0.342233  -0.815993
     2  N   -0.148817   7.982833   0.147494  -0.073088  -0.687612  -0.493967
     3  C   -1.056260   0.147494   8.601951   0.682292   0.214702  -1.206028
     4  O   -0.252428  -0.073088   0.682292   8.076273  -0.184227  -0.101520
     5  N   -0.342233  -0.687612   0.214702  -0.184227   7.843987   0.703229
     6  C   -0.815993  -0.493967  -1.206028  -0.101520   0.703229   8.692071
     7  C    0.038994   0.036811   0.276711   0.014593  -0.172031  -0.938183
     8  C   -0.018933  -0.010695  -0.228852  -0.001486   0.005722   0.382117
     9  C   -3.140357   0.129792   1.445603   0.289896   0.047896   0.226573
    10  C   -5.913483   0.081159   0.189343   0.019018   0.048483   0.063793
    11  C   -5.165628   0.057363  -0.770856  -0.037818  -0.068055  -0.079064
    12  C    2.369221   0.043973   0.853554   0.014202   0.044178   0.049109
    13  C   -2.727370   0.013242  -3.463887  -0.081120  -0.339359  -0.505075
    14  H    0.040326   0.213998   0.021520  -0.002844   0.076638   0.035074
    15  H   -0.031367   0.091998   0.033797  -0.002321   0.229862  -0.078239
    16  H    0.002567   0.006319   0.062064  -0.003355  -0.092892   0.398367
    17  H    0.000091   0.011777   0.043464  -0.000045  -0.045096   0.349139
    18  H    0.004038   0.000174   0.033709  -0.000067   0.004269  -0.100093
    19  H   -0.004487  -0.001246  -0.024540  -0.000312   0.001574  -0.042331
    20  H   -0.000360  -0.000093  -0.009367  -0.000098  -0.000336  -0.045295
    21  H    0.000046  -0.000003   0.003393   0.000023  -0.001255   0.072785
    22  H    0.000308   0.000067   0.010399  -0.000021   0.000711  -0.046059
    23  H   -0.040537  -0.023316   0.075795   0.006712   0.004506   0.007371
    24  C   -2.748134   0.012169  -0.003975  -0.000826   0.018239   0.007788
    25  Cl   0.061213  -0.002304  -0.055038   0.000475  -0.000225  -0.001221
    26  H   -0.060844  -0.002635  -0.000140  -0.000009  -0.000067  -0.000002
    27  H    0.224518  -0.023141   0.017501  -0.000049  -0.000144   0.000576
    28  F    0.018981   0.000504   0.002521   0.000020   0.000008   0.000002
    29  F   -0.002770   0.000612   0.002185  -0.000021   0.000021   0.000035
    30  F    0.250984  -0.000555   0.006990  -0.000298  -0.000098   0.000120
               7          8          9         10         11         12
     1  C    0.038994  -0.018933  -3.140357  -5.913483  -5.165628   2.369221
     2  N    0.036811  -0.010695   0.129792   0.081159   0.057363   0.043973
     3  C    0.276711  -0.228852   1.445603   0.189343  -0.770856   0.853554
     4  O    0.014593  -0.001486   0.289896   0.019018  -0.037818   0.014202
     5  N   -0.172031   0.005722   0.047896   0.048483  -0.068055   0.044178
     6  C   -0.938183   0.382117   0.226573   0.063793  -0.079064   0.049109
     7  C    6.304446  -0.195093  -0.023737  -0.007512   0.002933  -0.001016
     8  C   -0.195093   6.079422  -0.000850   0.000432  -0.000424   0.000185
     9  C   -0.023737  -0.000850  18.661922   4.550729  -9.051756   1.355785
    10  C   -0.007512   0.000432   4.550729  37.631419 -13.425380 -11.038316
    11  C    0.002933  -0.000424  -9.051756 -13.425380  44.318688  -7.997045
    12  C   -0.001016   0.000185   1.355785 -11.038316  -7.997045  25.056931
    13  C    0.039449  -0.005444  -9.332106  -2.501897   1.422097  -3.907230
    14  H   -0.004424   0.000195   0.132890   0.023092  -0.019666   0.030886
    15  H    0.005343   0.005479   0.030135   0.000077   0.001253  -0.001118
    16  H   -0.066975  -0.003911   0.003474   0.000865   0.000230  -0.000080
    17  H   -0.000161  -0.023690   0.001278   0.000240   0.000160   0.000004
    18  H    0.456057  -0.054878  -0.000391  -0.000012   0.000010  -0.000013
    19  H    0.441250  -0.031107   0.001277   0.000058  -0.000005  -0.000004
    20  H    0.005963   0.394383   0.000038   0.000002   0.000000   0.000000
    21  H   -0.114388   0.389993   0.000012   0.000000   0.000000  -0.000000
    22  H    0.019224   0.362072  -0.000026  -0.000004   0.000000  -0.000000
    23  H   -0.000451   0.000049   0.372948  -0.059167  -0.023486  -0.008175
    24  C   -0.000863  -0.000003   0.088665  -3.448849  -2.120780  -0.505158
    25  Cl   0.000021  -0.000003  -0.018866   0.828955  -1.715125  -0.257544
    26  H    0.000001  -0.000000  -0.018468   0.135726   0.204978   0.050226
    27  H   -0.000012   0.000005   0.035811  -0.024636  -0.116059   0.098012
    28  F   -0.000001  -0.000000   0.022519   0.138589  -0.158345   0.112334
    29  F   -0.000000   0.000000  -0.010162   0.156211  -0.141312   0.100459
    30  F    0.000007  -0.000001   0.210344  -0.375564  -0.182917  -0.002144
              13         14         15         16         17         18
     1  C   -2.727370   0.040326  -0.031367   0.002567   0.000091   0.004038
     2  N    0.013242   0.213998   0.091998   0.006319   0.011777   0.000174
     3  C   -3.463887   0.021520   0.033797   0.062064   0.043464   0.033709
     4  O   -0.081120  -0.002844  -0.002321  -0.003355  -0.000045  -0.000067
     5  N   -0.339359   0.076638   0.229862  -0.092892  -0.045096   0.004269
     6  C   -0.505075   0.035074  -0.078239   0.398367   0.349139  -0.100093
     7  C    0.039449  -0.004424   0.005343  -0.066975  -0.000161   0.456057
     8  C   -0.005444   0.000195   0.005479  -0.003911  -0.023690  -0.054878
     9  C   -9.332106   0.132890   0.030135   0.003474   0.001278  -0.000391
    10  C   -2.501897   0.023092   0.000077   0.000865   0.000240  -0.000012
    11  C    1.422097  -0.019666   0.001253   0.000230   0.000160   0.000010
    12  C   -3.907230   0.030886  -0.001118  -0.000080   0.000004  -0.000013
    13  C   26.686260  -0.282887  -0.014189  -0.001267   0.000825   0.000465
    14  H   -0.282887   0.354885   0.001577   0.000224   0.000008  -0.000028
    15  H   -0.014189   0.001577   0.366746   0.001862   0.002239  -0.000869
    16  H   -0.001267   0.000224   0.001862   0.462822  -0.038308   0.006086
    17  H    0.000825   0.000008   0.002239  -0.038308   0.424742  -0.007851
    18  H    0.000465  -0.000028  -0.000869   0.006086  -0.007851   0.443824
    19  H   -0.001001   0.000094   0.003579  -0.009084   0.005168  -0.044323
    20  H   -0.000013   0.000001  -0.000023  -0.000833   0.003469  -0.008369
    21  H   -0.000002  -0.000000  -0.000021  -0.000084  -0.000210  -0.003416
    22  H    0.000028  -0.000001   0.000037   0.003225  -0.000159   0.005892
    23  H   -0.044948   0.000396  -0.000038   0.000014  -0.000033   0.000000
    24  C    0.853181   0.001743  -0.000249  -0.000049  -0.000080   0.000003
    25  Cl   0.450550  -0.000126  -0.000004  -0.000000   0.000000   0.000000
    26  H    0.009483  -0.000021   0.000000   0.000000   0.000000  -0.000000
    27  H    0.102668   0.009680   0.000051   0.000000   0.000000  -0.000000
    28  F   -0.029757   0.000002  -0.000000  -0.000000  -0.000000   0.000000
    29  F   -0.019692   0.000002   0.000000   0.000000  -0.000000   0.000000
    30  F   -0.001666  -0.000009   0.000000  -0.000000   0.000001  -0.000000
              19         20         21         22         23         24
     1  C   -0.004487  -0.000360   0.000046   0.000308  -0.040537  -2.748134
     2  N   -0.001246  -0.000093  -0.000003   0.000067  -0.023316   0.012169
     3  C   -0.024540  -0.009367   0.003393   0.010399   0.075795  -0.003975
     4  O   -0.000312  -0.000098   0.000023  -0.000021   0.006712  -0.000826
     5  N    0.001574  -0.000336  -0.001255   0.000711   0.004506   0.018239
     6  C   -0.042331  -0.045295   0.072785  -0.046059   0.007371   0.007788
     7  C    0.441250   0.005963  -0.114388   0.019224  -0.000451  -0.000863
     8  C   -0.031107   0.394383   0.389993   0.362072   0.000049  -0.000003
     9  C    0.001277   0.000038   0.000012  -0.000026   0.372948   0.088665
    10  C    0.000058   0.000002   0.000000  -0.000004  -0.059167  -3.448849
    11  C   -0.000005   0.000000   0.000000   0.000000  -0.023486  -2.120780
    12  C   -0.000004   0.000000  -0.000000  -0.000000  -0.008175  -0.505158
    13  C   -0.001001  -0.000013  -0.000002   0.000028  -0.044948   0.853181
    14  H    0.000094   0.000001  -0.000000  -0.000001   0.000396   0.001743
    15  H    0.003579  -0.000023  -0.000021   0.000037  -0.000038  -0.000249
    16  H   -0.009084  -0.000833  -0.000084   0.003225   0.000014  -0.000049
    17  H    0.005168   0.003469  -0.000210  -0.000159  -0.000033  -0.000080
    18  H   -0.044323  -0.008369  -0.003416   0.005892   0.000000   0.000003
    19  H    0.470567   0.006531  -0.003431  -0.008545  -0.000000  -0.000002
    20  H    0.006531   0.447406  -0.023974  -0.035647  -0.000000  -0.000001
    21  H   -0.003431  -0.023974   0.433035  -0.025521   0.000000   0.000000
    22  H   -0.008545  -0.035647  -0.025521   0.449764   0.000000   0.000000
    23  H   -0.000000  -0.000000   0.000000   0.000000   0.333327   0.047659
    24  C   -0.000002  -0.000001   0.000000   0.000000   0.047659  13.218964
    25  Cl  -0.000000   0.000000   0.000000   0.000000  -0.002029  -0.429501
    26  H   -0.000000   0.000000  -0.000000   0.000000   0.000042   0.018452
    27  H   -0.000000  -0.000000  -0.000000   0.000000  -0.000030   0.003197
    28  F   -0.000000  -0.000000   0.000000   0.000000   0.000368   0.055078
    29  F    0.000000  -0.000000   0.000000   0.000000   0.000480   0.077310
    30  F    0.000000   0.000000  -0.000000  -0.000000   0.014496   0.230933
              25         26         27         28         29         30
     1  C    0.061213  -0.060844   0.224518   0.018981  -0.002770   0.250984
     2  N   -0.002304  -0.002635  -0.023141   0.000504   0.000612  -0.000555
     3  C   -0.055038  -0.000140   0.017501   0.002521   0.002185   0.006990
     4  O    0.000475  -0.000009  -0.000049   0.000020  -0.000021  -0.000298
     5  N   -0.000225  -0.000067  -0.000144   0.000008   0.000021  -0.000098
     6  C   -0.001221  -0.000002   0.000576   0.000002   0.000035   0.000120
     7  C    0.000021   0.000001  -0.000012  -0.000001  -0.000000   0.000007
     8  C   -0.000003  -0.000000   0.000005  -0.000000   0.000000  -0.000001
     9  C   -0.018866  -0.018468   0.035811   0.022519  -0.010162   0.210344
    10  C    0.828955   0.135726  -0.024636   0.138589   0.156211  -0.375564
    11  C   -1.715125   0.204978  -0.116059  -0.158345  -0.141312  -0.182917
    12  C   -0.257544   0.050226   0.098012   0.112334   0.100459  -0.002144
    13  C    0.450550   0.009483   0.102668  -0.029757  -0.019692  -0.001666
    14  H   -0.000126  -0.000021   0.009680   0.000002   0.000002  -0.000009
    15  H   -0.000004   0.000000   0.000051  -0.000000   0.000000   0.000000
    16  H   -0.000000   0.000000   0.000000  -0.000000   0.000000  -0.000000
    17  H    0.000000   0.000000   0.000000  -0.000000  -0.000000   0.000001
    18  H    0.000000  -0.000000  -0.000000   0.000000   0.000000  -0.000000
    19  H   -0.000000  -0.000000  -0.000000  -0.000000   0.000000   0.000000
    20  H    0.000000   0.000000  -0.000000  -0.000000  -0.000000   0.000000
    21  H    0.000000  -0.000000  -0.000000   0.000000   0.000000  -0.000000
    22  H    0.000000   0.000000   0.000000   0.000000   0.000000  -0.000000
    23  H   -0.002029   0.000042  -0.000030   0.000368   0.000480   0.014496
    24  C   -0.429501   0.018452   0.003197   0.055078   0.077310   0.230933
    25  Cl  17.765844  -0.018414   0.000201  -0.018531  -0.019318   0.011467
    26  H   -0.018414   0.392200  -0.004588  -0.000028  -0.000026   0.000030
    27  H    0.000201  -0.004588   0.417988   0.000003   0.000002  -0.000008
    28  F   -0.018531  -0.000028   0.000003   8.980671  -0.046746  -0.035677
    29  F   -0.019318  -0.000026   0.000002  -0.046746   8.980278  -0.035042
    30  F    0.011467   0.000030  -0.000008  -0.035677  -0.035042   9.037077
 Mulliken charges:
               1
     1  C   -0.858324
     2  N   -0.362811
     3  C    0.093956
     4  O   -0.361555
     5  N   -0.310398
     6  C   -0.535079
     7  C   -0.116955
     8  C   -1.044682
     9  C   -0.010866
    10  C   -1.073373
    11  C    1.066008
    12  C   -0.461218
    13  C   -0.319339
    14  H    0.366774
    15  H    0.354401
    16  H    0.268716
    17  H    0.273027
    18  H    0.265780
    19  H    0.240319
    20  H    0.266618
    21  H    0.273019
    22  H    0.264255
    23  H    0.338048
    24  C    0.625088
    25  Cl   0.419524
    26  H    0.294105
    27  H    0.258453
    28  F   -0.042515
    29  F   -0.042507
    30  F   -0.128473
 Sum of Mulliken charges =  -0.00000
 Mulliken charges with hydrogens summed into heavy atoms:
               1
     1  C   -0.858324
     2  N    0.003963
     3  C    0.093956
     4  O   -0.361555
     5  N    0.044004
     6  C    0.006664
     7  C    0.389145
     8  C   -0.240790
     9  C    0.327182
    10  C   -1.073373
    11  C    1.066008
    12  C   -0.167113
    13  C   -0.060885
    24  C    0.625088
    25  Cl   0.419524
    28  F   -0.042515
    29  F   -0.042507
    30  F   -0.128473
 Electronic spatial extent (au):  <R**2>=           8131.1340
 Charge=             -0.0000 electrons
 Dipole moment (field-independent basis, Debye):
    X=              6.8677    Y=             -6.5544    Z=              0.9123  Tot=              9.5371
 Quadrupole moment (field-independent basis, Debye-Ang):
   XX=           -102.3793   YY=           -104.6158   ZZ=           -115.3279
   XY=             -3.6122   XZ=              3.1407   YZ=             -0.7023
 Traceless Quadrupole moment (field-independent basis, Debye-Ang):
   XX=              5.0618   YY=              2.8252   ZZ=             -7.8869
   XY=             -3.6122   XZ=              3.1407   YZ=             -0.7023
 Octapole moment (field-independent basis, Debye-Ang**2):
  XXX=            122.2558  YYY=            -13.9503  ZZZ=              0.2866  XYY=             -4.5905
  XXY=            -23.5140  XXZ=              9.2918  XZZ=             -7.1687  YZZ=             15.9434
  YYZ=              2.0557  XYZ=             -4.3635
 Hexadecapole moment (field-independent basis, Debye-Ang**3):
 XXXX=          -8482.6039 YYYY=          -1176.2262 ZZZZ=           -211.7300 XXXY=           -110.2277
 XXXZ=             31.5622 YYYX=            -91.8661 YYYZ=             -3.6565 ZZZX=              1.0791
 ZZZY=              0.4910 XXYY=          -1692.3567 XXZZ=          -1557.9230 YYZZ=           -259.7718
 XXYZ=            -17.7530 YYXZ=              9.2223 ZZXY=            -26.0481
 N-N= 1.445006001131D+03 E-N=-6.120940899922D+03  KE= 1.366883139898D+03
 D1PCM: PCM CHGder 1st derivatives, ID1Alg=3 FixD1E=F DoIter=F DoCFld=F I1PDM=0.
 Calling FoFJK, ICntrl=      2127 FMM=F ISym2X=0 I1Cent= 0 IOpClX= 0 NMat=1 NMatS=1 NMatT=0.
 ***** Axes restored to original set *****
 -------------------------------------------------------------------
 Center     Atomic                   Forces (Hartrees/Bohr)
 Number     Number              X              Y              Z
 -------------------------------------------------------------------
      1        6          -0.000003555    0.000004232   -0.000001571
      2        7           0.000008223    0.000000615    0.000002664
      3        6           0.000008482   -0.000017998    0.000011431
      4        8           0.000000229    0.000005902   -0.000006995
      5        7          -0.000010690    0.000013138   -0.000001548
      6        6           0.000003384    0.000001232   -0.000002270
      7        6          -0.000001709    0.000001221   -0.000002522
      8        6           0.000001430    0.000002009   -0.000000334
      9        6           0.000002946   -0.000003516    0.000002633
     10        6          -0.000000842   -0.000000548    0.000001739
     11        6          -0.000001216   -0.000000475    0.000000279
     12        6           0.000000887   -0.000002167    0.000002432
     13        6          -0.000001508    0.000000330    0.000001813
     14        1          -0.000000345   -0.000000817   -0.000003258
     15        1           0.000001658    0.000001407   -0.000001640
     16        1          -0.000001494    0.000000949   -0.000001942
     17        1          -0.000002042    0.000000151   -0.000000453
     18        1           0.000001473    0.000000450   -0.000000883
     19        1           0.000001136    0.000001190    0.000000145
     20        1          -0.000000169    0.000001863   -0.000001869
     21        1           0.000000414    0.000002043   -0.000002886
     22        1           0.000000132    0.000001378   -0.000002214
     23        1          -0.000001654   -0.000001528   -0.000000817
     24        6          -0.000008887   -0.000009565   -0.000007604
     25       17          -0.000000306   -0.000004079    0.000003150
     26        1           0.000000571   -0.000001091    0.000001883
     27        1           0.000001391   -0.000000594    0.000001960
     28        9           0.000005803    0.000000672    0.000004311
     29        9          -0.000000349    0.000004261    0.000004938
     30        9          -0.000003394   -0.000000665   -0.000000574
 -------------------------------------------------------------------
 Cartesian Forces:  Max     0.000017998 RMS     0.000004131

 GradGradGradGradGradGradGradGradGradGradGradGradGradGradGradGradGradGrad
 Berny optimization.
 FormGI is forming the generalized inverse of G from B-inverse, IUseBI=4.
 GSVD:  received Info=                   1 from GESDD.
 Internal  Forces:  Max     0.000014583 RMS     0.000002109
 Search for a local minimum.
 Step number   1 out of a maximum of  157
 All quantities printed in internal units (Hartrees-Bohrs-Radians)
 Mixed Optimization -- En-DIIS/RFO-DIIS
 Second derivative matrix not updated -- first step.
 ITU=  0
     Eigenvalues ---    0.00444   0.00482   0.00664   0.00940   0.01587
     Eigenvalues ---    0.01725   0.01727   0.01810   0.01829   0.01987
     Eigenvalues ---    0.01998   0.02126   0.02144   0.02158   0.02192
     Eigenvalues ---    0.02199   0.02217   0.02250   0.02278   0.03723
     Eigenvalues ---    0.04458   0.04935   0.05523   0.05533   0.05549
     Eigenvalues ---    0.08190   0.09200   0.10678   0.10691   0.12083
     Eigenvalues ---    0.12654   0.15129   0.15938   0.16000   0.16000
     Eigenvalues ---    0.16000   0.16000   0.16000   0.16000   0.21893
     Eigenvalues ---    0.21903   0.22024   0.22200   0.22370   0.23486
     Eigenvalues ---    0.24610   0.24996   0.24996   0.25000   0.25000
     Eigenvalues ---    0.25000   0.25000   0.25000   0.25000   0.29955
     Eigenvalues ---    0.30227   0.31311   0.31582   0.34087   0.34092
     Eigenvalues ---    0.34324   0.34469   0.34477   0.34637   0.34674
     Eigenvalues ---    0.35334   0.35638   0.36175   0.37364   0.42521
     Eigenvalues ---    0.42799   0.45940   0.45949   0.46061   0.46183
     Eigenvalues ---    0.46542   0.47368   0.47389   0.48013   0.51786
     Eigenvalues ---    0.56770   0.56843   0.57685   0.97368
 RFO step:  Lambda= 0.00000000D+00 EMin= 4.44326954D-03
 Linear search not attempted -- first point.
 Iteration  1 RMS(Cart)=  0.00006056 RMS(Int)=  0.00000000
 Iteration  2 RMS(Cart)=  0.00000000 RMS(Int)=  0.00000000
 Variable       Old X    -DE/DX   Delta X   Delta X   Delta X     New X
                                 (Linear)    (Quad)   (Total)
    R1        2.64062   0.00001   0.00000   0.00001   0.00001   2.64064
    R2        2.64226  -0.00000   0.00000  -0.00001  -0.00001   2.64226
    R3        2.64310   0.00000   0.00000   0.00000   0.00000   2.64310
    R4        2.62596  -0.00000   0.00000  -0.00000  -0.00000   2.62595
    R5        1.90888  -0.00000   0.00000  -0.00000  -0.00000   1.90888
    R6        2.29711   0.00001   0.00000   0.00001   0.00001   2.29712
    R7        2.58105  -0.00001   0.00000  -0.00003  -0.00003   2.58102
    R8        2.75301  -0.00000   0.00000  -0.00000  -0.00000   2.75301
    R9        1.90899  -0.00000   0.00000  -0.00000  -0.00000   1.90899
   R10        2.87514   0.00000   0.00000   0.00000   0.00000   2.87514
   R11        2.07175  -0.00000   0.00000  -0.00000  -0.00000   2.07174
   R12        2.06208  -0.00000   0.00000  -0.00000  -0.00000   2.06207
   R13        2.88053   0.00000   0.00000   0.00000   0.00000   2.88054
   R14        2.06786   0.00000   0.00000   0.00000   0.00000   2.06786
   R15        2.07183   0.00000   0.00000   0.00000   0.00000   2.07183
   R16        2.06533   0.00000   0.00000   0.00000   0.00000   2.06533
   R17        2.06268  -0.00000   0.00000  -0.00000  -0.00000   2.06268
   R18        2.06546  -0.00000   0.00000  -0.00000  -0.00000   2.06546
   R19        2.62855   0.00000   0.00000   0.00001   0.00001   2.62856
   R20        2.03809  -0.00000   0.00000  -0.00000  -0.00000   2.03808
   R21        2.63319   0.00000   0.00000   0.00000   0.00000   2.63319
   R22        2.84916   0.00000   0.00000   0.00000   0.00000   2.84916
   R23        2.62207  -0.00000   0.00000  -0.00000  -0.00000   2.62207
   R24        3.29123  -0.00000   0.00000  -0.00000  -0.00000   3.29123
   R25        2.61538  -0.00000   0.00000  -0.00000  -0.00000   2.61538
   R26        2.04651  -0.00000   0.00000  -0.00000  -0.00000   2.04651
   R27        2.05135   0.00000   0.00000   0.00000   0.00000   2.05135
   R28        2.53530  -0.00001   0.00000  -0.00001  -0.00001   2.53529
   R29        2.53592   0.00001   0.00000   0.00001   0.00001   2.53593
   R30        2.52821  -0.00000   0.00000  -0.00000  -0.00000   2.52821
    A1        2.16020   0.00000   0.00000   0.00001   0.00001   2.16021
    A2        2.05069  -0.00000   0.00000  -0.00000  -0.00000   2.05069
    A3        2.07217  -0.00000   0.00000  -0.00000  -0.00000   2.07216
    A4        2.22503   0.00000   0.00000   0.00001   0.00001   2.22503
    A5        2.01002  -0.00000   0.00000  -0.00001  -0.00001   2.01001
    A6        2.04099  -0.00000   0.00000  -0.00000  -0.00000   2.04099
    A7        2.15624   0.00000   0.00000  -0.00000  -0.00000   2.15624
    A8        1.97957   0.00000   0.00000   0.00001   0.00001   1.97958
    A9        2.14718  -0.00000   0.00000  -0.00001  -0.00001   2.14717
   A10        2.09455   0.00000   0.00000   0.00002   0.00002   2.09457
   A11        2.07434  -0.00000   0.00000   0.00000   0.00000   2.07434
   A12        2.03991  -0.00000   0.00000  -0.00001  -0.00001   2.03991
   A13        1.92532  -0.00000   0.00000  -0.00001  -0.00001   1.92532
   A14        1.92980  -0.00000   0.00000  -0.00001  -0.00001   1.92979
   A15        1.88315  -0.00000   0.00000  -0.00001  -0.00001   1.88314
   A16        1.92743   0.00000   0.00000   0.00001   0.00001   1.92745
   A17        1.92798   0.00000   0.00000   0.00001   0.00001   1.92799
   A18        1.86894  -0.00000   0.00000   0.00000   0.00000   1.86894
   A19        1.94613   0.00000   0.00000   0.00000   0.00000   1.94614
   A20        1.90249   0.00000   0.00000   0.00001   0.00001   1.90250
   A21        1.91091   0.00000   0.00000   0.00000   0.00000   1.91091
   A22        1.92415  -0.00000   0.00000  -0.00000  -0.00000   1.92415
   A23        1.91250  -0.00000   0.00000  -0.00001  -0.00001   1.91250
   A24        1.86586   0.00000   0.00000  -0.00000  -0.00000   1.86585
   A25        1.93904   0.00000   0.00000   0.00000   0.00000   1.93904
   A26        1.94111   0.00000   0.00000   0.00000   0.00000   1.94111
   A27        1.94173  -0.00000   0.00000  -0.00000  -0.00000   1.94173
   A28        1.87971  -0.00000   0.00000  -0.00000  -0.00000   1.87970
   A29        1.87964  -0.00000   0.00000  -0.00000  -0.00000   1.87964
   A30        1.87977   0.00000   0.00000   0.00000   0.00000   1.87977
   A31        2.09460   0.00000   0.00000   0.00000   0.00000   2.09461
   A32        2.09447  -0.00000   0.00000  -0.00000  -0.00000   2.09447
   A33        2.09410  -0.00000   0.00000  -0.00000  -0.00000   2.09409
   A34        2.10581  -0.00000   0.00000  -0.00000  -0.00000   2.10581
   A35        2.07077  -0.00000   0.00000  -0.00001  -0.00001   2.07077
   A36        2.10660   0.00000   0.00000   0.00001   0.00001   2.10661
   A37        2.08532  -0.00000   0.00000  -0.00000  -0.00000   2.08532
   A38        2.12811   0.00000   0.00000   0.00002   0.00002   2.12812
   A39        2.06976  -0.00000   0.00000  -0.00001  -0.00001   2.06974
   A40        2.09520   0.00000   0.00000   0.00000   0.00000   2.09521
   A41        2.08875  -0.00000   0.00000  -0.00000  -0.00000   2.08875
   A42        2.09923   0.00000   0.00000   0.00000   0.00000   2.09923
   A43        2.11326   0.00000   0.00000   0.00000   0.00000   2.11326
   A44        2.09052  -0.00000   0.00000  -0.00000  -0.00000   2.09052
   A45        2.07940  -0.00000   0.00000  -0.00000  -0.00000   2.07940
   A46        1.95481   0.00000   0.00000   0.00002   0.00002   1.95483
   A47        1.95405   0.00000   0.00000   0.00001   0.00001   1.95407
   A48        1.95563  -0.00000   0.00000  -0.00001  -0.00001   1.95562
   A49        1.86709   0.00000   0.00000   0.00002   0.00002   1.86711
   A50        1.86346  -0.00000   0.00000  -0.00003  -0.00003   1.86344
   A51        1.86276  -0.00000   0.00000  -0.00002  -0.00002   1.86274
    D1       -0.14701   0.00000   0.00000   0.00001   0.00001  -0.14700
    D2        3.12780   0.00000   0.00000   0.00008   0.00008   3.12787
    D3        3.01210   0.00000   0.00000   0.00002   0.00002   3.01212
    D4        0.00371   0.00000   0.00000   0.00009   0.00009   0.00380
    D5       -3.12340   0.00000   0.00000   0.00001   0.00001  -3.12339
    D6        0.02401   0.00000   0.00000   0.00003   0.00003   0.02404
    D7        0.00048   0.00000   0.00000   0.00000   0.00000   0.00048
    D8       -3.13529   0.00000   0.00000   0.00002   0.00002  -3.13527
    D9        3.12318  -0.00000   0.00000  -0.00001  -0.00001   3.12318
   D10       -0.01847  -0.00000   0.00000  -0.00000  -0.00000  -0.01847
   D11       -0.00181   0.00000   0.00000   0.00000   0.00000  -0.00181
   D12        3.13973   0.00000   0.00000   0.00001   0.00001   3.13973
   D13       -0.01453  -0.00000   0.00000  -0.00006  -0.00006  -0.01459
   D14       -3.13581  -0.00000   0.00000  -0.00002  -0.00002  -3.13582
   D15        2.99181  -0.00000   0.00000  -0.00013  -0.00013   2.99167
   D16       -0.12947  -0.00000   0.00000  -0.00009  -0.00009  -0.12956
   D17       -3.04422  -0.00000   0.00000  -0.00005  -0.00005  -3.04427
   D18       -0.31975  -0.00000   0.00000  -0.00001  -0.00001  -0.31976
   D19        0.11757   0.00000   0.00000  -0.00000  -0.00000   0.11756
   D20        2.84204   0.00000   0.00000   0.00004   0.00004   2.84208
   D21       -2.95955   0.00000   0.00000   0.00004   0.00004  -2.95951
   D22        1.18651   0.00000   0.00000   0.00003   0.00003   1.18654
   D23       -0.85204   0.00000   0.00000   0.00004   0.00004  -0.85200
   D24        0.59119  -0.00000   0.00000  -0.00001  -0.00001   0.59118
   D25       -1.54594  -0.00000   0.00000  -0.00001  -0.00001  -1.54595
   D26        2.69870   0.00000   0.00000  -0.00000  -0.00000   2.69869
   D27       -3.13886   0.00000   0.00000   0.00010   0.00010  -3.13876
   D28        1.01600   0.00000   0.00000   0.00010   0.00010   1.01609
   D29       -1.01947   0.00000   0.00000   0.00009   0.00009  -1.01938
   D30       -1.00034  -0.00000   0.00000   0.00009   0.00009  -1.00026
   D31       -3.12867  -0.00000   0.00000   0.00008   0.00008  -3.12859
   D32        1.11904  -0.00000   0.00000   0.00008   0.00008   1.11912
   D33        1.06386   0.00000   0.00000   0.00011   0.00011   1.06397
   D34       -1.06447   0.00000   0.00000   0.00010   0.00010  -1.06437
   D35       -3.09994   0.00000   0.00000   0.00010   0.00010  -3.09984
   D36       -1.04457   0.00000   0.00000   0.00008   0.00008  -1.04449
   D37       -3.13822   0.00000   0.00000   0.00008   0.00008  -3.13814
   D38        1.04942   0.00000   0.00000   0.00008   0.00008   1.04950
   D39        1.07120   0.00000   0.00000   0.00009   0.00009   1.07129
   D40       -1.02245   0.00000   0.00000   0.00009   0.00009  -1.02236
   D41       -3.11800   0.00000   0.00000   0.00009   0.00009  -3.11791
   D42        3.12016   0.00000   0.00000   0.00008   0.00008   3.12024
   D43        1.02651   0.00000   0.00000   0.00008   0.00008   1.02659
   D44       -1.06904   0.00000   0.00000   0.00008   0.00008  -1.06896
   D45        0.00112  -0.00000   0.00000  -0.00001  -0.00001   0.00112
   D46        3.14107  -0.00000   0.00000  -0.00001  -0.00001   3.14106
   D47        3.13689  -0.00000   0.00000  -0.00002  -0.00002   3.13687
   D48       -0.00634  -0.00000   0.00000  -0.00002  -0.00002  -0.00637
   D49       -0.00141   0.00000   0.00000   0.00000   0.00000  -0.00141
   D50        3.14128  -0.00000   0.00000  -0.00000  -0.00000   3.14128
   D51       -3.14133   0.00000   0.00000   0.00001   0.00001  -3.14132
   D52        0.00136  -0.00000   0.00000  -0.00000  -0.00000   0.00136
   D53        2.09332  -0.00000   0.00000   0.00002   0.00002   2.09334
   D54       -2.09261   0.00000   0.00000   0.00007   0.00007  -2.09254
   D55       -0.00036   0.00000   0.00000   0.00004   0.00004  -0.00032
   D56       -1.04991  -0.00000   0.00000   0.00001   0.00001  -1.04990
   D57        1.04734   0.00000   0.00000   0.00007   0.00007   1.04741
   D58        3.13959   0.00000   0.00000   0.00004   0.00004   3.13963
   D59        0.00009   0.00000   0.00000   0.00000   0.00000   0.00009
   D60       -3.13979   0.00000   0.00000   0.00000   0.00000  -3.13978
   D61        3.14062   0.00000   0.00000   0.00001   0.00001   3.14063
   D62        0.00074   0.00000   0.00000   0.00001   0.00001   0.00075
   D63        0.00154  -0.00000   0.00000  -0.00001  -0.00001   0.00153
   D64       -3.14000  -0.00000   0.00000  -0.00001  -0.00001  -3.14001
   D65        3.14140  -0.00000   0.00000  -0.00001  -0.00001   3.14139
   D66       -0.00014  -0.00000   0.00000  -0.00001  -0.00001  -0.00015
         Item               Value     Threshold  Converged?
 Maximum Force            0.000015     0.000450     YES
 RMS     Force            0.000002     0.000300     YES
 Maximum Displacement     0.000320     0.001800     YES
 RMS     Displacement     0.000061     0.001200     YES
 Predicted change in Energy=-1.817212D-09
 Optimization completed.
    -- Stationary point found.
                           ----------------------------
                           !   Optimized Parameters   !
                           ! (Angstroms and Degrees)  !
 --------------------------                            --------------------------
 ! Name  Definition              Value          Derivative Info.                !
 --------------------------------------------------------------------------------
 ! R1    R(1,2)                  1.3974         -DE/DX =    0.0                 !
 ! R2    R(1,9)                  1.3982         -DE/DX =    0.0                 !
 ! R3    R(1,13)                 1.3987         -DE/DX =    0.0                 !
 ! R4    R(2,3)                  1.3896         -DE/DX =    0.0                 !
 ! R5    R(2,14)                 1.0101         -DE/DX =    0.0                 !
 ! R6    R(3,4)                  1.2156         -DE/DX =    0.0                 !
 ! R7    R(3,5)                  1.3658         -DE/DX =    0.0                 !
 ! R8    R(5,6)                  1.4568         -DE/DX =    0.0                 !
 ! R9    R(5,15)                 1.0102         -DE/DX =    0.0                 !
 ! R10   R(6,7)                  1.5215         -DE/DX =    0.0                 !
 ! R11   R(6,16)                 1.0963         -DE/DX =    0.0                 !
 ! R12   R(6,17)                 1.0912         -DE/DX =    0.0                 !
 ! R13   R(7,8)                  1.5243         -DE/DX =    0.0                 !
 ! R14   R(7,18)                 1.0943         -DE/DX =    0.0                 !
 ! R15   R(7,19)                 1.0964         -DE/DX =    0.0                 !
 ! R16   R(8,20)                 1.0929         -DE/DX =    0.0                 !
 ! R17   R(8,21)                 1.0915         -DE/DX =    0.0                 !
 ! R18   R(8,22)                 1.093          -DE/DX =    0.0                 !
 ! R19   R(9,10)                 1.391          -DE/DX =    0.0                 !
 ! R20   R(9,23)                 1.0785         -DE/DX =    0.0                 !
 ! R21   R(10,11)                1.3934         -DE/DX =    0.0                 !
 ! R22   R(10,24)                1.5077         -DE/DX =    0.0                 !
 ! R23   R(11,12)                1.3875         -DE/DX =    0.0                 !
 ! R24   R(11,25)                1.7416         -DE/DX =    0.0                 !
 ! R25   R(12,13)                1.384          -DE/DX =    0.0                 !
 ! R26   R(12,26)                1.083          -DE/DX =    0.0                 !
 ! R27   R(13,27)                1.0855         -DE/DX =    0.0                 !
 ! R28   R(24,28)                1.3416         -DE/DX =    0.0                 !
 ! R29   R(24,29)                1.342          -DE/DX =    0.0                 !
 ! R30   R(24,30)                1.3379         -DE/DX =    0.0                 !
 ! A1    A(2,1,9)              123.7704         -DE/DX =    0.0                 !
 ! A2    A(2,1,13)             117.4959         -DE/DX =    0.0                 !
 ! A3    A(9,1,13)             118.7264         -DE/DX =    0.0                 !
 ! A4    A(1,2,3)              127.4846         -DE/DX =    0.0                 !
 ! A5    A(1,2,14)             115.1656         -DE/DX =    0.0                 !
 ! A6    A(3,2,14)             116.9401         -DE/DX =    0.0                 !
 ! A7    A(2,3,4)              123.5434         -DE/DX =    0.0                 !
 ! A8    A(2,3,5)              113.4213         -DE/DX =    0.0                 !
 ! A9    A(4,3,5)              123.0245         -DE/DX =    0.0                 !
 ! A10   A(3,5,6)              120.0091         -DE/DX =    0.0                 !
 ! A11   A(3,5,15)             118.8509         -DE/DX =    0.0                 !
 ! A12   A(6,5,15)             116.8785         -DE/DX =    0.0                 !
 ! A13   A(5,6,7)              110.3129         -DE/DX =    0.0                 !
 ! A14   A(5,6,16)             110.5693         -DE/DX =    0.0                 !
 ! A15   A(5,6,17)             107.8963         -DE/DX =    0.0                 !
 ! A16   A(7,6,16)             110.4338         -DE/DX =    0.0                 !
 ! A17   A(7,6,17)             110.4652         -DE/DX =    0.0                 !
 ! A18   A(16,6,17)            107.0824         -DE/DX =    0.0                 !
 ! A19   A(6,7,8)              111.5053         -DE/DX =    0.0                 !
 ! A20   A(6,7,18)             109.0049         -DE/DX =    0.0                 !
 ! A21   A(6,7,19)             109.487          -DE/DX =    0.0                 !
[...]
 0.00019424,0.00007759,-0.00024328,-0.00013364,-0.00003771,-0.00004441,
 -0.00001271,0.00003461,0.00002643,-0.00002536,-0.00002992,0.00000894,0
 .00001895,0.00001723,0.00000280,-0.00000565,0.00003182,-0.00007526,0.0
 0000009,0.00001245,-0.00001844,-0.00003106,-0.00002542,-0.00138355,0.0
 0005434,-0.00129065,-0.00633868,0.59432587,-0.00029437,0.00227300,0.00
 642868,0.00268898,-0.00033880,-0.00040342,-0.00254781,-0.00140271,0.00
 152102,0.00081724,0.00088716,-0.00111821,0.00097288,-0.00023310,-0.000
 29299,-0.00027844,-0.00012808,0.00026491,0.00004260,0.00007514,-0.0000
 0524,0.00000858,-0.00004283,0.00003110,-0.00594705,0.00101920,0.001824
 97,-0.00717000,0.05058881,-0.08655019,0.00315244,0.00854472,-0.0051194
 4,0.00142005,0.00201716,0.00420091,0.00093238,-0.00130090,-0.00070929,
 0.00010590,0.00006914,-0.00000160,-0.00006070,0.00015472,0.00004570,0.
 00006095,0.00002075,-0.00000612,0.00004001,0.00001260,-0.00003547,-0.0
 0000667,-0.00002441,0.00000586,-0.00000939,0.00001454,-0.00003318,0.00
 000895,0.00001245,-0.00003060,0.00002994,0.00000253,-0.00000219,-0.000
 00421,-0.00000518,0.00000200,0.00047769,-0.00162734,-0.00259934,-0.000
 98635,-0.03974973,0.51763505,0.00283385,-0.00249142,0.00077714,-0.0058
 9148,0.00055485,0.00031679,0.00411993,0.00136508,-0.00119297,-0.001150
 82,-0.00072415,0.00063009,-0.00186409,0.00079228,0.00014548,0.00048672
 ,0.00021177,-0.00027047,-0.00004342,-0.00013471,0.00003376,-0.00002229
 ,0.00007908,-0.00002002,-0.00164364,-0.00349011,0.00202081,-0.03314131
 ,0.01188700,-0.00138090,-0.16559155,0.03802662,-0.00028391,-0.02801494
 ,0.01075231,-0.00134798,0.00299554,0.00210985,-0.00060299,-0.00009064,
 -0.00024262,0.00009936,0.00002818,-0.00020668,0.00001019,-0.00014817,-
 0.00007593,0.00000776,-0.00002867,-0.00002501,0.00000745,0.00001347,0.
 00000479,-0.00000360,-0.00000022,0.00001400,-0.00000520,0.00000609,-0.
 00001295,0.00000841,-0.00005712,0.00000932,0.00000558,0.00000011,-0.00
 001530,-0.00000108,-0.00091278,0.00120983,-0.00043314,-0.00532263,0.00
 566831,-0.00214736,0.23074890,0.00000826,0.00218249,-0.00125453,0.0016
 8935,-0.00012737,-0.00038100,-0.00114122,-0.00069876,0.00043029,0.0000
 8552,0.00041494,-0.00022806,0.00049758,-0.00013937,-0.00004312,-0.0001
 2648,-0.00006007,0.00007621,0.00001439,0.00003267,-0.00001021,0.000005
 49,-0.00001827,0.00000632,0.00057044,-0.00264995,0.00282880,-0.0104727
 8,0.00799951,-0.00132320,0.03861344,-0.04825168,0.00772351,0.03559660,
 -0.00818285,0.00115929,-0.00292392,-0.00269116,0.00355089,-0.00005527,
 0.00006611,-0.00001110,-0.00001421,0.00005473,-0.00000446,0.00004243,0
 .00001893,-0.00000097,0.00000866,0.00000632,-0.00000689,-0.00000404,-0
 .00000029,0.00000195,-0.00000192,-0.00000223,-0.00000004,-0.00000109,0
 .00000292,-0.00000304,0.00001396,-0.00000186,-0.00000153,0.00000044,0.
 00000400,0.00000102,-0.00030208,0.00025199,0.00014909,0.00143392,-0.00
 322936,-0.00007772,-0.05842181,0.05786733,-0.00032156,-0.00092610,-0.0
 0014726,-0.00015828,-0.00027217,-0.00040587,-0.00000171,0.00002115,-0.
 00024095,0.00001636,-0.00008466,0.00000709,0.00000810,0.00000787,0.000
 07332,0.00000075,0.00000342,0.00000887,-0.00000162,-0.00000279,0.00000
 055,0.00000024,0.00000226,0.00000208,0.00026060,0.00327212,0.00246626,
 0.00847880,-0.00369999,0.00303022,-0.00070288,0.00771021,-0.02348627,-
 0.01197856,0.00389696,0.00324553,0.00146506,0.00295502,0.00331373,0.00
 003684,0.00000551,0.00002751,0.00001288,0.00000414,0.00001035,0.000002
 17,-0.00000282,-0.00000412,-0.00000664,0.00000327,-0.00000366,0.000001
 06,-0.00000112,-0.00000042,-0.00000052,0.00000023,0.00000099,-0.000000
 24,-0.00000004,0.00000051,-0.00000015,-0.00000041,-0.00000003,-0.00000
 081,0.00000019,-0.00000020,0.00032611,0.00000827,0.00053514,-0.0004013
 9,-0.00051658,-0.00266436,0.00121032,-0.01317809,0.01754482,-0.0030643
 5,0.00294701,-0.00016833,-0.00126745,-0.00109433,0.00072896,0.00032702
 ,0.00051271,-0.00040635,-0.00005070,-0.00018303,0.00011299,-0.00033676
 ,-0.00000193,0.00008811,0.00005274,0.00006578,-0.00004078,-0.00001472,
 -0.00003002,0.00001129,-0.00000574,0.00001546,-0.00000462,-0.00039305,
 0.00078440,-0.00038926,0.00058382,0.00192693,-0.00029611,0.00696037,0.
 00644573,-0.00320643,-0.21442397,-0.12806388,0.07432561,-0.01574752,-0
 .01790991,0.00978625,0.00002619,-0.00007222,0.00004591,0.00001097,-0.0
 0003160,0.00000770,-0.00001818,-0.00001041,0.00000125,-0.00000362,-0.0
 0000472,0.00000149,0.00000166,0.00000154,0.00000128,-0.00000022,0.0000
 0200,-0.00000357,0.00000111,-0.00000139,0.00000023,-0.00000894,0.00000
 007,0.00000145,0.00000052,-0.00000171,0.00000024,0.00000690,-0.0000828
 7,-0.00001443,0.00047814,0.00025133,-0.00008017,0.00108640,0.00078764,
 -0.00070584,0.22483064,0.00318585,0.00109725,0.00237457,0.00026581,0.0
 0054412,-0.00026497,0.00008151,-0.00016754,0.00005782,-0.00002328,0.00
 003629,0.00000180,0.00007835,0.00001625,-0.00004775,-0.00000259,-0.000
 01972,0.00001175,0.00000546,0.00000768,-0.00000044,0.00000210,-0.00000
 363,0.00000110,0.00093277,-0.00042471,-0.00038555,0.00239391,-0.003560
 62,0.00365859,-0.02116773,-0.01234081,0.00889649,-0.12577048,-0.158373
 90,0.06607477,0.00881820,0.01037497,-0.00382504,-0.00001839,0.00001346
 ,0.00000985,-0.00000162,0.00001010,0.00000338,0.00000117,0.00000013,-0
 .00000019,-0.00000051,0.00000142,-0.00000113,-0.00000014,-0.00000113,-
 0.00000157,-0.00000013,0.00000072,0.00000046,-0.00000010,0.00000044,-0
 .00000019,0.00000193,0.00000039,-0.00000019,-0.00000078,-0.00000058,-0
 .00000032,-0.00007886,-0.00006108,-0.00017906,-0.00146455,0.00069991,0
 .00018215,-0.00078030,-0.00001250,-0.00100716,0.13377410,0.16325173,-0
 .00020849,0.00237783,0.00632139,0.00007397,-0.00006982,0.00014541,-0.0
 0010973,-0.00008046,-0.00004944,-0.00000111,0.00004043,-0.00000110,0.0
 0000069,-0.00003675,-0.00002612,-0.00000470,0.00000729,0.00000566,0.00
 000044,0.00000074,0.00000578,0.00000015,0.00000027,-0.00000008,-0.0004
 7897,-0.00033916,-0.00085640,-0.00052499,0.00370405,0.00400128,0.00870
 210,0.00598226,-0.00052776,0.07335664,0.06624916,-0.07334139,-0.001706
 35,-0.00092079,0.00427100,0.00000831,0.00002156,0.00003562,0.00000283,
 0.00000849,0.00001278,0.00000074,-0.00000299,-0.00000139,0.00000014,0.
 00000197,-0.00000120,0.00000023,-0.00000225,-0.00000103,-0.00000033,0.
 00000117,-0.00000220,0.00000052,0.00000107,-0.00000100,0.00000022,-0.0
 0000001,0.00000066,-0.00000103,-0.00000129,-0.00000040,-0.00003288,-0.
 00017150,-0.00039687,0.00066172,-0.00000168,0.00067375,-0.00004600,-0.
 00119046,-0.00204721,-0.07916571,-0.07396599,0.06588684,0.00769498,-0.
 01987548,0.00826974,0.00162154,-0.00202085,0.00034647,-0.00033956,-0.0
 0043113,0.00022243,-0.00000703,0.00036790,-0.00018367,0.00014299,0.000
 02527,-0.00004506,-0.00005840,-0.00002537,0.00003723,0.00000915,0.0000
 1428,-0.00000021,0.00000084,-0.00000736,0.00000152,-0.00304456,-0.0026
 4162,0.00204772,-0.00142555,-0.00014658,0.00016911,-0.00376607,0.00133
 605,0.00061987,-0.00208950,0.02832144,-0.01160668,-0.06967727,0.051517
 80,-0.01837471,-0.00225296,-0.00033637,-0.00003748,-0.00004832,0.00000
 010,-0.00001162,0.00001927,0.00000956,0.00000009,0.00000741,0.00000568
 ,-0.00000562,-0.00000256,0.00000069,0.00000238,-0.00000296,-0.00000039
 ,-0.00000348,0.00000067,0.00000197,-0.00000208,0.00000617,-0.00000087,
 -0.00000045,0.00000038,0.00000179,0.00000040,0.00046850,-0.00093535,0.
 00031465,-0.00024432,-0.00017936,0.00004486,-0.00113349,0.00116054,-0.
 00036281,0.00089340,-0.00051737,-0.00035677,0.07289676,0.00736265,-0.0
 1207169,0.00656677,0.00111417,0.00055022,-0.00181695,-0.00055457,-0.00
 026802,-0.00004919,0.00010408,0.00050532,-0.00024359,-0.00001774,0.000
 04175,0.00000043,-0.00002530,0.00001935,0.00003195,0.00000066,-0.00000
 129,0.00000910,-0.00000204,-0.00000074,-0.00000132,-0.00318354,-0.0001
 8155,0.00277793,-0.00061476,0.00038440,-0.00030926,0.00124886,0.002791
 53,0.00179064,0.00048485,-0.00471337,0.00347799,0.05103910,-0.28949089
 ,0.10311714,-0.00194315,0.00036131,0.00031288,-0.00004272,-0.00000591,
 0.00001104,0.00001224,0.00000083,-0.00000056,0.00000176,0.00000449,-0.
 00000584,-0.00000137,-0.00000034,0.00000108,-0.00000291,0.00000257,-0.
 00000618,0.00000153,0.00000150,-0.00000309,0.00000207,-0.00000041,0.00
 000037,-0.00000014,-0.00000021,0.00000093,0.00057663,-0.00065013,0.000
 05054,-0.00017195,0.00004633,-0.00023279,0.00032063,-0.00029611,0.0001
 1979,-0.00010666,-0.00013888,-0.00183813,-0.05575579,0.30336465,-0.003
 68140,0.00975001,0.00122615,-0.00102707,-0.00161282,-0.00250413,0.0003
 2024,-0.00016422,-0.00085706,0.00001763,-0.00021139,0.00028063,-0.0000
 3693,0.00002735,0.00003661,0.00003934,0.00005447,0.00006502,-0.0000056
 5,-0.00000124,0.00001721,0.00000025,0.00000079,-0.00000427,0.00238449,
 0.00274357,0.00402081,0.00031785,-0.00035936,-0.00035089,0.00069137,0.
 00181766,0.00641635,0.00043039,0.00039068,0.00322863,-0.01807241,0.102
 93915,-0.07814403,0.00064578,0.00016726,0.00070237,0.00001009,-0.00000
 221,0.00004479,-0.00000091,-0.00001280,-0.00001046,-0.00001332,0.00000
 549,-0.00000428,0.00000386,-0.00000810,-0.00000668,0.00000045,0.000003
 32,-0.00000398,0.00000140,0.00000194,-0.00000117,-0.00000204,0.0000004
 4,0.00000124,-0.00000402,-0.00000469,-0.00000130,-0.00039873,0.0002198
 3,-0.00041655,0.00004357,-0.00024865,-0.00042347,-0.00001399,0.0000359
 8,0.00006369,-0.00054477,-0.00179625,-0.00362457,0.01901401,-0.1137915
 6,0.07040803,0.00066191,0.00056040,0.00084755,-0.00031305,0.00025152,0
 .00002823,0.00078658,-0.00049188,0.00010941,-0.00043001,0.00038912,-0.
 00001151,-0.00048951,0.00032895,0.00000320,0.00014403,0.00005059,-0.00
 008527,-0.00000507,-0.00004016,0.00000626,-0.00000902,0.00002474,-0.00
 000932,0.00138448,0.00107735,-0.00093144,-0.00707437,0.00416735,-0.022
 45385,-0.00598376,0.00145318,-0.00020963,0.00058413,0.00086331,0.00051
 782,-0.00003263,0.00049677,-0.00033412,-0.00004456,-0.00003483,-0.0000
 3143,0.00000023,-0.00006534,-0.00001772,-0.00002472,-0.00001804,0.0000
 1369,0.00000030,-0.00001572,-0.00000232,0.00000239,0.00000975,0.000001
 75,-0.00000184,0.00000398,-0.00000135,0.00000346,-0.00000883,0.0000022
 4,-0.00002175,0.00000733,0.00000009,0.00000484,-0.00000380,0.00000342,
 0.00049665,-0.00074504,-0.00053862,-0.14206078,0.00943432,-0.09670113,
 0.00130257,-0.00284358,0.00244386,-0.00001041,0.00028442,-0.00011523,0
 .00005131,-0.00000128,-0.00014490,0.20355596,-0.00067713,-0.00108767,-
 0.00101630,0.00121718,-0.00018828,-0.00021290,-0.00133292,-0.00049484,
 0.00045064,0.00047135,0.00035238,-0.00024955,0.00058548,-0.00014542,-0
 .00006344,-0.00018365,-0.00010406,0.00007801,0.00002225,0.00004125,-0.
 00001186,0.00000413,-0.00002551,0.00000969,-0.00240158,-0.00155959,0.0
 0210450,0.02157685,0.00216024,0.02691568,0.00196387,0.00007972,-0.0004
 5940,-0.00005529,0.00037054,-0.00080061,0.00093517,-0.00042709,0.00026
 267,0.00004138,0.00002677,-0.00001385,-0.00003146,0.00004558,-0.000015
 53,0.00005237,0.00002943,0.00000660,0.00000908,0.00000393,-0.00000774,
 -0.00000576,0.00000415,0.00000643,-0.00000216,-0.00000383,-0.00000423,
 -0.00000078,0.00000203,-0.00000760,0.00001760,-0.00000066,-0.00000275,
 0.00000336,0.00000664,0.00000523,0.00010530,0.00023464,0.00063842,0.00
 838623,-0.07803155,0.01326849,-0.00195603,-0.00074328,0.00211962,-0.00
 004856,-0.00005498,0.00001665,0.00004495,-0.00001455,0.00004816,0.0153
 3971,0.07622137,0.00015128,0.00066225,0.00082552,-0.00124931,0.0005285
 6,0.00020317,0.00151718,0.00015691,-0.00044879,-0.00059335,-0.00002892
 ,0.00036930,-0.00073103,0.00032420,0.00009998,0.00020462,0.00008761,-0
 .00014581,-0.00001949,-0.00005667,0.00000676,-0.00001033,0.00003353,-0
 .00001731,0.00221965,0.00353869,-0.00290748,-0.02496375,0.00393052,-0.
 02042574,-0.00327868,-0.00006441,0.00131616,0.00039420,0.00025903,0.00
 051709,-0.00064408,0.00034355,-0.00024087,-0.00013105,-0.00004636,-0.0
 0002890,0.00002337,-0.00009664,-0.00002277,-0.00004400,-0.00002332,0.0
 0001202,-0.00001363,-0.00001740,0.00000909,0.00000413,0.00001417,-0.00
 000145,0.00000141,-0.00000047,0.00000943,-0.00000023,-0.00001029,0.000
 01105,-0.00002609,0.00000416,0.00000097,0.00000443,-0.00000202,0.00000
 160,0.00034548,-0.00047775,-0.00067568,-0.09450979,0.01665397,-0.19810
 749,0.00311648,0.00103319,-0.00188211,0.00004393,0.00011234,-0.0001481
 3,0.00000089,0.00004899,-0.00010429,0.15581175,0.01705619,0.28375029,0
 .00047532,-0.00028109,-0.00104442,-0.00018793,0.00015529,-0.00011821,0
 .00060233,-0.00047749,0.00023318,-0.00036708,0.00034289,-0.00016496,-0
 .00041001,0.00026497,-0.00003697,0.00012589,0.00005101,-0.00005139,-0.
 00000305,-0.00003142,0.00000962,-0.00000670,0.00002117,-0.00000394,0.0
 0116060,0.00067713,-0.00019817,-0.00053451,0.01719971,0.01216597,-0.00
 532551,0.00172630,0.00023734,0.00033688,0.00014148,-0.00096528,0.00002
 675,0.00052183,-0.00012963,-0.00001607,0.00000813,0.00005678,-0.000001
 00,-0.00003645,0.00000392,-0.00002630,-0.00002131,0.00000710,0.0000060
 3,-0.00001214,-0.00000570,0.00000226,0.00000140,-0.00000008,-0.0000026
 0,0.00000757,-0.00000633,0.00000462,-0.00000517,-0.00000162,-0.0000177
 5,0.00000654,0.00000081,0.00000186,-0.00000676,0.00000116,0.00056590,-
 0.00016336,0.00069610,-0.10993967,0.06090443,0.05332449,0.00064371,-0.
 00386514,0.00027878,-0.00001819,0.00024459,-0.00012593,0.00006999,0.00
 008044,0.00008070,0.01668523,-0.01176362,-0.01437237,0.14775533,-0.000
 24316,0.00016479,0.00197538,0.00177816,-0.00040294,0.00022047,-0.00208
 476,-0.00037860,0.00038465,0.00082819,0.00026650,-0.00015300,0.0010034
 7,-0.00033965,-0.00003036,-0.00031090,-0.00017146,0.00011526,0.0000308
 0,0.00007095,-0.00002227,0.00000901,-0.00004553,0.00001116,-0.00363628
 ,-0.00486681,0.00081087,0.02657545,-0.02897158,-0.02838640,0.00433774,
 0.00058108,0.00007115,-0.00017582,0.00069636,0.00071047,0.00107572,-0.
 00075086,-0.00004430,0.00012310,0.00001313,-0.00007854,-0.00003652,0.0
 0007222,-0.00003393,0.00008747,0.00005343,0.00000702,0.00000895,0.0000
 1137,-0.00000460,-0.00000900,0.00000862,0.00000884,-0.00000044,-0.0000
 1200,0.00000121,-0.00000423,0.00000409,-0.00000641,0.00003176,-0.00000
 404,-0.00000431,0.00000497,0.00001405,0.00000685,-0.00047026,-0.000285
 86,-0.00099929,0.05927065,-0.16675421,-0.07404608,-0.00393594,-0.00232
 877,-0.00037726,-0.00007486,-0.00018366,0.00002496,0.00000765,-0.00011
 432,-0.00003867,-0.00519378,-0.00026214,-0.03250585,-0.08081575,0.1828
 8595,0.00024195,0.00009105,-0.00028508,0.00000533,-0.00020522,0.000232
 92,-0.00019884,0.00039722,-0.00031728,0.00018673,-0.00027214,0.0002660
 1,0.00019925,-0.00014452,0.00007966,-0.00006024,-0.00003373,-0.0000121
 8,-0.00000035,0.00001320,-0.00000820,0.00000301,-0.00001041,-0.0000034
 5,0.00002169,-0.00143425,0.00070145,0.00316246,-0.00246157,0.00410857,
 0.00194832,0.00004127,0.00022782,-0.00028269,-0.00049006,0.00040620,-0
 .00024185,-0.00000180,0.00004887,0.00004933,-0.00002415,-0.00005444,0.
 00000713,-0.00000183,-0.00002308,0.00001936,0.00001796,-0.00000061,-0.
 00000770,0.00000468,0.00000953,-0.00000141,0.00000754,0.00000045,0.000
 00325,-0.00000989,0.00001109,-0.00000454,0.,0.00000651,0.00000747,-0.0
 0000366,-0.00000111,0.00000192,0.00000723,0.00000041,-0.00042268,0.000
 17674,-0.00019252,0.05227300,-0.07771614,-0.14021906,-0.00079971,0.000
 78339,0.00026893,-0.00000621,-0.00013856,-0.00000994,-0.00005071,-0.00
 005512,-0.00001721,-0.00139144,-0.04188078,-0.07210436,-0.10189250,0.1
 2997036,0.23192428,0.00101120,0.00037872,-0.00027965,0.00121785,0.0000
 8645,-0.00025399,-0.00064108,-0.00173430,0.00108188,-0.00008438,0.0012
 1006,-0.00059252,-0.00000093,0.00036023,-0.00015431,-0.00000745,-0.000
 04833,0.00000657,0.00002639,-0.00000721,-0.00000134,-0.00000833,0.0000
 0513,0.00000209,-0.00464377,0.00354063,-0.00088993,-0.00884130,-0.0083
 6021,0.00542742,0.00204824,-0.00077485,0.00029102,-0.00056267,-0.00016
 776,0.00007744,0.00012313,0.00022925,-0.00011225,-0.00000057,0.0000161
 8,0.00000665,-0.00004966,-0.00001926,-0.00002830,0.00002556,0.00000203
 ,0.00002843,0.00002266,-0.00001972,-0.00002254,-0.00000422,0.00001257,
 0.00001076,-0.00000853,0.00000814,-0.00001659,0.00000802,-0.00000895,-
 0.00001227,-0.00001118,0.00001238,-0.00000260,0.00001002,-0.00000244,0
 .00001078,0.00186661,0.00214246,-0.00118154,-0.19284271,-0.09128803,0.
 05210570,0.00079180,-0.00035513,0.00010105,0.00010394,-0.00024333,0.00
 006952,0.00020917,0.00007422,-0.00005527,-0.06916260,-0.03231733,-0.02
 325161,-0.05160633,0.00181861,0.04723068,0.32101112,-0.00251601,0.0009
 7234,-0.00022309,0.00232023,0.00003063,-0.00027290,-0.00203962,-0.0011
 3676,0.00087725,0.00074524,0.00086516,-0.00052050,0.00079669,-0.000113
 20,-0.00012079,-0.00024864,-0.00015536,0.00010514,0.00003812,0.0000541
 6,-0.00001338,0.00000232,-0.00003283,0.00001200,-0.00046404,-0.0027945
 7,0.00153056,-0.03917775,-0.02195336,0.01724700,0.00779498,-0.00558709
 ,0.00221960,-0.00260795,-0.00122783,0.00063060,0.00026315,-0.00038067,
 0.00015593,0.00002086,0.00005719,-0.00002942,-0.00004954,0.00005650,-0
 .00002676,0.00007902,0.00003957,0.00001997,0.00002062,-0.00000280,-0.0
 0001735,-0.00000903,0.00001032,0.00001153,-0.00000494,-0.00000246,-0.0
 0001094,0.00000200,-0.00000101,-0.00001422,0.00001890,0.00000446,-0.00
 000447,0.00000817,0.00000766,0.00001099,0.00023311,-0.00423130,0.00164
 674,-0.08028883,-0.14452808,0.04006712,-0.00049277,0.00053194,-0.00006
 082,0.00020339,-0.00071112,0.00018337,0.00005823,-0.00012584,0.0000458
 6,-0.02528051,0.00356478,-0.01145775,0.01512480,0.02102988,-0.00662682
 ,0.12544977,0.15575968,0.00097060,-0.00046582,0.00012868,-0.00114123,0
 .00000220,0.00024190,0.00096274,0.00073663,-0.00058091,-0.00028921,-0.
 00048732,0.00045640,-0.00032767,0.00001240,0.00009945,0.00009459,0.000
 05687,-0.00007468,-0.00001816,-0.00002237,0.00000356,-0.00000136,0.000
 01282,-0.00001063,0.00077591,0.00104229,-0.00013452,0.01871014,0.01386
 601,0.00025203,-0.00341408,0.00313529,0.00057519,0.00113526,0.00037193
 ,-0.00070554,-0.00011902,0.00016199,-0.00000234,-0.00001528,-0.0000369
 1,-0.00000127,0.00002577,-0.00004163,-0.00000531,-0.00002621,-0.000009
 45,-0.00000390,-0.00001533,0.00000011,0.00001458,0.00000241,0.00000315
 ,-0.00000429,0.00000436,-0.00000478,0.00001160,-0.00000367,-0.00000108
 ,0.00001094,-0.00000744,-0.00000300,0.00000174,-0.00000141,0.00000052,
 -0.00000348,-0.00033476,0.00141671,-0.00097393,0.04743123,0.04124596,-
 0.09431231,0.00015969,-0.00006553,0.00028285,-0.00012409,0.00022929,-0
 .00032394,-0.00005002,0.00003601,-0.00003720,-0.03681000,-0.01824045,0
 .01012874,0.05202156,0.00241262,-0.02504417,-0.07959531,-0.04536446,0.
 11001076\\0.00000357,-0.00000429,0.00000160,-0.00000822,-0.00000060,-0
 .00000267,-0.00000850,0.00001799,-0.00001142,-0.00000023,-0.00000591,0
 .00000700,0.00001068,-0.00001314,0.00000155,-0.00000338,-0.00000123,0.
 00000227,0.00000170,-0.00000122,0.00000252,-0.00000143,-0.00000201,0.0
 0000033,-0.00000297,0.00000355,-0.00000264,0.00000086,0.00000055,-0.00
 000174,0.00000121,0.00000041,-0.00000025,-0.00000091,0.00000222,-0.000
 00245,0.00000155,-0.00000033,-0.00000182,0.00000034,0.00000082,0.00000
 326,-0.00000166,-0.00000141,0.00000164,0.00000149,-0.00000095,0.000001
 94,0.00000204,-0.00000015,0.00000045,-0.00000147,-0.00000045,0.0000008
 8,-0.00000114,-0.00000119,-0.00000015,0.00000017,-0.00000186,0.0000018
 7,-0.00000041,-0.00000204,0.00000289,-0.00000013,-0.00000138,0.0000022
 1,0.00000166,0.00000153,0.00000081,0.00000889,0.00000957,0.00000760,0.
 00000030,0.00000408,-0.00000315,-0.00000057,0.00000109,-0.00000188,-0.
 00000139,0.00000060,-0.00000196,-0.00000580,-0.00000068,-0.00000431,0.
 00000035,-0.00000426,-0.00000494,0.00000340,0.00000067,0.00000057\\\@


 BLESSED ARE THOSE WHO NOUGHT EXPECT,
 FOR THEY SHALL NOT BE DISAPPOINTED..  WALCOT - ODE TO PITT
 Job cpu time:       0 days  4 hours 30 minutes 25.8 seconds.
 File lengths (MBytes):  RWF=    691 Int=      0 D2E=      0 Chk=     23 Scr=      1
 Normal termination of Gaussian 09 at Thu Nov 14 10:34:19 2019.
pbs_rusage has been removed.
Please contact help@nci.org.au if you require this functionality.
