 Entering Gaussian System, Link 0=/apps/gaussian/g16c01/g16/g16
 Initial command:
 /apps/gaussian/g16c01/g16/l1.exe "/jobfs/11080131.gadi-pbs/Gau-2828095.inp" -scrdir="/jobfs/11080131.gadi-pbs/"
 Entering Link 1 = /apps/gaussian/g16c01/g16/l1.exe PID=   2828096.
  
 Copyright (c) 1988-2019, Gaussian, Inc.  All Rights Reserved.
  
 This is part of the Gaussian(R) 16 program.  It is based on
 the Gaussian(R) 09 system (copyright 2009, Gaussian, Inc.),
 the Gaussian(R) 03 system (copyright 2003, Gaussian, Inc.),
 the Gaussian(R) 98 system (copyright 1998, Gaussian, Inc.),
 the Gaussian(R) 94 system (copyright 1995, Gaussian, Inc.),
 the Gaussian 92(TM) system (copyright 1992, Gaussian, Inc.),
 the Gaussian 90(TM) system (copyright 1990, Gaussian, Inc.),
 the Gaussian 88(TM) system (copyright 1988, Gaussian, Inc.),
 the Gaussian 86(TM) system (copyright 1986, Carnegie Mellon
 University), and the Gaussian 82(TM) system (copyright 1983,
 Carnegie Mellon University). Gaussian is a federally registered
 trademark of Gaussian, Inc.
  
 This software contains proprietary and confidential information,
 including trade secrets, belonging to Gaussian, Inc.
  
 This software is provided under written license and may be
 used, copied, transmitted, or stored only in accord with that
 written license.
  
 The following legend is applicable only to US Government
 contracts under FAR:
  
                    RESTRICTED RIGHTS LEGEND
  
 Use, reproduction and disclosure by the US Government is
 subject to restrictions as set forth in subparagraphs (a)
 and (c) of the Commercial Computer Software - Restricted
 Rights clause in FAR 52.227-19.
  
 Gaussian, Inc.
 340 Quinnipiac St., Bldg. 40, Wallingford CT 06492
  
  
 ---------------------------------------------------------------
 Warning -- This program may not be used in any manner that
 competes with the business of Gaussian, Inc. or will provide
 assistance to any competitor of Gaussian, Inc.  The licensee
 of this program is prohibited from giving any competitor of
 Gaussian, Inc. access to this program.  By using this program,
 the user acknowledges that Gaussian, Inc. is engaged in the
 business of creating and licensing software in the field of
 computational chemistry and represents and warrants to the
 licensee that it is not a competitor of Gaussian, Inc. and that
 it will not use this program in any manner prohibited above.
 ---------------------------------------------------------------
  

 Cite this work as:
 Gaussian 16, Revision C.01,
 M. J. Frisch, G. W. Trucks, H. B. Schlegel, G. E. Scuseria, 
 M. A. Robb, J. R. Cheeseman, G. Scalmani, V. Barone, 
 G. A. Petersson, H. Nakatsuji, X. Li, M. Caricato, A. V. Marenich, 
 J. Bloino, B. G. Janesko, R. Gomperts, B. Mennucci, H. P. Hratchian, 
 J. V. Ortiz, A. F. Izmaylov, J. L. Sonnenberg, D. Williams-Young, 
 F. Ding, F. Lipparini, F. Egidi, J. Goings, B. Peng, A. Petrone, 
 T. Henderson, D. Ranasinghe, V. G. Zakrzewski, J. Gao, N. Rega, 
 G. Zheng, W. Liang, M. Hada, M. Ehara, K. Toyota, R. Fukuda, 
 J. Hasegawa, M. Ishida, T. Nakajima, Y. Honda, O. Kitao, H. Nakai, 
 T. Vreven, K. Throssell, J. A. Montgomery, Jr., J. E. Peralta, 
 F. Ogliaro, M. J. Bearpark, J. J. Heyd, E. N. Brothers, K. N. Kudin, 
 V. N. Staroverov, T. A. Keith, R. Kobayashi, J. Normand, 
 K. Raghavachari, A. P. Rendell, J. C. Burant, S. S. Iyengar, 
 J. Tomasi, M. Cossi, J. M. Millam, M. Klene, C. Adamo, R. Cammi, 
 J. W. Ochterski, R. L. Martin, K. Morokuma, O. Farkas, 
 J. B. Foresman, and D. J. Fox, Gaussian, Inc., Wallingford CT, 2019.
 
 ******************************************
 Gaussian 16:  ES64L-G16RevC.01  3-Jul-2019
                 9-Sep-2020 
 ******************************************
 %NprocShared=6
 Will use up to    6 processors via shared memory.
 %Mem=192000MB
 %chk=29_c2.DSDPBEP86_AUG-cc-PVTZ.chk
 ---------------------------------------------------------------------
 # DSDPBEP86/AUG-cc-PVTZ SCF=Tight INT(grid=ultrafine) MaxDisk=60000MB
 ---------------------------------------------------------------------
 1/38=1,172=1/1;
 2/12=2,17=6,18=5,40=1/2;
 3/5=16,6=1,7=10,11=9,25=1,30=1,74=-77,75=-5/1,2,3;
 4//1;
 5/5=2,32=2,38=5/2;
 8/10=1/1;
 9/16=-3/6;
 6/7=2,8=2,9=2,10=2/1;
 99/5=1,9=1/99;
 ---------------------------
 29_c2.DSDPBEP86_AUG-cc-PVTZ
 ---------------------------
 Symbolic Z-matrix:
 Charge =  0 Multiplicity = 1
 C                    -5.93969   0.77587   0.76554 
 N                    -4.63953   0.25746   0.82466 
 C                    -3.4505    0.95457   0.64092 
 O                    -3.40262   2.14024   0.39111 
 N                    -2.33692   0.16751   0.79155 
 C                    -1.01099   0.69129   0.49184 
 C                    -0.54438   0.3722   -0.92818 
 C                    -1.45698   0.95726  -2.00178 
 C                    -6.97844  -0.05979   1.18409 
 C                    -8.30104   0.35574   1.13788 
 C                    -8.60371   1.63331   0.66857 
 C                    -7.57615   2.46693   0.25324 
 C                    -6.25131   2.05414   0.29437 
 H                    -0.31106   0.28622   1.22649 
 H                    -1.06318   1.76972   0.64263 
 H                    -0.46932  -0.71493  -1.04964 
 H                     0.47165   0.76266  -1.04374 
 H                    -2.46592   0.54278  -1.93636 
 H                    -1.07497   0.73997  -3.00087 
 H                    -1.54465   2.04016  -1.89436 
 H                    -6.75606  -1.05472   1.55283 
 C                    -9.38331  -0.58664   1.5991 
 Cl                   -10.23999   2.213     0.58952 
 H                    -7.81766   3.45842  -0.10966 
 H                    -5.46522   2.71915  -0.02778 
 F                    -8.87254  -1.75896   2.00953 
 F                    -10.07979  -0.08749   2.62671 
 F                    -10.25485  -0.86581   0.6227 
 H                    -2.44706  -0.83509   0.75719 
 H                    -4.56979  -0.68113   1.1876 
 
                          Input orientation:                          
 ---------------------------------------------------------------------
 Center     Atomic      Atomic             Coordinates (Angstroms)
 Number     Number       Type             X           Y           Z
 ---------------------------------------------------------------------
      1          6           0       -5.939690    0.775869    0.765538
      2          7           0       -4.639527    0.257457    0.824658
      3          6           0       -3.450499    0.954566    0.640920
      4          8           0       -3.402620    2.140240    0.391112
      5          7           0       -2.336920    0.167510    0.791548
      6          6           0       -1.010992    0.691285    0.491841
      7          6           0       -0.544376    0.372203   -0.928183
      8          6           0       -1.456976    0.957263   -2.001780
      9          6           0       -6.978438   -0.059789    1.184090
     10          6           0       -8.301041    0.355740    1.137883
     11          6           0       -8.603708    1.633306    0.668569
     12          6           0       -7.576150    2.466930    0.253241
     13          6           0       -6.251307    2.054144    0.294375
     14          1           0       -0.311057    0.286216    1.226490
     15          1           0       -1.063180    1.769717    0.642628
     16          1           0       -0.469315   -0.714934   -1.049644
     17          1           0        0.471650    0.762665   -1.043738
     18          1           0       -2.465922    0.542777   -1.936364
     19          1           0       -1.074973    0.739969   -3.000874
     20          1           0       -1.544648    2.040159   -1.894357
     21          1           0       -6.756061   -1.054723    1.552826
     22          6           0       -9.383314   -0.586644    1.599099
     23         17           0      -10.239992    2.213005    0.589520
     24          1           0       -7.817664    3.458420   -0.109657
     25          1           0       -5.465218    2.719146   -0.027778
     26          9           0       -8.872544   -1.758956    2.009533
     27          9           0      -10.079791   -0.087487    2.626708
     28          9           0      -10.254853   -0.865806    0.622703
     29          1           0       -2.447062   -0.835087    0.757185
     30          1           0       -4.569791   -0.681131    1.187601
 ---------------------------------------------------------------------
                    Distance matrix (angstroms):
                    1          2          3          4          5
     1  C    0.000000
     2  N    1.400954   0.000000
     3  C    2.498707   1.390506   0.000000
     4  O    2.904897   2.294073   1.212649   0.000000
     5  N    3.653865   2.304601   1.371935   2.277659   0.000000
     6  C    4.937016   3.669501   2.458198   2.798124   1.456794
     7  C    5.669308   4.455993   3.353622   3.610547   2.492506
     8  C    5.271212   4.313596   3.310288   3.303165   3.033264
     9  C    1.397322   2.387539   3.710836   4.272636   4.663630
    10  C    2.427165   3.676202   4.912568   5.266558   5.977133
    11  C    2.800285   4.199055   5.197790   5.233096   6.437105
    12  C    2.408347   3.719145   4.411183   4.188567   5.746881
    13  C    1.397529   2.471259   3.028811   2.851630   4.373671
    14  H    5.668664   4.347177   3.262772   3.700408   2.075424
    15  H    4.978272   3.887200   2.522651   2.381917   2.052233
    16  H    5.953350   4.674314   3.812177   4.339594   2.767064
    17  H    6.661752   5.465370   4.272956   4.355052   3.407426
    18  H    4.407002   3.525508   2.789508   2.974296   2.756623
    19  H    6.152448   5.251052   4.353371   4.345604   4.037658
    20  H    5.290545   4.488802   3.352374   2.947108   3.368767
    21  H    2.153451   2.594564   3.974362   4.775241   4.647817
    22  C    3.796026   4.880142   6.204170   6.683100   7.132500
    23  Cl   4.537503   5.936722   6.905326   6.840637   8.165991
    24  H    3.389518   4.606481   5.089674   4.634758   6.456069
    25  H    2.151929   2.732823   2.760433   2.182868   4.119271
    26  F    4.071179   4.836144   6.215696   6.909637   6.921643
    27  F    4.620582   5.741328   6.998339   7.385477   7.961463
    28  F    4.619105   5.730131   7.043673   7.486191   7.986859
    29  H    3.846259   2.450532   2.055058   3.146375   1.009214
    30  H    2.043921   1.008732   2.056011   3.155443   2.421315
                    6          7          8          9         10
     6  C    0.000000
     7  C    1.528401   0.000000
     8  C    2.547115   1.525695   0.000000
     9  C    6.054233   6.785681   6.455286   0.000000
    10  C    7.326307   8.027126   7.553843   1.387112   0.000000
    11  C    7.652972   8.312210   7.659216   2.402880   1.394287
    12  C    6.805229   7.431655   6.693916   2.758269   2.401079
    13  C    5.418236   6.073931   5.427807   2.406040   2.792399
    14  H    1.092565   2.168973   3.490725   6.676488   7.990778
    15  H    1.090173   2.165560   2.794289   6.215348   7.391295
    16  H    2.155700   1.096474   2.162933   6.912848   8.201680
    17  H    2.135726   1.094587   2.162246   7.819429   9.049042
    18  H    2.834618   2.176664   1.092726   5.519341   6.598075
    19  H    3.493640   2.170907   1.091481   7.280414   8.336246
    20  H    2.792524   2.171662   1.091737   6.588831   7.594774
    21  H    6.097544   6.839338   6.690561   1.084117   2.132733
    22  C    8.541364   9.243017   8.841765   2.496645   1.507356
    23  Cl   9.354123   9.984836   9.243003   4.019557   2.740376
    24  H    7.372220   7.943264   7.091846   3.841338   3.378851
    25  H    4.921621   5.525718   4.802804   3.388353   3.871220
    26  F    8.373236   9.084624   8.857716   2.675100   2.357611
    27  F    9.349185  10.186889   9.842121   3.420571   2.361568
    28  F    9.375000   9.911170   9.360243   3.420485   2.361137
    29  H    2.112467   2.813935   3.435794   4.617002   5.985990
    30  H    3.877198   4.667979   4.748274   2.487501   3.872958
                   11         12         13         14         15
    11  C    0.000000
    12  C    1.386832   0.000000
    13  C    2.418867   1.388269   0.000000
    14  H    8.419857   7.647503   6.267454   0.000000
    15  H    7.541807   6.561746   5.207576   1.762770   0.000000
    16  H    8.639146   7.894863   6.550238   2.491613   3.064303
    17  H    9.276429   8.327890   6.975430   2.448177   2.492727
    18  H    6.756282   5.883125   4.646458   3.835742   3.181866
    19  H    8.422869   7.472413   6.275361   4.319730   3.786242
    20  H    7.520934   6.416644   5.190702   3.786522   2.596391
    21  H    3.379528   3.842330   3.391685   6.591106   6.419876
    22  C    2.530187   3.794929   4.299481   9.121763   8.700109
    23  Cl   1.737735   2.696964   4.002743  10.134199   9.187666
    24  H    2.134138   1.083087   2.142127   8.258167   7.002907
    25  H    3.393239   2.144439   1.078863   5.835898   4.552889
    26  F    3.657580   4.756397   4.934814   8.837135   8.677911
    27  F    2.995706   4.292623   4.968264   9.875649   9.417275
    28  F    2.995654   4.291746   4.966115  10.028499   9.562073
    29  H    6.633635   6.120852   4.799389   2.457658   2.951823
    30  H    4.679583   4.452136   3.332729   4.367389   4.312769
                   16         17         18         19         20
    16  H    0.000000
    17  H    1.751785   0.000000
    18  H    2.520823   3.078062   0.000000
    19  H    2.508159   2.494582   1.762613   0.000000
    20  H    3.075779   2.533969   1.758597   1.770725   0.000000
    21  H    6.812596   7.892075   5.756017   7.498790   6.972817
    22  C    9.300090  10.292013   7.850185   9.588961   8.974910
    23  Cl  10.330818  10.932076   8.343015   9.952805   9.044806
    24  H    8.502864   8.766546   6.362309   7.823873   6.674380
    25  H    6.147858   6.332961   4.168340   5.659566   4.394998
    26  F    9.003488  10.148645   7.868474   9.599527   9.130810
    27  F   10.308758  11.203921   8.898868  10.650873   9.890176
    28  F    9.928558  10.976649   8.318676   9.998951   9.520919
    29  H    2.681520   3.783519   3.025570   4.299586   4.013984
    30  H    4.671222   5.699083   3.960224   5.637074   5.104447
                   21         22         23         24         25
    21  H    0.000000
    22  C    2.669026   0.000000
    23  Cl   4.872759   3.096963   0.000000
    24  H    4.925374   4.661937   2.812042   0.000000
    25  H    4.290299   5.378332   4.841043   2.467232   0.000000
    26  F    2.276846   1.343003   4.434278   5.729289   5.984472
    27  F    3.624356   1.337990   3.077022   5.017805   6.018120
    28  F    3.625241   1.338231   3.079026   5.017487   6.017941
    29  H    4.387340   6.991576   8.369512   6.930295   4.728425
    30  H    2.247829   4.832004   6.394130   5.419174   3.720325
                   26         27         28         29         30
    26  F    0.000000
    27  F    2.152245   0.000000
    28  F    2.152160   2.156957   0.000000
    29  H    6.611258   7.893832   7.809010   0.000000
    30  H    4.511204   5.725691   5.716043   2.171392   0.000000
 Stoichiometry    C11H12ClF3N2O
 Framework group  C1[X(C11H12ClF3N2O)]
 Deg. of freedom    84
 Full point group                 C1      NOp   1
 Largest Abelian subgroup         C1      NOp   1
 Largest concise Abelian subgroup C1      NOp   1
                         Standard orientation:                         
 ---------------------------------------------------------------------
 Center     Atomic      Atomic             Coordinates (Angstroms)
 Number     Number       Type             X           Y           Z
 ---------------------------------------------------------------------
      1          6           0       -0.308088   -0.010725   -0.195639
      2          7           0       -1.551182   -0.654679   -0.247698
      3          6           0       -2.780233   -0.080096   -0.552322
      4          8           0       -2.922276    1.095881   -0.811976
      5          7           0       -3.812117   -0.984202   -0.548980
      6          6           0       -5.190707   -0.538572   -0.701145
      7          6           0       -5.907339   -0.331645    0.632884
      8          6           0       -5.241124    0.723449    1.510767
      9          6           0        0.824043   -0.820186   -0.070895
     10          6           0        2.095717   -0.272804    0.014512
     11          6           0        2.251788    1.112057   -0.028337
     12          6           0        1.131329    1.919671   -0.153384
     13          6           0       -0.143622    1.376515   -0.235678
     14          1           0       -5.720400   -1.273400   -1.312006
     15          1           0       -5.153677    0.395061   -1.262781
     16          1           0       -5.960841   -1.287212    1.167940
     17          1           0       -6.941448   -0.044445    0.417815
     18          1           0       -4.222594    0.432949    1.779574
     19          1           0       -5.798282    0.869560    2.437890
     20          1           0       -5.177771    1.682013    0.992085
     21          1           0        0.716195   -1.898434   -0.038325
     22          6           0        3.282953   -1.191525    0.150695
     23         17           0        3.818260    1.857773    0.070641
     24          1           0        1.259199    2.994665   -0.186777
     25          1           0       -1.002715    2.021006   -0.338329
     26          9           0        2.907330   -2.480769    0.171059
     27          9           0        4.142736   -1.055402   -0.865406
     28          9           0        3.961965   -0.969203    1.282233
     29          1           0       -3.670693   -1.875354   -0.096918
     30          1           0       -1.512688   -1.661904   -0.208234
 ---------------------------------------------------------------------
 Rotational constants (GHZ):           0.8638875           0.1464232           0.1331408
 Standard basis: Aug-CC-pVTZ (5D, 7F)
 There are  1294 symmetry adapted cartesian basis functions of A   symmetry.
 There are  1108 symmetry adapted basis functions of A   symmetry.
  1108 basis functions,  1662 primitive gaussians,  1294 cartesian basis functions
    72 alpha electrons       72 beta electrons
       nuclear repulsion energy      1457.8803866555 Hartrees.
 NAtoms=   30 NActive=   30 NUniq=   30 SFac= 1.00D+00 NAtFMM=   60 NAOKFM=F Big=F
 Integral buffers will be    131072 words long.
 Regular integral format.
 Two-electron integral symmetry is turned on.
 Nuclear repulsion after empirical dispersion term =     1457.8569226673 Hartrees.
 One-electron integrals computed using PRISM.
 NBasis=  1108 RedAO= T EigKep=  1.55D-06  NBF=  1108
 NBsUse=  1104 1.00D-06 EigRej=  9.66D-07 NBFU=  1104
 ExpMin= 2.53D-02 ExpMax= 4.56D+05 ExpMxC= 1.44D+03 IAcc=3 IRadAn=         5 AccDes= 0.00D+00
 Harris functional with IExCor= 1004 and IRadAn=       5 diagonalized for initial guess.
 HarFok:  IExCor= 1004 AccDes= 0.00D+00 IRadAn=         5 IDoV= 1 UseB2=F ITyADJ=14
 ICtDFT=  3500011 ScaDFX=  1.000000  1.000000  1.000000  1.000000
 FoFCou: FMM=F IPFlag=           0 FMFlag=      100000 FMFlg1=           0
         NFxFlg=           0 DoJE=T BraDBF=F KetDBF=T FulRan=T
         wScrn=  0.000000 ICntrl=       500 IOpCl=  0 I1Cent=   200000004 NGrid=           0
         NMat0=    1 NMatS0=      1 NMatT0=    0 NMatD0=    1 NMtDS0=    0 NMtDT0=    0
 Petite list used in FoFCou.
 Requested convergence on RMS density matrix=1.00D-08 within 128 cycles.
 Requested convergence on MAX density matrix=1.00D-06.
 Requested convergence on             energy=1.00D-06.
 No special actions if energy rises.
 SCF Done:  E(RDSDPBEP86) =  -1367.76583224     A.U. after   13 cycles
            NFock= 13  Conv=0.83D-08     -V/T= 2.0025
 DoSCS=T DFT=T ScalE2(SS,OS)=  0.220000  0.520000
 ExpMin= 2.53D-02 ExpMax= 4.56D+05 ExpMxC= 1.44D+03 IAcc=3 IRadAn=         5 AccDes= 0.00D+00
 HarFok:  IExCor=  205 AccDes= 0.00D+00 IRadAn=         5 IDoV=-2 UseB2=F ITyADJ=14
 ICtDFT= 12500011 ScaDFX=  1.000000  1.000000  1.000000  1.000000
 GSVD:  LWork=        -660 too small for GESVD, short by        2750 words or        2750 for optimal perf.
 Range of M.O.s used for correlation:    23  1104
 NBasis=  1108 NAE=    72 NBE=    72 NFC=    22 NFV=     0
 NROrb=   1082 NOA=    50 NOB=    50 NVA=  1032 NVB=  1032

 **** Warning!!: The largest alpha MO coefficient is  0.11173206D+03

 DoSCS=T DFT=T ScalE2(SS,OS)=  0.220000  0.520000
 Fully direct method using O(OVN) memory.
 JobTyp=1 Pass  1:  I=   1 to  50 NPSUse=  6 ParTrn=T ParDer=T DoDerP=F.
 Spin components of T(2) and E(2):
     alpha-alpha T2 =       0.1757208490D+00 E2=     -0.1099946950D+00
     alpha-beta  T2 =       0.9093618603D+00 E2=     -0.1477710006D+01
     beta-beta   T2 =       0.1757208490D+00 E2=     -0.1099946950D+00
 E2(DSDPBEP86) =    -0.1697699396D+01 E(DSDPBEP86) =    -0.13694635316342D+04

 **********************************************************************

            Population analysis using the SCF Density.

 **********************************************************************

 Orbital symmetries:
       Occupied  (A) (A) (A) (A) (A) (A) (A) (A) (A) (A) (A) (A)
                 (A) (A) (A) (A) (A) (A) (A) (A) (A) (A) (A) (A)
                 (A) (A) (A) (A) (A) (A) (A) (A) (A) (A) (A) (A)
                 (A) (A) (A) (A) (A) (A) (A) (A) (A) (A) (A) (A)
                 (A) (A) (A) (A) (A) (A) (A) (A) (A) (A) (A) (A)
                 (A) (A) (A) (A) (A) (A) (A) (A) (A) (A) (A) (A)
       Virtual   (A) (A) (A) (A) (A) (A) (A) (A) (A) (A) (A) (A)
                 (A) (A) (A) (A) (A) (A) (A) (A) (A) (A) (A) (A)
                 (A) (A) (A) (A) (A) (A) (A) (A) (A) (A) (A) (A)
                 (A) (A) (A) (A) (A) (A) (A) (A) (A) (A) (A) (A)
                 (A) (A) (A) (A) (A) (A) (A) (A) (A) (A) (A) (A)
                 (A) (A) (A) (A) (A) (A) (A) (A) (A) (A) (A) (A)
                 (A) (A) (A) (A) (A) (A) (A) (A) (A) (A) (A) (A)
                 (A) (A) (A) (A) (A) (A) (A) (A) (A) (A) (A) (A)
                 (A) (A) (A) (A) (A) (A) (A) (A) (A) (A) (A) (A)
                 (A) (A) (A) (A) (A) (A) (A) (A) (A) (A) (A) (A)
                 (A) (A) (A) (A) (A) (A) (A) (A) (A) (A) (A) (A)
                 (A) (A) (A) (A) (A) (A) (A) (A) (A) (A) (A) (A)
                 (A) (A) (A) (A) (A) (A) (A) (A) (A) (A) (A) (A)
                 (A) (A) (A) (A) (A) (A) (A) (A) (A) (A) (A) (A)
                 (A) (A) (A) (A) (A) (A) (A) (A) (A) (A) (A) (A)
                 (A) (A) (A) (A) (A) (A) (A) (A) (A) (A) (A) (A)
                 (A) (A) (A) (A) (A) (A) (A) (A) (A) (A) (A) (A)
                 (A) (A) (A) (A) (A) (A) (A) (A) (A) (A) (A) (A)
                 (A) (A) (A) (A) (A) (A) (A) (A) (A) (A) (A) (A)
                 (A) (A) (A) (A) (A) (A) (A) (A) (A) (A) (A) (A)
                 (A) (A) (A) (A) (A) (A) (A) (A) (A) (A) (A) (A)
                 (A) (A) (A) (A) (A) (A) (A) (A) (A) (A) (A) (A)
                 (A) (A) (A) (A) (A) (A) (A) (A) (A) (A) (A) (A)
                 (A) (A) (A) (A) (A) (A) (A) (A) (A) (A) (A) (A)
                 (A) (A) (A) (A) (A) (A) (A) (A) (A) (A) (A) (A)
                 (A) (A) (A) (A) (A) (A) (A) (A) (A) (A) (A) (A)
                 (A) (A) (A) (A) (A) (A) (A) (A) (A) (A) (A) (A)
                 (A) (A) (A) (A) (A) (A) (A) (A) (A) (A) (A) (A)
                 (A) (A) (A) (A) (A) (A) (A) (A) (A) (A) (A) (A)
                 (A) (A) (A) (A) (A) (A) (A) (A) (A) (A) (A) (A)
                 (A) (A) (A) (A) (A) (A) (A) (A) (A) (A) (A) (A)
                 (A) (A) (A) (A) (A) (A) (A) (A) (A) (A) (A) (A)
                 (A) (A) (A) (A) (A) (A) (A) (A) (A) (A) (A) (A)
                 (A) (A) (A) (A) (A) (A) (A) (A) (A) (A) (A) (A)
                 (A) (A) (A) (A) (A) (A) (A) (A) (A) (A) (A) (A)
                 (A) (A) (A) (A) (A) (A) (A) (A) (A) (A) (A) (A)
                 (A) (A) (A) (A) (A) (A) (A) (A) (A) (A) (A) (A)
                 (A) (A) (A) (A) (A) (A) (A) (A) (A) (A) (A) (A)
                 (A) (A) (A) (A) (A) (A) (A) (A) (A) (A) (A) (A)
                 (A) (A) (A) (A) (A) (A) (A) (A) (A) (A) (A) (A)
                 (A) (A) (A) (A) (A) (A) (A) (A) (A) (A) (A) (A)
                 (A) (A) (A) (A) (A) (A) (A) (A) (A) (A) (A) (A)
                 (A) (A) (A) (A) (A) (A) (A) (A) (A) (A) (A) (A)
                 (A) (A) (A) (A) (A) (A) (A) (A) (A) (A) (A) (A)
                 (A) (A) (A) (A) (A) (A) (A) (A) (A) (A) (A) (A)
                 (A) (A) (A) (A) (A) (A) (A) (A) (A) (A) (A) (A)
                 (A) (A) (A) (A) (A) (A) (A) (A) (A) (A) (A) (A)
                 (A) (A) (A) (A) (A) (A) (A) (A) (A) (A) (A) (A)
                 (A) (A) (A) (A) (A) (A) (A) (A) (A) (A) (A) (A)
                 (A) (A) (A) (A) (A) (A) (A) (A) (A) (A) (A) (A)
                 (A) (A) (A) (A) (A) (A) (A) (A) (A) (A) (A) (A)
                 (A) (A) (A) (A) (A) (A) (A) (A) (A) (A) (A) (A)
                 (A) (A) (A) (A) (A) (A) (A) (A) (A) (A) (A) (A)
                 (A) (A) (A) (A) (A) (A) (A) (A) (A) (A) (A) (A)
                 (A) (A) (A) (A) (A) (A) (A) (A) (A) (A) (A) (A)
                 (A) (A) (A) (A) (A) (A) (A) (A) (A) (A) (A) (A)
                 (A) (A) (A) (A) (A) (A) (A) (A) (A) (A) (A) (A)
                 (A) (A) (A) (A) (A) (A) (A) (A) (A) (A) (A) (A)
                 (A) (A) (A) (A) (A) (A) (A) (A) (A) (A) (A) (A)
                 (A) (A) (A) (A) (A) (A) (A) (A) (A) (A) (A) (A)
                 (A) (A) (A) (A) (A) (A) (A) (A) (A) (A) (A) (A)
                 (A) (A) (A) (A) (A) (A) (A) (A) (A) (A) (A) (A)
                 (A) (A) (A) (A) (A) (A) (A) (A) (A) (A) (A) (A)
                 (A) (A) (A) (A) (A) (A) (A) (A) (A) (A) (A) (A)
                 (A) (A) (A) (A) (A) (A) (A) (A) (A) (A) (A) (A)
                 (A) (A) (A) (A) (A) (A) (A) (A) (A) (A) (A) (A)
                 (A) (A) (A) (A) (A) (A) (A) (A) (A) (A) (A) (A)
                 (A) (A) (A) (A) (A) (A) (A) (A) (A) (A) (A) (A)
                 (A) (A) (A) (A) (A) (A) (A) (A) (A) (A) (A) (A)
                 (A) (A) (A) (A) (A) (A) (A) (A) (A) (A) (A) (A)
                 (A) (A) (A) (A) (A) (A) (A) (A) (A) (A) (A) (A)
                 (A) (A) (A) (A) (A) (A) (A) (A) (A) (A) (A) (A)
                 (A) (A) (A) (A) (A) (A) (A) (A) (A) (A) (A) (A)
                 (A) (A) (A) (A) (A) (A) (A) (A) (A) (A) (A) (A)
                 (A) (A) (A) (A) (A) (A) (A) (A) (A) (A) (A) (A)
                 (A) (A) (A) (A) (A) (A) (A) (A) (A) (A) (A) (A)
                 (A) (A) (A) (A) (A) (A) (A) (A) (A) (A) (A) (A)
                 (A) (A) (A) (A) (A) (A) (A) (A) (A) (A) (A) (A)
                 (A) (A) (A) (A) (A) (A) (A) (A) (A) (A) (A) (A)
                 (A) (A) (A) (A) (A) (A) (A) (A) (A) (A) (A) (A)
                 (A) (A) (A) (A) (A) (A) (A) (A) (A) (A) (A) (A)
                 (A) (A) (A) (A) (A) (A) (A) (A) (A) (A) (A) (A)
                 (A) (A) (A) (A) (A) (A) (A) (A) (A) (A) (A) (A)
                 (A) (A) (A) (A) (A) (A) (A) (A) (A) (A) (A) (A)
                 (A) (A) (A) (A) (A) (A) (A) (A) (A) (A) (A) (A)
                 (A) (A) (A) (A) (A) (A) (A) (A) (A) (A) (A) (A)
 The electronic state is 1-A.
 Alpha  occ. eigenvalues -- -103.57615 -25.71472 -25.70876 -25.70869 -19.97954
 Alpha  occ. eigenvalues --  -15.13679 -15.11628 -11.09109 -10.97622 -10.90186
 Alpha  occ. eigenvalues --  -10.89803 -10.87002 -10.85929 -10.85453 -10.84852
 Alpha  occ. eigenvalues --  -10.84015 -10.82378 -10.80629 -10.15113  -7.72800
 Alpha  occ. eigenvalues --   -7.72314  -7.72301  -1.57831  -1.48435  -1.48111
 Alpha  occ. eigenvalues --   -1.29005  -1.16551  -1.12990  -1.09450  -1.02417
 Alpha  occ. eigenvalues --   -0.97612  -0.96138  -0.91976  -0.87349  -0.85327
 Alpha  occ. eigenvalues --   -0.80053  -0.78350  -0.76034  -0.73916  -0.73895
 Alpha  occ. eigenvalues --   -0.73479  -0.71216  -0.69642  -0.64461  -0.62344
 Alpha  occ. eigenvalues --   -0.62305  -0.61443  -0.60038  -0.59564  -0.58830
 Alpha  occ. eigenvalues --   -0.57876  -0.57416  -0.55929  -0.55904  -0.55751
 Alpha  occ. eigenvalues --   -0.55024  -0.53673  -0.52699  -0.50728  -0.49779
 Alpha  occ. eigenvalues --   -0.49252  -0.47838  -0.46464  -0.45241  -0.44582
 Alpha  occ. eigenvalues --   -0.43715  -0.41017  -0.39948  -0.39324  -0.36036
 Alpha  occ. eigenvalues --   -0.34416  -0.29200
 Alpha virt. eigenvalues --    0.00211   0.01840   0.02259   0.02509   0.03082
 Alpha virt. eigenvalues --    0.03332   0.03736   0.04016   0.04432   0.04814
 Alpha virt. eigenvalues --    0.05171   0.05403   0.05580   0.06408   0.07144
 Alpha virt. eigenvalues --    0.07524   0.07651   0.08331   0.08588   0.08779
 Alpha virt. eigenvalues --    0.09051   0.09743   0.09981   0.10277   0.10353
 Alpha virt. eigenvalues --    0.10469   0.10861   0.11153   0.11362   0.11733
 Alpha virt. eigenvalues --    0.11946   0.12188   0.12586   0.12852   0.13133
 Alpha virt. eigenvalues --    0.13717   0.13842   0.14022   0.14307   0.14425
 Alpha virt. eigenvalues --    0.14585   0.15137   0.15269   0.15797   0.16196
 Alpha virt. eigenvalues --    0.16633   0.16962   0.17125   0.17310   0.17767
 Alpha virt. eigenvalues --    0.18445   0.18632   0.18860   0.19296   0.20038
 Alpha virt. eigenvalues --    0.20251   0.20459   0.20726   0.21157   0.21815
 Alpha virt. eigenvalues --    0.22017   0.22247   0.22621   0.23088   0.23294
 Alpha virt. eigenvalues --    0.23744   0.24017   0.24462   0.24642   0.24711
 Alpha virt. eigenvalues --    0.24945   0.25308   0.25641   0.25942   0.26345
 Alpha virt. eigenvalues --    0.26480   0.27136   0.27619   0.27855   0.28165
 Alpha virt. eigenvalues --    0.28247   0.28410   0.28917   0.29122   0.29487
 Alpha virt. eigenvalues --    0.29878   0.30245   0.30356   0.30645   0.30872
 Alpha virt. eigenvalues --    0.31199   0.31401   0.31496   0.31933   0.32444
 Alpha virt. eigenvalues --    0.32553   0.32764   0.33001   0.33194   0.33485
 Alpha virt. eigenvalues --    0.33690   0.34136   0.34755   0.34788   0.35171
 Alpha virt. eigenvalues --    0.35278   0.35516   0.36101   0.36515   0.36853
 Alpha virt. eigenvalues --    0.37148   0.37320   0.37550   0.37830   0.38666
 Alpha virt. eigenvalues --    0.38700   0.39029   0.39210   0.39295   0.39691
 Alpha virt. eigenvalues --    0.40018   0.40445   0.40593   0.41127   0.41343
 Alpha virt. eigenvalues --    0.41686   0.41799   0.42012   0.42488   0.42873
 Alpha virt. eigenvalues --    0.42918   0.43218   0.43626   0.43920   0.44285
 Alpha virt. eigenvalues --    0.44439   0.44776   0.44920   0.45357   0.45565
 Alpha virt. eigenvalues --    0.46069   0.46346   0.46887   0.47025   0.47212
 Alpha virt. eigenvalues --    0.47547   0.47890   0.48122   0.48700   0.48810
 Alpha virt. eigenvalues --    0.48973   0.49141   0.50018   0.50443   0.50556
 Alpha virt. eigenvalues --    0.50632   0.51072   0.51259   0.51686   0.52102
 Alpha virt. eigenvalues --    0.52369   0.52725   0.52803   0.52959   0.53480
 Alpha virt. eigenvalues --    0.53571   0.54109   0.54183   0.54495   0.55179
 Alpha virt. eigenvalues --    0.55692   0.55890   0.56378   0.56549   0.56764
 Alpha virt. eigenvalues --    0.58259   0.58322   0.58851   0.59119   0.59538
 Alpha virt. eigenvalues --    0.59770   0.60552   0.61136   0.61473   0.61794
 Alpha virt. eigenvalues --    0.62054   0.62182   0.62928   0.63225   0.63969
 Alpha virt. eigenvalues --    0.64456   0.64840   0.65167   0.65430   0.65841
 Alpha virt. eigenvalues --    0.66213   0.66332   0.66996   0.67350   0.67676
 Alpha virt. eigenvalues --    0.68383   0.68476   0.69553   0.69779   0.70917
 Alpha virt. eigenvalues --    0.71116   0.71439   0.72037   0.72204   0.72350
 Alpha virt. eigenvalues --    0.73394   0.73547   0.73717   0.74513   0.74950
 Alpha virt. eigenvalues --    0.75266   0.75937   0.76190   0.76589   0.76966
 Alpha virt. eigenvalues --    0.77805   0.78045   0.78427   0.78914   0.79510
 Alpha virt. eigenvalues --    0.79823   0.80443   0.81211   0.81484   0.81572
 Alpha virt. eigenvalues --    0.81762   0.82076   0.82623   0.83171   0.83386
 Alpha virt. eigenvalues --    0.83673   0.84074   0.84292   0.84686   0.85279
 Alpha virt. eigenvalues --    0.85804   0.86112   0.86480   0.86684   0.86887
 Alpha virt. eigenvalues --    0.87300   0.87621   0.88317   0.88491   0.88662
 Alpha virt. eigenvalues --    0.89045   0.89527   0.89674   0.90081   0.90808
 Alpha virt. eigenvalues --    0.91084   0.91966   0.92088   0.92608   0.92813
 Alpha virt. eigenvalues --    0.93502   0.93685   0.93848   0.94228   0.94375
 Alpha virt. eigenvalues --    0.94793   0.95243   0.95422   0.96012   0.96385
 Alpha virt. eigenvalues --    0.96961   0.97406   0.97771   0.98209   0.98410
 Alpha virt. eigenvalues --    0.98979   0.99402   0.99946   1.00654   1.00855
 Alpha virt. eigenvalues --    1.01375   1.01724   1.01930   1.02269   1.02765
 Alpha virt. eigenvalues --    1.03484   1.03936   1.04018   1.04182   1.04505
 Alpha virt. eigenvalues --    1.05024   1.05177   1.05575   1.05779   1.05861
 Alpha virt. eigenvalues --    1.06171   1.06802   1.06861   1.07703   1.07785
 Alpha virt. eigenvalues --    1.08149   1.08628   1.09125   1.09486   1.09977
 Alpha virt. eigenvalues --    1.10489   1.10609   1.11020   1.11407   1.11700
 Alpha virt. eigenvalues --    1.12163   1.12392   1.12806   1.13625   1.14139
 Alpha virt. eigenvalues --    1.14194   1.14425   1.15076   1.15112   1.15569
 Alpha virt. eigenvalues --    1.16921   1.17003   1.17534   1.17679   1.18030
 Alpha virt. eigenvalues --    1.18682   1.18830   1.18987   1.19613   1.19764
 Alpha virt. eigenvalues --    1.20632   1.21015   1.21121   1.21491   1.22078
 Alpha virt. eigenvalues --    1.22397   1.22980   1.23590   1.23923   1.24644
 Alpha virt. eigenvalues --    1.25400   1.26259   1.26554   1.26665   1.27021
 Alpha virt. eigenvalues --    1.27310   1.28090   1.28971   1.29492   1.29875
 Alpha virt. eigenvalues --    1.30244   1.30955   1.31158   1.31445   1.31708
 Alpha virt. eigenvalues --    1.32141   1.32718   1.33359   1.33503   1.34123
 Alpha virt. eigenvalues --    1.34269   1.34946   1.35797   1.36162   1.36588
 Alpha virt. eigenvalues --    1.37055   1.37441   1.37938   1.38546   1.39157
 Alpha virt. eigenvalues --    1.39605   1.40195   1.41160   1.41455   1.42114
 Alpha virt. eigenvalues --    1.42165   1.42265   1.43242   1.43684   1.43806
 Alpha virt. eigenvalues --    1.44388   1.45120   1.45509   1.45804   1.46623
 Alpha virt. eigenvalues --    1.47200   1.48105   1.48712   1.48966   1.49536
 Alpha virt. eigenvalues --    1.49857   1.49972   1.51131   1.51635   1.52690
 Alpha virt. eigenvalues --    1.52847   1.53303   1.53757   1.54167   1.55063
 Alpha virt. eigenvalues --    1.55441   1.55693   1.55866   1.56864   1.57480
 Alpha virt. eigenvalues --    1.57991   1.58219   1.58955   1.59203   1.59844
 Alpha virt. eigenvalues --    1.60462   1.60834   1.61227   1.61809   1.62149
 Alpha virt. eigenvalues --    1.62358   1.63089   1.63736   1.64043   1.64823
 Alpha virt. eigenvalues --    1.65122   1.65496   1.66169   1.66455   1.67568
 Alpha virt. eigenvalues --    1.68009   1.68510   1.69151   1.69253   1.69770
 Alpha virt. eigenvalues --    1.70502   1.71159   1.71651   1.71748   1.72746
 Alpha virt. eigenvalues --    1.73339   1.73687   1.74371   1.74665   1.74995
 Alpha virt. eigenvalues --    1.75459   1.76137   1.76296   1.76864   1.77002
 Alpha virt. eigenvalues --    1.77828   1.78399   1.78900   1.79338   1.80373
 Alpha virt. eigenvalues --    1.80530   1.81307   1.81718   1.81944   1.83197
 Alpha virt. eigenvalues --    1.83701   1.83891   1.84848   1.85204   1.85419
 Alpha virt. eigenvalues --    1.85775   1.86386   1.86917   1.87374   1.88128
 Alpha virt. eigenvalues --    1.88855   1.89468   1.89961   1.90478   1.91375
 Alpha virt. eigenvalues --    1.91488   1.92410   1.92564   1.93197   1.93650
 Alpha virt. eigenvalues --    1.94392   1.94797   1.95524   1.95834   1.96385
 Alpha virt. eigenvalues --    1.96720   1.97292   1.98087   1.99097   1.99445
 Alpha virt. eigenvalues --    1.99760   2.00269   2.00624   2.01631   2.02887
 Alpha virt. eigenvalues --    2.03280   2.03418   2.04644   2.04896   2.05820
 Alpha virt. eigenvalues --    2.06617   2.07376   2.08324   2.08833   2.09707
 Alpha virt. eigenvalues --    2.11008   2.11911   2.12336   2.13004   2.13751
 Alpha virt. eigenvalues --    2.14260   2.14747   2.15277   2.16043   2.16622
 Alpha virt. eigenvalues --    2.17620   2.18804   2.19207   2.20073   2.20401
 Alpha virt. eigenvalues --    2.21164   2.21585   2.22122   2.22687   2.23406
 Alpha virt. eigenvalues --    2.25091   2.26199   2.26714   2.27270   2.28866
 Alpha virt. eigenvalues --    2.29102   2.29640   2.30783   2.30942   2.33024
 Alpha virt. eigenvalues --    2.33804   2.34518   2.34893   2.35333   2.37097
 Alpha virt. eigenvalues --    2.37249   2.37627   2.38735   2.39064   2.40260
 Alpha virt. eigenvalues --    2.40989   2.42133   2.43685   2.43918   2.44628
 Alpha virt. eigenvalues --    2.45692   2.46395   2.47210   2.48437   2.49084
 Alpha virt. eigenvalues --    2.50568   2.50810   2.51358   2.52575   2.53095
 Alpha virt. eigenvalues --    2.54109   2.55115   2.56845   2.57280   2.58304
 Alpha virt. eigenvalues --    2.59212   2.59978   2.60187   2.60980   2.62355
 Alpha virt. eigenvalues --    2.62997   2.64265   2.64787   2.66218   2.66788
 Alpha virt. eigenvalues --    2.67711   2.69119   2.70441   2.70480   2.70927
 Alpha virt. eigenvalues --    2.72101   2.73500   2.74392   2.75422   2.76151
 Alpha virt. eigenvalues --    2.76812   2.77745   2.78717   2.80885   2.81874
 Alpha virt. eigenvalues --    2.82550   2.82855   2.84589   2.86433   2.88137
 Alpha virt. eigenvalues --    2.88500   2.89050   2.90148   2.91444   2.91908
 Alpha virt. eigenvalues --    2.93360   2.94470   2.94489   2.95530   2.96035
 Alpha virt. eigenvalues --    2.97302   2.98923   2.99259   3.00337   3.00654
 Alpha virt. eigenvalues --    3.01195   3.02284   3.04026   3.04798   3.05932
 Alpha virt. eigenvalues --    3.06282   3.07783   3.08966   3.09712   3.10219
 Alpha virt. eigenvalues --    3.10779   3.12643   3.13507   3.15282   3.15794
 Alpha virt. eigenvalues --    3.16091   3.16866   3.17384   3.18744   3.19911
 Alpha virt. eigenvalues --    3.20640   3.21285   3.22277   3.23394   3.23863
 Alpha virt. eigenvalues --    3.24890   3.25226   3.25847   3.27708   3.28206
 Alpha virt. eigenvalues --    3.28937   3.29407   3.30186   3.30567   3.31676
 Alpha virt. eigenvalues --    3.31869   3.33216   3.34235   3.35323   3.35787
 Alpha virt. eigenvalues --    3.36521   3.37707   3.38230   3.38574   3.39519
 Alpha virt. eigenvalues --    3.39962   3.40531   3.41333   3.41507   3.41986
 Alpha virt. eigenvalues --    3.42677   3.44062   3.45129   3.45281   3.45800
 Alpha virt. eigenvalues --    3.45998   3.46803   3.47434   3.48805   3.49744
 Alpha virt. eigenvalues --    3.49976   3.51303   3.51810   3.52786   3.53986
 Alpha virt. eigenvalues --    3.54675   3.55847   3.56970   3.58364   3.58784
 Alpha virt. eigenvalues --    3.59093   3.59294   3.59782   3.60971   3.61604
 Alpha virt. eigenvalues --    3.61853   3.62444   3.63079   3.64221   3.64280
 Alpha virt. eigenvalues --    3.64913   3.65324   3.66264   3.66501   3.67616
 Alpha virt. eigenvalues --    3.68508   3.68980   3.69970   3.70324   3.71119
 Alpha virt. eigenvalues --    3.71823   3.72220   3.72797   3.74197   3.74363
 Alpha virt. eigenvalues --    3.75270   3.75527   3.76467   3.76858   3.77437
 Alpha virt. eigenvalues --    3.78022   3.78567   3.79392   3.80075   3.81787
 Alpha virt. eigenvalues --    3.82267   3.82771   3.83073   3.84345   3.84570
 Alpha virt. eigenvalues --    3.84793   3.85501   3.86117   3.86848   3.88171
 Alpha virt. eigenvalues --    3.88761   3.89741   3.90561   3.91257   3.91994
 Alpha virt. eigenvalues --    3.92317   3.93317   3.94170   3.94785   3.95747
 Alpha virt. eigenvalues --    3.96300   3.97947   3.98045   3.98829   3.99216
 Alpha virt. eigenvalues --    3.99586   4.00357   4.00727   4.01483   4.02840
 Alpha virt. eigenvalues --    4.04816   4.05233   4.05785   4.06642   4.07053
 Alpha virt. eigenvalues --    4.07240   4.07878   4.08525   4.09257   4.09767
 Alpha virt. eigenvalues --    4.10510   4.11505   4.11562   4.12841   4.13261
 Alpha virt. eigenvalues --    4.14669   4.15024   4.15625   4.16359   4.16840
 Alpha virt. eigenvalues --    4.17577   4.18998   4.19600   4.19757   4.21382
 Alpha virt. eigenvalues --    4.21779   4.23150   4.23338   4.24551   4.24934
 Alpha virt. eigenvalues --    4.25830   4.26130   4.27184   4.27605   4.28383
 Alpha virt. eigenvalues --    4.28972   4.30489   4.30963   4.31283   4.32188
 Alpha virt. eigenvalues --    4.34496   4.34983   4.35735   4.36184   4.37024
 Alpha virt. eigenvalues --    4.38537   4.38886   4.40299   4.40751   4.41362
 Alpha virt. eigenvalues --    4.42460   4.43543   4.44204   4.45343   4.46511
 Alpha virt. eigenvalues --    4.47053   4.49105   4.49888   4.50295   4.51199
 Alpha virt. eigenvalues --    4.52191   4.53030   4.54585   4.55116   4.56047
 Alpha virt. eigenvalues --    4.56630   4.57511   4.58034   4.58468   4.59315
 Alpha virt. eigenvalues --    4.60348   4.60541   4.62210   4.63756   4.64590
 Alpha virt. eigenvalues --    4.65219   4.66348   4.67149   4.68535   4.69287
 Alpha virt. eigenvalues --    4.70885   4.71624   4.72269   4.72777   4.73704
 Alpha virt. eigenvalues --    4.75719   4.76152   4.76877   4.77847   4.77979
 Alpha virt. eigenvalues --    4.79622   4.80646   4.80906   4.82135   4.83596
 Alpha virt. eigenvalues --    4.84680   4.85998   4.86835   4.87773   4.88208
 Alpha virt. eigenvalues --    4.89405   4.90467   4.91265   4.92787   4.93481
 Alpha virt. eigenvalues --    4.93820   4.95492   4.97486   4.97738   4.99443
 Alpha virt. eigenvalues --    4.99715   5.00726   5.02421   5.04023   5.05038
 Alpha virt. eigenvalues --    5.05498   5.06357   5.07328   5.08161   5.09849
 Alpha virt. eigenvalues --    5.10220   5.12167   5.12712   5.13549   5.13988
 Alpha virt. eigenvalues --    5.16178   5.17187   5.19044   5.19445   5.20404
 Alpha virt. eigenvalues --    5.20551   5.21843   5.23870   5.24194   5.26523
 Alpha virt. eigenvalues --    5.28100   5.28609   5.29972   5.31541   5.32548
 Alpha virt. eigenvalues --    5.33918   5.35640   5.36460   5.38211   5.39551
 Alpha virt. eigenvalues --    5.39964   5.41812   5.42993   5.44687   5.46436
 Alpha virt. eigenvalues --    5.48082   5.48857   5.50512   5.53056   5.55188
 Alpha virt. eigenvalues --    5.55501   5.57266   5.57950   5.58328   5.59734
 Alpha virt. eigenvalues --    5.61580   5.62905   5.63915   5.65494   5.65818
 Alpha virt. eigenvalues --    5.67521   5.69689   5.70335   5.72060   5.73688
 Alpha virt. eigenvalues --    5.74097   5.75668   5.76525   5.80899   5.81595
 Alpha virt. eigenvalues --    5.83021   5.83085   5.87706   5.89025   5.89424
 Alpha virt. eigenvalues --    5.91454   5.95628   5.97661   5.99027   5.99612
 Alpha virt. eigenvalues --    6.00961   6.01977   6.05295   6.08128   6.09800
 Alpha virt. eigenvalues --    6.10656   6.11570   6.12837   6.15411   6.18206
 Alpha virt. eigenvalues --    6.19007   6.21203   6.23927   6.24851   6.29114
 Alpha virt. eigenvalues --    6.32808   6.35060   6.36346   6.41101   6.45875
 Alpha virt. eigenvalues --    6.55418   6.57346   6.60582   6.62109   6.65555
 Alpha virt. eigenvalues --    6.66959   6.68859   6.72537   6.74923   6.75806
 Alpha virt. eigenvalues --    6.77547   6.81067   6.83930   6.84422   6.91398
 Alpha virt. eigenvalues --    6.93759   6.95950   7.02140   7.08728   7.11014
 Alpha virt. eigenvalues --    7.13173   7.15369   7.21655   7.28080   7.29544
 Alpha virt. eigenvalues --    7.36777   7.49360   7.55443   7.57998   7.63301
 Alpha virt. eigenvalues --    7.82941   7.84253   7.95401   8.41760   8.72233
 Alpha virt. eigenvalues --    8.75023   8.77403   8.81150   8.81997   8.87473
 Alpha virt. eigenvalues --    8.95859   8.97261   9.08478   9.11514   9.13357
 Alpha virt. eigenvalues --    9.13515   9.13903   9.16761   9.18864   9.19737
 Alpha virt. eigenvalues --    9.22335   9.23910   9.28563   9.28934   9.29088
 Alpha virt. eigenvalues --    9.31478   9.35243   9.37360   9.37947   9.39722
 Alpha virt. eigenvalues --    9.46369   9.47978   9.49935   9.51949   9.59001
 Alpha virt. eigenvalues --    9.71061   9.73120   9.78362   9.92813   9.99074
 Alpha virt. eigenvalues --   15.74512  15.77096  16.01251  16.25266  16.38379
 Alpha virt. eigenvalues --   16.50685  17.34412  17.39308  17.54960  18.15537
 Alpha virt. eigenvalues --   18.26870  19.03132  19.34578  19.93557  20.42712
 Alpha virt. eigenvalues --   21.07512  21.28343
          Condensed to atoms (all electrons):
               1          2          3          4          5          6
     1  C    8.776861   0.070172  -0.818135   0.192330   0.049874  -0.010611
     2  N    0.070172   8.034080   0.433361  -0.117050  -0.419583  -0.125041
     3  C   -0.818135   0.433361   6.060105   0.070012  -0.089735  -0.162076
     4  O    0.192330  -0.117050   0.070012   9.077041  -0.167302  -0.037191
     5  N    0.049874  -0.419583  -0.089735  -0.167302   7.470706   0.166448
     6  C   -0.010611  -0.125041  -0.162076  -0.037191   0.166448   5.754790
     7  C    0.006276   0.004097  -0.001518   0.028945   0.043390   0.033266
     8  C   -0.003259   0.001482  -0.030909  -0.000592   0.002866   0.063809
     9  C   -1.501852  -0.166522  -0.027565   0.000743  -0.056852  -0.012734
    10  C    0.183491  -0.015777  -0.010360  -0.002595  -0.003861  -0.001508
    11  C   -0.320800   0.082105   0.011518  -0.000915   0.008748   0.000954
    12  C    0.259472  -0.054575  -0.007988   0.040957  -0.000439  -0.000921
    13  C   -0.409947  -0.575856  -0.079358  -0.126608   0.012475   0.000923
    14  H   -0.003303   0.000263  -0.000224   0.010718  -0.059429   0.401909
    15  H   -0.008489  -0.001257  -0.020752  -0.011231   0.011972   0.363178
    16  H   -0.005037   0.005610   0.016432  -0.003392  -0.009369  -0.007261
    17  H    0.002816  -0.002512  -0.005503  -0.000308   0.008601  -0.033043
    18  H    0.008807   0.002893  -0.016660   0.009317  -0.004019   0.002103
    19  H    0.001283  -0.001645  -0.000158   0.000649   0.001679   0.004976
    20  H   -0.006449   0.004474   0.003641  -0.004303  -0.011543  -0.011498
    21  H   -0.782874  -0.097348  -0.024367  -0.000567  -0.019676  -0.002678
    22  C    0.074261  -0.016374  -0.000943   0.000428  -0.000428   0.000019
    23  Cl  -0.068474  -0.004446  -0.001801   0.000017  -0.000048   0.000021
    24  H   -0.038982  -0.008504  -0.012723   0.001815  -0.000168  -0.000117
    25  H   -0.311920   0.054824   0.101357  -0.109985   0.016627   0.003403
    26  F   -0.025954   0.009723   0.002323  -0.000028   0.000366   0.000048
    27  F    0.003438   0.000375  -0.000535   0.000013  -0.000060  -0.000009
    28  F    0.004606   0.001210   0.000369   0.000022  -0.000015  -0.000005
    29  H    0.015659   0.124240  -0.066719   0.026775   0.112695  -0.024886
    30  H    0.019847   0.203252  -0.109113   0.012460   0.118339   0.013673
               7          8          9         10         11         12
     1  C    0.006276  -0.003259  -1.501852   0.183491  -0.320800   0.259472
     2  N    0.004097   0.001482  -0.166522  -0.015777   0.082105  -0.054575
     3  C   -0.001518  -0.030909  -0.027565  -0.010360   0.011518  -0.007988
     4  O    0.028945  -0.000592   0.000743  -0.002595  -0.000915   0.040957
     5  N    0.043390   0.002866  -0.056852  -0.003861   0.008748  -0.000439
     6  C    0.033266   0.063809  -0.012734  -0.001508   0.000954  -0.000921
     7  C    5.391640   0.029777  -0.003283   0.000647  -0.000363  -0.000371
     8  C    0.029777   5.839381  -0.002094  -0.000153   0.000047  -0.001814
     9  C   -0.003283  -0.002094   9.364730  -0.627780   0.098965  -0.285163
    10  C    0.000647  -0.000153  -0.627780   7.375186  -0.356849   0.015028
    11  C   -0.000363   0.000047   0.098965  -0.356849   6.346776  -0.496358
    12  C   -0.000371  -0.001814  -0.285163   0.015028  -0.496358   8.138670
    13  C   -0.000276   0.002401  -0.063259  -0.176776   0.251420  -0.480490
    14  H   -0.054323   0.003857   0.001010  -0.000197   0.000035  -0.000091
    15  H    0.026271   0.003856  -0.000270  -0.000146   0.000071   0.000121
    16  H    0.422976   0.008087   0.001109  -0.000211  -0.000024   0.000003
    17  H    0.445652  -0.033146  -0.000568   0.000068  -0.000001  -0.000016
    18  H    0.049041   0.242735  -0.003625   0.000560   0.000360  -0.000441
    19  H   -0.052068   0.489060  -0.000239   0.000005  -0.000005  -0.000043
    20  H    0.034948   0.363655   0.001159   0.000038  -0.000158   0.000131
    21  H    0.000138  -0.000315   0.671170  -0.378815  -0.100759  -0.002934
    22  C   -0.000018   0.000022  -0.392394  -0.485685  -0.049494   0.091422
    23  Cl   0.000007  -0.000014   0.111503   0.053991  -0.193778  -0.247101
    24  H   -0.000053   0.000014   0.062677   0.019389  -0.075062   0.201246
    25  H   -0.000562   0.000180  -0.109338  -0.006821   0.013422  -0.256706
    26  F    0.000004  -0.000006  -0.034791   0.002936   0.011029  -0.009261
    27  F   -0.000001  -0.000000  -0.036660   0.034224  -0.005304   0.007416
    28  F    0.000000   0.000003  -0.046830   0.051742  -0.003546  -0.002206
    29  H   -0.022944   0.010502   0.001938   0.002394  -0.000391  -0.000097
    30  H   -0.000767   0.000244  -0.036927  -0.020416   0.003000   0.000307
              13         14         15         16         17         18
     1  C   -0.409947  -0.003303  -0.008489  -0.005037   0.002816   0.008807
     2  N   -0.575856   0.000263  -0.001257   0.005610  -0.002512   0.002893
     3  C   -0.079358  -0.000224  -0.020752   0.016432  -0.005503  -0.016660
     4  O   -0.126608   0.010718  -0.011231  -0.003392  -0.000308   0.009317
     5  N    0.012475  -0.059429   0.011972  -0.009369   0.008601  -0.004019
     6  C    0.000923   0.401909   0.363178  -0.007261  -0.033043   0.002103
     7  C   -0.000276  -0.054323   0.026271   0.422976   0.445652   0.049041
     8  C    0.002401   0.003857   0.003856   0.008087  -0.033146   0.242735
     9  C   -0.063259   0.001010  -0.000270   0.001109  -0.000568  -0.003625
    10  C   -0.176776  -0.000197  -0.000146  -0.000211   0.000068   0.000560
    11  C    0.251420   0.000035   0.000071  -0.000024  -0.000001   0.000360
    12  C   -0.480490  -0.000091   0.000121   0.000003  -0.000016  -0.000441
    13  C    7.968550   0.001189   0.001003   0.000225  -0.000207  -0.002599
    14  H    0.001189   0.401667  -0.038189  -0.014304  -0.006228   0.005067
    15  H    0.001003  -0.038189   0.368842   0.010788  -0.008202  -0.006121
    16  H    0.000225  -0.014304   0.010788   0.393293  -0.017863  -0.009759
    17  H   -0.000207  -0.006228  -0.008202  -0.017863   0.380814   0.012689
    18  H   -0.002599   0.005067  -0.006121  -0.009759   0.012689   0.359672
    19  H    0.000240  -0.002442   0.003257  -0.003664  -0.004399  -0.041090
    20  H    0.002286   0.003388  -0.005080   0.003033  -0.001257   0.029886
    21  H   -0.025078   0.000032  -0.000425   0.000076   0.000019  -0.000861
    22  C   -0.006052   0.000006  -0.000016  -0.000004  -0.000000  -0.000058
    23  Cl   0.057814   0.000002  -0.000020  -0.000000   0.000001  -0.000019
    24  H   -0.115270  -0.000006  -0.000055  -0.000002  -0.000009  -0.000279
    25  H    0.081682   0.000050   0.000941   0.000176  -0.000089  -0.000350
    26  F    0.006109   0.000002   0.000001   0.000006   0.000000   0.000003
    27  F   -0.007485   0.000001   0.000004   0.000000  -0.000000   0.000001
    28  F    0.000512  -0.000000  -0.000000  -0.000001  -0.000000  -0.000012
    29  H   -0.003499   0.022573  -0.026270  -0.005286   0.001869   0.007203
    30  H    0.031555  -0.002107   0.001951   0.000410  -0.000399  -0.002252
              19         20         21         22         23         24
     1  C    0.001283  -0.006449  -0.782874   0.074261  -0.068474  -0.038982
     2  N   -0.001645   0.004474  -0.097348  -0.016374  -0.004446  -0.008504
     3  C   -0.000158   0.003641  -0.024367  -0.000943  -0.001801  -0.012723
     4  O    0.000649  -0.004303  -0.000567   0.000428   0.000017   0.001815
     5  N    0.001679  -0.011543  -0.019676  -0.000428  -0.000048  -0.000168
     6  C    0.004976  -0.011498  -0.002678   0.000019   0.000021  -0.000117
     7  C   -0.052068   0.034948   0.000138  -0.000018   0.000007  -0.000053
     8  C    0.489060   0.363655  -0.000315   0.000022  -0.000014   0.000014
     9  C   -0.000239   0.001159   0.671170  -0.392394   0.111503   0.062677
    10  C    0.000005   0.000038  -0.378815  -0.485685   0.053991   0.019389
    11  C   -0.000005  -0.000158  -0.100759  -0.049494  -0.193778  -0.075062
    12  C   -0.000043   0.000131  -0.002934   0.091422  -0.247101   0.201246
    13  C    0.000240   0.002286  -0.025078  -0.006052   0.057814  -0.115270
    14  H   -0.002442   0.003388   0.000032   0.000006   0.000002  -0.000006
    15  H    0.003257  -0.005080  -0.000425  -0.000016  -0.000020  -0.000055
    16  H   -0.003664   0.003033   0.000076  -0.000004  -0.000000  -0.000002
    17  H   -0.004399  -0.001257   0.000019  -0.000000   0.000001  -0.000009
    18  H   -0.041090   0.029886  -0.000861  -0.000058  -0.000019  -0.000279
    19  H    0.379047  -0.015838   0.000011   0.000004  -0.000003   0.000018
    20  H   -0.015838   0.321863   0.000124   0.000013   0.000002   0.000061
    21  H    0.000011   0.000124   1.648093  -0.101924   0.003858   0.010179
    22  C    0.000004   0.000013  -0.101924   5.163737  -0.038039   0.003541
    23  Cl  -0.000003   0.000002   0.003858  -0.038039  17.791330   0.031337
    24  H    0.000018   0.000061   0.010179   0.003541   0.031337   0.593101
    25  H   -0.000308   0.000903  -0.028201  -0.004021  -0.009896  -0.095359
    26  F   -0.000001   0.000000   0.009051   0.199495   0.009954  -0.000257
    27  F   -0.000000  -0.000000   0.003741   0.190061  -0.013142  -0.001475
    28  F    0.000001   0.000003   0.004989   0.180844  -0.012940  -0.001875
    29  H    0.000150   0.002630  -0.002244   0.000309   0.000058   0.000197
    30  H    0.000356  -0.000641  -0.059677  -0.001495  -0.001307  -0.002164
              25         26         27         28         29         30
     1  C   -0.311920  -0.025954   0.003438   0.004606   0.015659   0.019847
     2  N    0.054824   0.009723   0.000375   0.001210   0.124240   0.203252
     3  C    0.101357   0.002323  -0.000535   0.000369  -0.066719  -0.109113
     4  O   -0.109985  -0.000028   0.000013   0.000022   0.026775   0.012460
     5  N    0.016627   0.000366  -0.000060  -0.000015   0.112695   0.118339
     6  C    0.003403   0.000048  -0.000009  -0.000005  -0.024886   0.013673
     7  C   -0.000562   0.000004  -0.000001   0.000000  -0.022944  -0.000767
     8  C    0.000180  -0.000006  -0.000000   0.000003   0.010502   0.000244
     9  C   -0.109338  -0.034791  -0.036660  -0.046830   0.001938  -0.036927
    10  C   -0.006821   0.002936   0.034224   0.051742   0.002394  -0.020416
    11  C    0.013422   0.011029  -0.005304  -0.003546  -0.000391   0.003000
    12  C   -0.256706  -0.009261   0.007416  -0.002206  -0.000097   0.000307
    13  C    0.081682   0.006109  -0.007485   0.000512  -0.003499   0.031555
    14  H    0.000050   0.000002   0.000001  -0.000000   0.022573  -0.002107
    15  H    0.000941   0.000001   0.000004  -0.000000  -0.026270   0.001951
    16  H    0.000176   0.000006   0.000000  -0.000001  -0.005286   0.000410
    17  H   -0.000089   0.000000  -0.000000  -0.000000   0.001869  -0.000399
    18  H   -0.000350   0.000003   0.000001  -0.000012   0.007203  -0.002252
    19  H   -0.000308  -0.000001  -0.000000   0.000001   0.000150   0.000356
    20  H    0.000903   0.000000  -0.000000   0.000003   0.002630  -0.000641
    21  H   -0.028201   0.009051   0.003741   0.004989  -0.002244  -0.059677
    22  C   -0.004021   0.199495   0.190061   0.180844   0.000309  -0.001495
    23  Cl  -0.009896   0.009954  -0.013142  -0.012940   0.000058  -0.001307
    24  H   -0.095359  -0.000257  -0.001475  -0.001875   0.000197  -0.002164
    25  H    1.044736   0.000466  -0.000312   0.000066  -0.002547   0.002850
    26  F    0.000466   9.329330  -0.068877  -0.067917  -0.000180  -0.000937
    27  F   -0.000312  -0.068877   9.317534  -0.015519  -0.000024   0.000296
    28  F    0.000066  -0.067917  -0.015519   9.315063   0.000041  -0.000185
    29  H   -0.002547  -0.000180  -0.000024   0.000041   0.894294  -0.040152
    30  H    0.002850  -0.000937   0.000296  -0.000185  -0.040152   0.870307
 Mulliken charges:
               1
     1  C    0.646892
     2  N   -0.425672
     3  C    0.788024
     4  O   -0.890175
     5  N   -0.182258
     6  C   -0.379940
     7  C   -0.380527
     8  C   -0.989676
     9  C   -0.906257
    10  C    0.348250
    11  C    0.775360
    12  C   -0.907755
    13  C   -0.345625
    14  H    0.329074
    15  H    0.334268
    16  H    0.213954
    17  H    0.261222
    18  H    0.357810
    19  H    0.241167
    20  H    0.284528
    21  H    0.277262
    22  C    1.192779
    23  Cl  -0.468867
    24  H    0.428785
    25  H    0.614732
    26  F   -0.372637
    27  F   -0.407700
    28  F   -0.408419
    29  H   -0.028290
    30  H   -0.000307
 Sum of Mulliken charges =  -0.00000
 Mulliken charges with hydrogens summed into heavy atoms:
               1
     1  C    0.646892
     2  N   -0.425980
     3  C    0.788024
     4  O   -0.890175
     5  N   -0.210548
     6  C    0.283401
     7  C    0.094649
     8  C   -0.106172
     9  C   -0.628995
    10  C    0.348250
    11  C    0.775360
    12  C   -0.478970
    13  C    0.269107
    22  C    1.192779
    23  Cl  -0.468867
    26  F   -0.372637
    27  F   -0.407700
    28  F   -0.408419
 Electronic spatial extent (au):  <R**2>=           7644.3245
 Charge=             -0.0000 electrons
 Dipole moment (field-independent basis, Debye):
    X=             -5.0462    Y=             -2.6698    Z=              0.6288  Tot=              5.7435
 Quadrupole moment (field-independent basis, Debye-Ang):
   XX=           -112.8851   YY=           -106.0514   ZZ=           -115.7589
   XY=             12.5637   XZ=             -2.9378   YZ=              1.0435
 Traceless Quadrupole moment (field-independent basis, Debye-Ang):
   XX=             -1.3200   YY=              5.5138   ZZ=             -4.1937
   XY=             12.5637   XZ=             -2.9378   YZ=              1.0435
 Octapole moment (field-independent basis, Debye-Ang**2):
  XXX=            -70.1764  YYY=            -25.4471  ZZZ=              2.1316  XYY=              5.7939
  XXY=            -30.2291  XXZ=              2.5281  XZZ=             18.5007  YZZ=            -10.2402
  YYZ=              0.9373  XYZ=             -2.9777
 Hexadecapole moment (field-independent basis, Debye-Ang**3):
 XXXX=          -7752.2459 YYYY=          -1087.7728 ZZZZ=           -406.3965 XXXY=             56.8445
 XXXZ=             40.2678 YYYX=            -16.2352 YYYZ=             -9.4246 ZZZX=             20.6768
 ZZZY=             -4.9096 XXYY=          -1537.6209 XXZZ=          -1441.4924 YYZZ=           -268.6587
 XXYZ=             11.8903 YYXZ=              1.2504 ZZXY=            -24.4451
 N-N= 1.457856922667D+03 E-N=-6.143719714670D+03  KE= 1.364306912083D+03
 Unable to Open any file for archive entry.
 1\1\GINC-GADI-CPU-CLX-1681\SP\RDSDPBEP86-FC\Aug-CC-pVTZ\C11H12Cl1F3N2O
 1\HIO507\09-Sep-2020\0\\# DSDPBEP86/AUG-cc-PVTZ SCF=Tight INT(grid=ult
 rafine) MaxDisk=60000MB\\29_c2.DSDPBEP86_AUG-cc-PVTZ\\0,1\C,0,-5.93969
 01522,0.775869309,0.76553785\N,0,-4.6395265642,0.2574574751,0.82465777
 16\C,0,-3.4504987326,0.9545662909,0.6409201008\O,0,-3.4026197702,2.140
 2401561,0.3911123898\N,0,-2.3369198371,0.1675096577,0.7915476587\C,0,-
 1.0109918701,0.6912852672,0.4918409895\C,0,-0.5443757832,0.3722031251,
 -0.9281825296\C,0,-1.4569758152,0.9572628141,-2.001780253\C,0,-6.97843
 822,-0.059789002,1.18409015\C,0,-8.3010412172,0.3557402292,1.137882522
 4\C,0,-8.6037084785,1.6333055363,0.6685693988\C,0,-7.5761500663,2.4669
 297494,0.2532406189\C,0,-6.2513072699,2.0541444847,0.2943749996\H,0,-0
 .3110569068,0.286216153,1.2264897775\H,0,-1.0631798623,1.7697174466,0.
 6426281545\H,0,-0.4693153598,-0.7149342099,-1.0496443044\H,0,0.4716499
 199,0.7626646867,-1.0437384598\H,0,-2.4659224608,0.5427770851,-1.93636
 44369\H,0,-1.0749734849,0.7399688441,-3.0008741757\H,0,-1.5446481667,2
 .040158569,-1.8943574145\H,0,-6.7560605303,-1.054722628,1.5528256361\C
 ,0,-9.3833137492,-0.5866440949,1.5990994201\Cl,0,-10.2399919835,2.2130
 046841,0.5895195449\H,0,-7.817664093,3.4584203392,-0.1096572444\H,0,-5
 .4652179938,2.7191458358,-0.0277777333\F,0,-8.8725441875,-1.7589559745
 ,2.0095328751\F,0,-10.0797912453,-0.087486988,2.6267076156\F,0,-10.254
 8533064,-0.8658064367,0.6227026563\H,0,-2.4470616288,-0.835087188,0.75
 71851451\H,0,-4.5697911841,-0.6811312163,1.1876012761\\Version=ES64L-G
 16RevC.01\State=1-A\HF=-1367.7658322\MP2=-1369.4635316\RMSD=8.262e-09\
 PG=C01 [X(C11H12Cl1F3N2O1)]\\@
 The archive entry for this job was punched.


 GOOD SENSE ABOUT TRIVIALITIES IS BETTER THAN NONSENSE
 ABOUT THINGS THAT MATTER

                                       -- MAX BEERBOHM
 Job cpu time:       1 days  0 hours 26 minutes 59.8 seconds.
 Elapsed time:       0 days  4 hours  5 minutes 30.5 seconds.
 File lengths (MBytes):  RWF=    635 Int=      0 D2E=      0 Chk=     81 Scr=      1
 Normal termination of Gaussian 16 at Wed Sep  9 20:25:59 2020.
