 Entering Gaussian System, Link 0=/apps/gaussian/g09e01/g09/g09
 Initial command:
 /apps/gaussian/g09e01/g09/l1.exe "/jobfs/local/4110526.r-man2/Gau-44610.inp" -scrdir="/jobfs/local/4110526.r-man2/"
 Entering Link 1 = /apps/gaussian/g09e01/g09/l1.exe PID=     44611.
  
 Copyright (c) 1988,1990,1992,1993,1995,1998,2003,2009,2015,
            Gaussian, Inc.  All Rights Reserved.
  
 This is part of the Gaussian(R) 09 program.  It is based on
 the Gaussian(R) 03 system (copyright 2003, Gaussian, Inc.),
 the Gaussian(R) 98 system (copyright 1998, Gaussian, Inc.),
 the Gaussian(R) 94 system (copyright 1995, Gaussian, Inc.),
 the Gaussian 92(TM) system (copyright 1992, Gaussian, Inc.),
 the Gaussian 90(TM) system (copyright 1990, Gaussian, Inc.),
 the Gaussian 88(TM) system (copyright 1988, Gaussian, Inc.),
 the Gaussian 86(TM) system (copyright 1986, Carnegie Mellon
 University), and the Gaussian 82(TM) system (copyright 1983,
 Carnegie Mellon University). Gaussian is a federally registered
 trademark of Gaussian, Inc.
  
 This software contains proprietary and confidential information,
 including trade secrets, belonging to Gaussian, Inc.
  
 This software is provided under written license and may be
 used, copied, transmitted, or stored only in accord with that
 written license.
  
 The following legend is applicable only to US Government
 contracts under FAR:
  
                    RESTRICTED RIGHTS LEGEND
  
 Use, reproduction and disclosure by the US Government is
 subject to restrictions as set forth in subparagraphs (a)
 and (c) of the Commercial Computer Software - Restricted
 Rights clause in FAR 52.227-19.
  
 Gaussian, Inc.
 340 Quinnipiac St., Bldg. 40, Wallingford CT 06492
  
  
 ---------------------------------------------------------------
 Warning -- This program may not be used in any manner that
 competes with the business of Gaussian, Inc. or will provide
 assistance to any competitor of Gaussian, Inc.  The licensee
 of this program is prohibited from giving any competitor of
 Gaussian, Inc. access to this program.  By using this program,
 the user acknowledges that Gaussian, Inc. is engaged in the
 business of creating and licensing software in the field of
 computational chemistry and represents and warrants to the
 licensee that it is not a competitor of Gaussian, Inc. and that
 it will not use this program in any manner prohibited above.
 ---------------------------------------------------------------
  

 Cite this work as:
 Gaussian 09, Revision E.01,
 M. J. Frisch, G. W. Trucks, H. B. Schlegel, G. E. Scuseria, 
 M. A. Robb, J. R. Cheeseman, G. Scalmani, V. Barone, B. Mennucci, 
 G. A. Petersson, H. Nakatsuji, M. Caricato, X. Li, H. P. Hratchian, 
 A. F. Izmaylov, J. Bloino, G. Zheng, J. L. Sonnenberg, M. Hada, 
 M. Ehara, K. Toyota, R. Fukuda, J. Hasegawa, M. Ishida, T. Nakajima, 
 Y. Honda, O. Kitao, H. Nakai, T. Vreven, J. A. Montgomery, Jr., 
 J. E. Peralta, F. Ogliaro, M. Bearpark, J. J. Heyd, E. Brothers, 
 K. N. Kudin, V. N. Staroverov, T. Keith, R. Kobayashi, J. Normand, 
 K. Raghavachari, A. Rendell, J. C. Burant, S. S. Iyengar, J. Tomasi, 
 M. Cossi, N. Rega, J. M. Millam, M. Klene, J. E. Knox, J. B. Cross, 
 V. Bakken, C. Adamo, J. Jaramillo, R. Gomperts, R. E. Stratmann, 
 O. Yazyev, A. J. Austin, R. Cammi, C. Pomelli, J. W. Ochterski, 
 R. L. Martin, K. Morokuma, V. G. Zakrzewski, G. A. Voth, 
 P. Salvador, J. J. Dannenberg, S. Dapprich, A. D. Daniels, 
 O. Farkas, J. B. Foresman, J. V. Ortiz, J. Cioslowski, 
 and D. J. Fox, Gaussian, Inc., Wallingford CT, 2013.
 
 ******************************************
 Gaussian 09:  ES64L-G09RevE.01 30-Nov-2015
                12-Dec-2019 
 ******************************************
 %chk=29_c2.M062X_6-311pGd_opt_GD3.chk
 %mem=196608000
 %nproc=4
 Will use up to    4 processors via shared memory.
 ----------------------------------------------------------------------
 # M062X/6-311+G* SCF=Tight INT(grid=ultrafine) OPT=CalcFC IOP(2/17=4) 
 EmpiricalDispersion=GD3 maxdisk=2147483648
 ----------------------------------------------------------------------
 1/10=4,14=-1,18=20,19=15,26=4,38=1/1,3;
 2/9=110,12=2,17=4,18=5,40=1/2;
 3/5=4,6=6,7=11,11=2,16=1,25=1,30=1,71=2,74=-55,75=-5,124=31,140=1/1,2,3;
 4//1;
 5/5=2,32=2,38=5/2;
 8/6=4,10=90,11=11/1;
 11/6=1,8=1,9=11,15=111,16=1/1,2,10;
 10/6=1,13=1/2;
 6/7=2,8=2,9=2,10=2,28=1/1;
 7/10=1,18=20,25=1/1,2,3,16;
 1/10=4,14=-1,18=20,19=15,26=4/3(2);
 2/9=110,17=4/2;
 99//99;
 2/9=110,17=4/2;
 3/5=4,6=6,7=11,11=2,16=1,25=1,30=1,71=1,74=-55,75=-5,124=31/1,2,3;
 4/5=5,16=3,69=1/1;
 5/5=2,32=2,38=5/2;
 7//1,2,3,16;
 1/14=-1,18=20,19=15,26=4/3(-5);
 2/9=110,17=4/2;
 6/7=2,8=2,9=2,10=2,19=2,28=1/1;
 99/9=1/99;
 ----------------------------
 29_c2.M062X_6-311pGd_opt_GD3
 ----------------------------
 Symbolic Z-matrix:
 Charge =  0 Multiplicity = 1
 C                    -6.18586   0.64234   0.92982 
 N                    -4.82211   0.19541   0.80688 
 C                    -3.75391   0.87257   0.28176 
 O                    -3.87447   2.00291  -0.16265 
 N                    -2.52944   0.27385   0.25374 
 C                    -1.31392   1.02568  -0.00657 
 C                    -0.36816   0.24131  -0.92336 
 C                    -0.10701   0.99586  -2.22367 
 C                    -7.27777  -0.18992   1.2729 
 C                    -8.5907    0.31637   1.37566 
 C                    -8.81291   1.69444   1.12741 
 C                    -7.73687   2.51673   0.78888 
 C                    -6.44736   2.001     0.69175 
 H                    -0.79903   1.23447   0.95724 
 H                    -1.57744   1.9909   -0.49296 
 H                    -0.81932  -0.74605  -1.16376 
 H                     0.59985   0.07504  -0.40229 
 H                    -1.05829   1.15715  -2.77426 
 H                     0.57949   0.40464  -2.86562 
 H                     0.36336   1.97963  -2.01146 
 H                    -7.15506  -1.23883   1.46923 
 C                    -9.68086  -0.67273   1.75075 
 Cl                   -10.39242   2.47038   1.21671 
 H                    -7.89845   3.57046   0.59774 
 H                    -5.64137   2.67412   0.42643 
 F                    -9.38231  -1.23214   2.9803 
 F                    -10.93875  -0.11133   1.83349 
 F                    -9.72529  -1.67972   0.80318 
 H                    -2.53097  -0.88278   0.19954 
 H                    -4.95863  -0.86773   1.52888 
 
 Add virtual bond connecting atoms H30        and N2         Dist= 2.44D+00.

 GradGradGradGradGradGradGradGradGradGradGradGradGradGradGradGradGradGrad
 Berny optimization.
 Initialization pass.
                           ----------------------------
                           !    Initial Parameters    !
                           ! (Angstroms and Degrees)  !
 --------------------------                            --------------------------
 ! Name  Definition              Value          Derivative Info.                !
 --------------------------------------------------------------------------------
 ! R1    R(1,2)                  1.4404         calculate D2E/DX2 analytically  !
 ! R2    R(1,9)                  1.4151         calculate D2E/DX2 analytically  !
 ! R3    R(1,13)                 1.4039         calculate D2E/DX2 analytically  !
 ! R4    R(2,3)                  1.3694         calculate D2E/DX2 analytically  !
 ! R5    R(2,30)                 1.2924         calculate D2E/DX2 analytically  !
 ! R6    R(3,4)                  1.2205         calculate D2E/DX2 analytically  !
 ! R7    R(3,5)                  1.3633         calculate D2E/DX2 analytically  !
 ! R8    R(5,6)                  1.4528         calculate D2E/DX2 analytically  !
 ! R9    R(5,29)                 1.1579         calculate D2E/DX2 analytically  !
 ! R10   R(6,7)                  1.533          calculate D2E/DX2 analytically  !
 ! R11   R(6,14)                 1.1125         calculate D2E/DX2 analytically  !
 ! R12   R(6,15)                 1.1125         calculate D2E/DX2 analytically  !
 ! R13   R(7,8)                  1.5259         calculate D2E/DX2 analytically  !
 ! R14   R(7,16)                 1.1119         calculate D2E/DX2 analytically  !
 ! R15   R(7,17)                 1.1118         calculate D2E/DX2 analytically  !
 ! R16   R(8,18)                 1.1109         calculate D2E/DX2 analytically  !
 ! R17   R(8,19)                 1.1104         calculate D2E/DX2 analytically  !
 ! R18   R(8,20)                 1.1109         calculate D2E/DX2 analytically  !
 ! R19   R(9,10)                 1.4109         calculate D2E/DX2 analytically  !
 ! R20   R(9,21)                 1.0742         calculate D2E/DX2 analytically  !
 ! R21   R(10,11)                1.4178         calculate D2E/DX2 analytically  !
 ! R22   R(10,22)                1.519          calculate D2E/DX2 analytically  !
 ! R23   R(11,12)                1.3959         calculate D2E/DX2 analytically  !
 ! R24   R(11,23)                1.7621         calculate D2E/DX2 analytically  !
 ! R25   R(12,13)                1.3922         calculate D2E/DX2 analytically  !
 ! R26   R(12,24)                1.083          calculate D2E/DX2 analytically  !
 ! R27   R(13,25)                1.0831         calculate D2E/DX2 analytically  !
 ! R28   R(22,26)                1.3834         calculate D2E/DX2 analytically  !
 ! R29   R(22,27)                1.38           calculate D2E/DX2 analytically  !
 ! R30   R(22,28)                1.3834         calculate D2E/DX2 analytically  !
 ! A1    A(2,1,9)              124.6633         calculate D2E/DX2 analytically  !
 ! A2    A(2,1,13)             117.5268         calculate D2E/DX2 analytically  !
 ! A3    A(9,1,13)             117.8099         calculate D2E/DX2 analytically  !
 ! A4    A(1,2,3)              128.1581         calculate D2E/DX2 analytically  !
 ! A5    A(1,2,30)              96.1743         calculate D2E/DX2 analytically  !
 ! A6    A(3,2,30)             134.7008         calculate D2E/DX2 analytically  !
 ! A7    A(2,3,4)              121.3667         calculate D2E/DX2 analytically  !
 ! A8    A(2,3,5)              119.4273         calculate D2E/DX2 analytically  !
 ! A9    A(4,3,5)              119.206          calculate D2E/DX2 analytically  !
 ! A10   A(3,5,6)              121.8637         calculate D2E/DX2 analytically  !
 ! A11   A(3,5,29)             116.0059         calculate D2E/DX2 analytically  !
 ! A12   A(6,5,29)             120.6419         calculate D2E/DX2 analytically  !
 ! A13   A(5,6,7)              111.0109         calculate D2E/DX2 analytically  !
 ! A14   A(5,6,14)             109.2164         calculate D2E/DX2 analytically  !
 ! A15   A(5,6,15)             109.2175         calculate D2E/DX2 analytically  !
 ! A16   A(7,6,14)             109.1836         calculate D2E/DX2 analytically  !
 ! A17   A(7,6,15)             109.1827         calculate D2E/DX2 analytically  !
 ! A18   A(14,6,15)            109.0002         calculate D2E/DX2 analytically  !
 ! A19   A(6,7,8)              111.2347         calculate D2E/DX2 analytically  !
 ! A20   A(6,7,16)             109.4709         calculate D2E/DX2 analytically  !
 ! A21   A(6,7,17)             109.4728         calculate D2E/DX2 analytically  !
 ! A22   A(8,7,16)             108.9246         calculate D2E/DX2 analytically  !
 ! A23   A(8,7,17)             108.9239         calculate D2E/DX2 analytically  !
 ! A24   A(16,7,17)            108.7724         calculate D2E/DX2 analytically  !
 ! A25   A(7,8,18)             110.3403         calculate D2E/DX2 analytically  !
 ! A26   A(7,8,19)             109.5839         calculate D2E/DX2 analytically  !
 ! A27   A(7,8,20)             110.34           calculate D2E/DX2 analytically  !
 ! A28   A(18,8,19)            108.6745         calculate D2E/DX2 analytically  !
 ! A29   A(18,8,20)            109.1887         calculate D2E/DX2 analytically  !
 ! A30   A(19,8,20)            108.6738         calculate D2E/DX2 analytically  !
 ! A31   A(1,9,10)             121.6431         calculate D2E/DX2 analytically  !
 ! A32   A(1,9,21)             122.0361         calculate D2E/DX2 analytically  !
 ! A33   A(10,9,21)            116.3208         calculate D2E/DX2 analytically  !
 ! A34   A(9,10,11)            118.8085         calculate D2E/DX2 analytically  !
 ! A35   A(9,10,22)            116.8823         calculate D2E/DX2 analytically  !
 ! A36   A(11,10,22)           124.3092         calculate D2E/DX2 analytically  !
 ! A37   A(10,11,12)           119.6179         calculate D2E/DX2 analytically  !
 ! A38   A(10,11,23)           124.0311         calculate D2E/DX2 analytically  !
 ! A39   A(12,11,23)           116.3509         calculate D2E/DX2 analytically  !
 ! A40   A(11,12,13)           120.8428         calculate D2E/DX2 analytically  !
 ! A41   A(11,12,24)           120.0605         calculate D2E/DX2 analytically  !
 ! A42   A(13,12,24)           119.0967         calculate D2E/DX2 analytically  !
 ! A43   A(1,13,12)            121.2778         calculate D2E/DX2 analytically  !
 ! A44   A(1,13,25)            120.2894         calculate D2E/DX2 analytically  !
 ! A45   A(12,13,25)           118.4328         calculate D2E/DX2 analytically  !
 ! A46   A(10,22,26)           109.1404         calculate D2E/DX2 analytically  !
 ! A47   A(10,22,27)           113.834          calculate D2E/DX2 analytically  !
 ! A48   A(10,22,28)           109.1399         calculate D2E/DX2 analytically  !
 ! A49   A(26,22,27)           107.9345         calculate D2E/DX2 analytically  !
 ! A50   A(26,22,28)           108.7447         calculate D2E/DX2 analytically  !
 ! A51   A(27,22,28)           107.9336         calculate D2E/DX2 analytically  !
 ! D1    D(9,1,2,3)            168.7156         calculate D2E/DX2 analytically  !
 ! D2    D(9,1,2,30)           -21.2918         calculate D2E/DX2 analytically  !
 ! D3    D(13,1,2,3)           -11.286          calculate D2E/DX2 analytically  !
 ! D4    D(13,1,2,30)          158.7066         calculate D2E/DX2 analytically  !
 ! D5    D(2,1,9,10)           179.9987         calculate D2E/DX2 analytically  !
 ! D6    D(2,1,9,21)             0.0023         calculate D2E/DX2 analytically  !
 ! D7    D(13,1,9,10)            0.0003         calculate D2E/DX2 analytically  !
 ! D8    D(13,1,9,21)         -179.9961         calculate D2E/DX2 analytically  !
 ! D9    D(2,1,13,12)         -179.9989         calculate D2E/DX2 analytically  !
 ! D10   D(2,1,13,25)            0.001          calculate D2E/DX2 analytically  !
 ! D11   D(9,1,13,12)           -0.0003         calculate D2E/DX2 analytically  !
 ! D12   D(9,1,13,25)          179.9996         calculate D2E/DX2 analytically  !
 ! D13   D(1,2,3,4)              0.0047         calculate D2E/DX2 analytically  !
 ! D14   D(1,2,3,5)           -179.9976         calculate D2E/DX2 analytically  !
 ! D15   D(30,2,3,4)          -165.9278         calculate D2E/DX2 analytically  !
 ! D16   D(30,2,3,5)            14.07           calculate D2E/DX2 analytically  !
 ! D17   D(2,3,5,6)           -166.0456         calculate D2E/DX2 analytically  !
 ! D18   D(2,3,5,29)            27.7995         calculate D2E/DX2 analytically  !
 ! D19   D(4,3,5,6)             13.9523         calculate D2E/DX2 analytically  !
 ! D20   D(4,3,5,29)          -152.2027         calculate D2E/DX2 analytically  !
 ! D21   D(3,5,6,7)           -139.3814         calculate D2E/DX2 analytically  !
 ! D22   D(3,5,6,14)           100.1779         calculate D2E/DX2 analytically  !
 ! D23   D(3,5,6,15)           -18.9412         calculate D2E/DX2 analytically  !
 ! D24   D(29,5,6,7)            26.1428         calculate D2E/DX2 analytically  !
 ! D25   D(29,5,6,14)          -94.2979         calculate D2E/DX2 analytically  !
 ! D26   D(29,5,6,15)          146.5829         calculate D2E/DX2 analytically  !
 ! D27   D(5,6,7,8)            119.0071         calculate D2E/DX2 analytically  !
 ! D28   D(5,6,7,16)            -1.4194         calculate D2E/DX2 analytically  !
 ! D29   D(5,6,7,17)          -120.5661         calculate D2E/DX2 analytically  !
 ! D30   D(14,6,7,8)          -120.5328         calculate D2E/DX2 analytically  !
 ! D31   D(14,6,7,16)          119.0407         calculate D2E/DX2 analytically  !
 ! D32   D(14,6,7,17)           -0.106          calculate D2E/DX2 analytically  !
 ! D33   D(15,6,7,8)            -1.4537         calculate D2E/DX2 analytically  !
 ! D34   D(15,6,7,16)         -121.8802         calculate D2E/DX2 analytically  !
 ! D35   D(15,6,7,17)          118.9731         calculate D2E/DX2 analytically  !
 ! D36   D(6,7,8,18)           -60.3725         calculate D2E/DX2 analytically  !
 ! D37   D(6,7,8,19)          -179.9986         calculate D2E/DX2 analytically  !
 ! D38   D(6,7,8,20)            60.3762         calculate D2E/DX2 analytically  !
 ! D39   D(16,7,8,18)           60.3758         calculate D2E/DX2 analytically  !
 ! D40   D(16,7,8,19)          -59.2503         calculate D2E/DX2 analytically  !
 ! D41   D(16,7,8,20)         -178.8755         calculate D2E/DX2 analytically  !
 ! D42   D(17,7,8,18)          178.8774         calculate D2E/DX2 analytically  !
 ! D43   D(17,7,8,19)           59.2513         calculate D2E/DX2 analytically  !
 ! D44   D(17,7,8,20)          -60.3739         calculate D2E/DX2 analytically  !
 ! D45   D(1,9,10,11)           -0.0003         calculate D2E/DX2 analytically  !
 ! D46   D(1,9,10,22)         -179.9981         calculate D2E/DX2 analytically  !
 ! D47   D(21,9,10,11)         179.9964         calculate D2E/DX2 analytically  !
 ! D48   D(21,9,10,22)          -0.0014         calculate D2E/DX2 analytically  !
 ! D49   D(9,10,11,12)           0.0002         calculate D2E/DX2 analytically  !
 ! D50   D(9,10,11,23)         179.9989         calculate D2E/DX2 analytically  !
 ! D51   D(22,10,11,12)        179.9978         calculate D2E/DX2 analytically  !
 ! D52   D(22,10,11,23)         -0.0035         calculate D2E/DX2 analytically  !
 ! D53   D(9,10,22,26)          59.3596         calculate D2E/DX2 analytically  !
 ! D54   D(9,10,22,27)        -179.9992         calculate D2E/DX2 analytically  !
 ! D55   D(9,10,22,28)         -59.3594         calculate D2E/DX2 analytically  !
 ! D56   D(11,10,22,26)       -120.638          calculate D2E/DX2 analytically  !
 ! D57   D(11,10,22,27)          0.0032         calculate D2E/DX2 analytically  !
 ! D58   D(11,10,22,28)        120.6429         calculate D2E/DX2 analytically  !
 ! D59   D(10,11,12,13)         -0.0002         calculate D2E/DX2 analytically  !
 ! D60   D(10,11,12,24)        179.9997         calculate D2E/DX2 analytically  !
 ! D61   D(23,11,12,13)       -179.999          calculate D2E/DX2 analytically  !
 ! D62   D(23,11,12,24)          0.0009         calculate D2E/DX2 analytically  !
 ! D63   D(11,12,13,1)           0.0003         calculate D2E/DX2 analytically  !
 ! D64   D(11,12,13,25)       -179.9996         calculate D2E/DX2 analytically  !
 ! D65   D(24,12,13,1)        -179.9996         calculate D2E/DX2 analytically  !
 ! D66   D(24,12,13,25)          0.0005         calculate D2E/DX2 analytically  !
 --------------------------------------------------------------------------------
 Trust Radius=3.00D-01 FncErr=1.00D-07 GrdErr=1.00D-06
 Number of steps in this run=    157 maximum allowed number of steps=    180.
 GradGradGradGradGradGradGradGradGradGradGradGradGradGradGradGradGradGrad

                          Input orientation:                          
 ---------------------------------------------------------------------
 Center     Atomic      Atomic             Coordinates (Angstroms)
 Number     Number       Type             X           Y           Z
 ---------------------------------------------------------------------
      1          6           0       -6.185860    0.642340    0.929820
      2          7           0       -4.822110    0.195410    0.806880
      3          6           0       -3.753910    0.872570    0.281760
      4          8           0       -3.874470    2.002910   -0.162650
      5          7           0       -2.529440    0.273850    0.253740
      6          6           0       -1.313920    1.025680   -0.006570
      7          6           0       -0.368160    0.241310   -0.923360
      8          6           0       -0.107010    0.995860   -2.223670
      9          6           0       -7.277770   -0.189920    1.272900
     10          6           0       -8.590700    0.316370    1.375660
     11          6           0       -8.812910    1.694440    1.127410
     12          6           0       -7.736870    2.516730    0.788880
     13          6           0       -6.447360    2.001000    0.691750
     14          1           0       -0.799030    1.234470    0.957240
     15          1           0       -1.577440    1.990900   -0.492960
     16          1           0       -0.819320   -0.746050   -1.163760
     17          1           0        0.599850    0.075040   -0.402290
     18          1           0       -1.058290    1.157150   -2.774260
     19          1           0        0.579490    0.404640   -2.865620
     20          1           0        0.363360    1.979630   -2.011460
     21          1           0       -7.155060   -1.238830    1.469230
     22          6           0       -9.680860   -0.672730    1.750750
     23         17           0      -10.392420    2.470380    1.216710
     24          1           0       -7.898450    3.570460    0.597740
     25          1           0       -5.641370    2.674120    0.426430
     26          9           0       -9.382310   -1.232140    2.980300
     27          9           0      -10.938750   -0.111330    1.833490
     28          9           0       -9.725290   -1.679720    0.803180
     29          1           0       -2.530970   -0.882780    0.199540
     30          1           0       -4.958630   -0.867730    1.528880
 ---------------------------------------------------------------------
                    Distance matrix (angstroms):
                    1          2          3          4          5
     1  C    0.000000
     2  N    1.440373   0.000000
     3  C    2.527324   1.369433   0.000000
     4  O    2.896060   2.259439   1.220534   0.000000
     5  N    3.736613   2.359757   1.363297   2.229828   0.000000
     6  C    4.975899   3.695734   2.461733   2.745133   1.452755
     7  C    6.118883   4.778442   3.648850   3.997014   2.461251
     8  C    6.857251   5.661901   4.426314   4.410863   3.539354
     9  C    1.415142   2.529016   3.811671   4.295551   4.878566
    10  C    2.467445   3.813189   4.990041   5.239622   6.164364
    11  C    2.836785   4.275081   5.194620   5.113472   6.501028
    12  C    2.436972   3.726215   4.338710   4.010929   5.695104
    13  C    1.403929   2.432046   2.948918   2.711045   4.304067
    14  H    5.419346   4.157815   3.052632   3.361991   2.100481
    15  H    5.008039   3.929536   2.566686   2.320689   2.100506
    16  H    5.925408   4.559835   3.649832   4.230005   2.444179
    17  H    6.938459   5.556459   4.478750   4.877873   3.203491
    18  H    6.346433   5.283545   4.084925   3.932771   3.480415
    19  H    7.760917   6.535160   5.376180   5.449612   4.406014
    20  H    7.302859   6.165678   4.841111   4.623618   4.050816
    21  H    2.183830   2.817518   4.175634   4.892257   5.016172
    22  C    3.823396   5.025138   6.298779   6.673403   7.367487
    23  Cl   4.595561   6.030904   6.891803   6.678685   8.220615
    24  H    3.408391   4.571495   4.955367   4.384954   6.309694
    25  H    2.162869   2.638168   2.613239   1.979766   3.933856
    26  F    4.235025   5.249484   6.587170   7.118988   7.527547
    27  F    4.896387   6.209775   7.416054   7.639283   8.565073
    28  F    4.235040   5.249505   6.514863   6.980450   7.476535
    29  H    4.027098   2.603974   2.140933   3.203651   1.157900
    30  H    2.035996   1.292358   2.456685   3.503891   2.971557
                    6          7          8          9         10
     6  C    0.000000
     7  C    1.533037   0.000000
     8  C    2.524491   1.525894   0.000000
     9  C    6.219504   7.263073   8.065474   0.000000
    10  C    7.440780   8.538225   9.240664   1.410913   0.000000
    11  C    7.613672   8.810848   9.354702   2.434879   1.417774
    12  C    6.641555   7.899822   8.342857   2.787652   2.432061
    13  C    5.271727   6.531597   7.050533   2.414010   2.810626
    14  H    1.112490   2.169947   3.264049   6.640979   7.856724
    15  H    1.112505   2.169946   2.479441   6.353582   7.448598
    16  H    2.173188   1.111853   2.159872   6.925184   8.244497
    17  H    2.173206   1.111847   2.159858   8.058124   9.364057
    18  H    2.782578   2.177355   1.110899   7.541620   8.640946
    19  H    3.484947   2.167277   1.110371   8.900415  10.103892
    20  H    2.782602   2.177347   1.110894   8.595396   9.716697
    21  H    6.436218   7.346925   8.264766   1.074158   2.118600
    22  C    8.716562   9.732046  10.499467   2.497256   1.519033
    23  Cl   9.273766  10.489730  10.945322   4.096510   2.812689
    24  H    7.084993   8.372709   8.677295   3.870600   3.416646
    25  H    4.650986   5.962151   6.361504   3.405443   3.893401
    26  F    8.894833   9.933001  10.866300   2.903537   2.366305
    27  F    9.864885  10.929865  11.619510   3.704485   2.430200
    28  F    8.872769   9.707068  10.432251   2.903531   2.366306
    29  H    2.272864   2.683697   3.908557   4.915716   6.288207
    30  H    4.384805   5.321265   6.410368   2.429684   3.823284
                   11         12         13         14         15
    11  C    0.000000
    12  C    1.395932   0.000000
    13  C    2.424790   1.392210   0.000000
    14  H    8.028873   7.057348   5.706285   0.000000
    15  H    7.420614   6.313334   5.011962   1.811405   0.000000
    16  H    8.666195   7.893734   6.531771   2.901984   2.918152
    17  H    9.672771   8.768217   7.387111   2.269243   2.901609
    18  H    8.697462   7.690764   6.462769   3.741295   2.483744
    19  H   10.287130   9.326207   8.036160   4.147673   3.577441
    20  H    9.702462   8.587439   7.327599   3.274079   2.464280
    21  H    3.386647   3.860778   3.406143   6.839478   6.737298
    22  C    2.597188   3.857064   4.327336   9.118880   8.820123
    23  Cl   1.762075   2.690192   4.007418   9.676153   8.992038
    24  H    2.153193   1.083046   2.139557   7.482503   6.606043
    25  H    3.392611   2.132431   1.083100   5.079627   4.222274
    26  F    3.510312   4.643686   4.929968   9.156944   9.130581
    27  F    2.877247   4.271995   5.092945  10.266105   9.872480
    28  F    3.510344   4.643728   4.930004   9.391185   9.029999
    29  H    6.853158   6.245429   4.888412   2.838393   3.105932
    30  H    4.645575   4.440809   3.338670   4.695561   4.867448
                   16         17         18         19         20
    16  H    0.000000
    17  H    1.807780   0.000000
    18  H    2.504593   3.089762   0.000000
    19  H    2.485374   2.485366   1.804700   0.000000
    20  H    3.089767   2.504560   1.810919   1.804687   0.000000
    21  H    6.878740   8.085015   7.805032   9.017493   8.888213
    22  C    9.328807  10.530325   9.908223  11.302494  11.048782
    23  Cl  10.375756  11.366126  10.236132  11.887620  11.240495
    24  H    8.476392   9.243329   7.998890   9.689827   8.808869
    25  H    6.121963   6.811374   5.792257   7.395082   6.517853
    26  F    9.525456  10.620459  10.397739  11.665817  11.411013
    27  F   10.573043  11.754690  10.975604  12.450611  12.119961
    28  F    9.168255  10.542336   9.796060  11.135221  11.094769
    29  H    2.192493   3.328912   3.895329   4.552759   4.632392
    30  H    4.939535   5.959441   6.150594   7.183406   6.997503
                   21         22         23         24         25
    21  H    0.000000
    22  C    2.603726   0.000000
    23  Cl   4.929757   3.266597   0.000000
    24  H    4.943824   4.744584   2.795208   0.000000
    25  H    4.323178   5.410426   4.820636   2.434581   0.000000
    26  F    2.691472   1.383425   4.223651   5.562679   5.981283
    27  F    3.964877   1.379965   2.710004   4.932148   6.148234
    28  F    2.691485   1.383435   4.223671   5.562728   5.981326
    29  H    4.808440   7.319242   8.607015   6.985682   4.730497
    30  H    2.228358   4.731459   6.384865   5.404359   3.771768
                   26         27         28         29         30
    26  F    0.000000
    27  F    2.234702   0.000000
    28  F    2.248959   2.234697   0.000000
    29  H    7.402401   8.599750   7.263452   0.000000
    30  H    4.669942   6.035459   4.889480   2.767834   0.000000
 Stoichiometry    C11H12ClF3N2O
 Framework group  C1[X(C11H12ClF3N2O)]
 Deg. of freedom    84
 Full point group                 C1      NOp   1
 Largest Abelian subgroup         C1      NOp   1
 Largest concise Abelian subgroup C1      NOp   1
                         Standard orientation:                         
 ---------------------------------------------------------------------
 Center     Atomic      Atomic             Coordinates (Angstroms)
 Number     Number       Type             X           Y           Z
 ---------------------------------------------------------------------
      1          6           0       -0.151656   -0.115323   -0.243314
      2          7           0       -1.481157   -0.655384   -0.367555
      3          6           0       -2.675515    0.009681   -0.286652
      4          8           0       -2.720414    1.212856   -0.086505
      5          7           0       -3.839844   -0.684343   -0.432404
      6          6           0       -5.109519   -0.014137   -0.654328
      7          6           0       -6.231584   -0.682567    0.148401
      8          6           0       -6.854786    0.291570    1.143904
      9          6           0        1.023769   -0.892418   -0.112445
     10          6           0        2.296648   -0.295234    0.005134
     11          6           0        2.391616    1.119284   -0.009085
     12          6           0        1.233077    1.887246   -0.138109
     13          6           0       -0.015374    1.281942   -0.253104
     14          1           0       -5.360641   -0.054790   -1.737342
     15          1           0       -5.021172    1.050172   -0.342706
     16          1           0       -5.821196   -1.553382    0.704711
     17          1           0       -7.021244   -1.042041   -0.546882
     18          1           0       -6.088821    0.650585    1.863975
     19          1           0       -7.662220   -0.219704    1.709211
     20          1           0       -7.290964    1.162776    0.610205
     21          1           0        0.998178   -1.966161   -0.097051
     22          6           0        3.484945   -1.231846    0.139924
     23         17           0        3.907383    2.007299    0.127990
     24          1           0        1.297316    2.968322   -0.149808
     25          1           0       -0.888489    1.915299   -0.351263
     26          9           0        3.542338   -2.054548   -0.970811
     27          9           0        4.697342   -0.582113    0.250580
     28          9           0        3.318067   -2.017079    1.266624
     29          1           0       -3.807320   -1.800522   -0.126104
     30          1           0       -1.118072   -1.824924   -0.780512
 ---------------------------------------------------------------------
 Rotational constants (GHZ):      0.8805902      0.1303103      0.1183191
 Standard basis: 6-311+G(d) (5D, 7F)
 There are   458 symmetry adapted cartesian basis functions of A   symmetry.
 There are   440 symmetry adapted basis functions of A   symmetry.
   440 basis functions,   725 primitive gaussians,   458 cartesian basis functions
    72 alpha electrons       72 beta electrons
       nuclear repulsion energy      1418.6693156368 Hartrees.
 NAtoms=   30 NActive=   30 NUniq=   30 SFac= 1.00D+00 NAtFMM=   60 NAOKFM=F Big=F
 Integral buffers will be    131072 words long.
 Raffenetti 2 integral format.
 Two-electron integral symmetry is turned on.
 Nuclear repulsion after empirical dispersion term =     1418.6679787485 Hartrees.
 One-electron integrals computed using PRISM.
 NBasis=   440 RedAO= T EigKep=  1.29D-06  NBF=   440
 NBsUse=   439 1.00D-06 EigRej=  7.63D-07 NBFU=   439
 ExpMin= 4.38D-02 ExpMax= 1.06D+05 ExpMxC= 3.62D+03 IAcc=3 IRadAn=         5 AccDes= 0.00D+00
 Harris functional with IExCor= 1009 and IRadAn=       5 diagonalized for initial guess.
 HarFok:  IExCor= 1009 AccDes= 0.00D+00 IRadAn=         5 IDoV= 1 UseB2=F ITyADJ=14
 ICtDFT=  3500011 ScaDFX=  1.000000  1.000000  1.000000  1.000000
 FoFCou: FMM=F IPFlag=           0 FMFlag=      100000 FMFlg1=           0
         NFxFlg=           0 DoJE=T BraDBF=F KetDBF=T FulRan=T
         wScrn=  0.000000 ICntrl=     500 IOpCl=  0 I1Cent=   200000004 NGrid=           0
         NMat0=    1 NMatS0=      1 NMatT0=    0 NMatD0=    1 NMtDS0=    0 NMtDT0=    0
 Petite list used in FoFCou.
 Requested convergence on RMS density matrix=1.00D-08 within 128 cycles.
 Requested convergence on MAX density matrix=1.00D-06.
 Requested convergence on             energy=1.00D-06.
 No special actions if energy rises.
 SCF Done:  E(RM062X) =  -1370.69495026     A.U. after   16 cycles
            NFock= 16  Conv=0.10D-07     -V/T= 2.0037
 DoSCS=F DFT=T ScalE2(SS,OS)=  1.000000  1.000000
 Range of M.O.s used for correlation:     1   439
 NBasis=   440 NAE=    72 NBE=    72 NFC=     0 NFV=     0
 NROrb=    439 NOA=    72 NOB=    72 NVA=   367 NVB=   367

 **** Warning!!: The largest alpha MO coefficient is  0.16974257D+03

 Symmetrizing basis deriv contribution to polar:
 IMax=3 JMax=2 DiffMx= 0.00D+00
 G2DrvN: will do    31 centers at a time, making    1 passes.
 Calling FoFCou, ICntrl=  3107 FMM=F I1Cent=   0 AccDes= 0.00D+00.
 End of G2Drv F.D. properties file   721 does not exist.
 End of G2Drv F.D. properties file   722 does not exist.
 End of G2Drv F.D. properties file   788 does not exist.
          IDoAtm=111111111111111111111111111111
          Differentiating once with respect to nuclear coordinates.
          There are    93 degrees of freedom in the 1st order CPHF.  IDoFFX=6 NUNeed=     0.
     87 vectors produced by pass  0 Test12= 2.84D-14 1.08D-09 XBig12= 5.11D-01 1.29D-01.
 AX will form    87 AO Fock derivatives at one time.
     87 vectors produced by pass  1 Test12= 2.84D-14 1.08D-09 XBig12= 3.80D-02 4.86D-02.
     87 vectors produced by pass  2 Test12= 2.84D-14 1.08D-09 XBig12= 1.10D-03 5.69D-03.
     87 vectors produced by pass  3 Test12= 2.84D-14 1.08D-09 XBig12= 1.04D-05 3.94D-04.
     87 vectors produced by pass  4 Test12= 2.84D-14 1.08D-09 XBig12= 1.02D-07 3.20D-05.
     87 vectors produced by pass  5 Test12= 2.84D-14 1.08D-09 XBig12= 6.89D-10 2.21D-06.
     75 vectors produced by pass  6 Test12= 2.84D-14 1.08D-09 XBig12= 3.34D-12 1.51D-07.
     28 vectors produced by pass  7 Test12= 2.84D-14 1.08D-09 XBig12= 1.86D-14 1.09D-08.
     10 vectors produced by pass  8 Test12= 2.84D-14 1.08D-09 XBig12= 1.76D-15 3.88D-09.
      6 vectors produced by pass  9 Test12= 2.84D-14 1.08D-09 XBig12= 1.61D-15 4.59D-09.
      6 vectors produced by pass 10 Test12= 2.84D-14 1.08D-09 XBig12= 2.94D-15 5.52D-09.
      6 vectors produced by pass 11 Test12= 2.84D-14 1.08D-09 XBig12= 1.07D-14 1.03D-08.
      6 vectors produced by pass 12 Test12= 2.84D-14 1.08D-09 XBig12= 9.87D-15 8.32D-09.
      4 vectors produced by pass 13 Test12= 2.84D-14 1.08D-09 XBig12= 2.23D-15 4.29D-09.
      4 vectors produced by pass 14 Test12= 2.84D-14 1.08D-09 XBig12= 5.07D-15 5.64D-09.
      4 vectors produced by pass 15 Test12= 2.84D-14 1.08D-09 XBig12= 2.78D-15 3.93D-09.
      4 vectors produced by pass 16 Test12= 2.84D-14 1.08D-09 XBig12= 2.74D-15 3.96D-09.
      2 vectors produced by pass 17 Test12= 2.84D-14 1.08D-09 XBig12= 7.03D-16 2.09D-09.
 InvSVY:  IOpt=1 It=  1 EMax= 9.99D-16
 Solved reduced A of dimension   677 with    93 vectors.
 End of Minotr F.D. properties file   721 does not exist.
 End of Minotr F.D. properties file   722 does not exist.
 End of Minotr F.D. properties file   788 does not exist.

 **********************************************************************

            Population analysis using the SCF density.

 **********************************************************************

 Orbital symmetries:
       Occupied  (A) (A) (A) (A) (A) (A) (A) (A) (A) (A) (A) (A)
                 (A) (A) (A) (A) (A) (A) (A) (A) (A) (A) (A) (A)
                 (A) (A) (A) (A) (A) (A) (A) (A) (A) (A) (A) (A)
                 (A) (A) (A) (A) (A) (A) (A) (A) (A) (A) (A) (A)
                 (A) (A) (A) (A) (A) (A) (A) (A) (A) (A) (A) (A)
                 (A) (A) (A) (A) (A) (A) (A) (A) (A) (A) (A) (A)
       Virtual   (A) (A) (A) (A) (A) (A) (A) (A) (A) (A) (A) (A)
                 (A) (A) (A) (A) (A) (A) (A) (A) (A) (A) (A) (A)
                 (A) (A) (A) (A) (A) (A) (A) (A) (A) (A) (A) (A)
                 (A) (A) (A) (A) (A) (A) (A) (A) (A) (A) (A) (A)
                 (A) (A) (A) (A) (A) (A) (A) (A) (A) (A) (A) (A)
                 (A) (A) (A) (A) (A) (A) (A) (A) (A) (A) (A) (A)
                 (A) (A) (A) (A) (A) (A) (A) (A) (A) (A) (A) (A)
                 (A) (A) (A) (A) (A) (A) (A) (A) (A) (A) (A) (A)
                 (A) (A) (A) (A) (A) (A) (A) (A) (A) (A) (A) (A)
                 (A) (A) (A) (A) (A) (A) (A) (A) (A) (A) (A) (A)
                 (A) (A) (A) (A) (A) (A) (A) (A) (A) (A) (A) (A)
                 (A) (A) (A) (A) (A) (A) (A) (A) (A) (A) (A) (A)
                 (A) (A) (A) (A) (A) (A) (A) (A) (A) (A) (A) (A)
                 (A) (A) (A) (A) (A) (A) (A) (A) (A) (A) (A) (A)
                 (A) (A) (A) (A) (A) (A) (A) (A) (A) (A) (A) (A)
                 (A) (A) (A) (A) (A) (A) (A) (A) (A) (A) (A) (A)
                 (A) (A) (A) (A) (A) (A) (A) (A) (A) (A) (A) (A)
                 (A) (A) (A) (A) (A) (A) (A) (A) (A) (A) (A) (A)
                 (A) (A) (A) (A) (A) (A) (A) (A) (A) (A) (A) (A)
                 (A) (A) (A) (A) (A) (A) (A) (A) (A) (A) (A) (A)
                 (A) (A) (A) (A) (A) (A) (A) (A) (A) (A) (A) (A)
                 (A) (A) (A) (A) (A) (A) (A) (A) (A) (A) (A) (A)
                 (A) (A) (A) (A) (A) (A) (A) (A) (A) (A) (A) (A)
                 (A) (A) (A) (A) (A) (A) (A) (A) (A) (A) (A) (A)
                 (A) (A) (A) (A) (A) (A) (A) (A) (A) (A) (A) (A)
                 (A) (A) (A) (A) (A) (A) (A) (A) (A) (A) (A) (A)
                 (A) (A) (A) (A) (A) (A) (A) (A) (A) (A) (A) (A)
                 (A) (A) (A) (A) (A) (A) (A) (A) (A) (A) (A) (A)
                 (A) (A) (A) (A) (A) (A) (A) (A) (A) (A) (A) (A)
                 (A) (A) (A) (A) (A) (A) (A) (A) (A) (A) (A) (A)
                 (A) (A) (A) (A) (A) (A) (A)
 The electronic state is 1-A.
 Alpha  occ. eigenvalues -- -102.68124 -25.28465 -25.28416 -25.28304 -19.59716
 Alpha  occ. eigenvalues --  -14.82446 -14.79115 -10.82385 -10.69490 -10.63284
 Alpha  occ. eigenvalues --  -10.62655 -10.60560 -10.59001 -10.58510 -10.57172
 Alpha  occ. eigenvalues --  -10.56118 -10.55346 -10.54022  -9.82371  -7.54900
 Alpha  occ. eigenvalues --   -7.54201  -7.54171  -1.45120  -1.37220  -1.37118
 Alpha  occ. eigenvalues --   -1.19514  -1.05458  -1.03329  -1.00646  -0.94635
 Alpha  occ. eigenvalues --   -0.90421  -0.89067  -0.85230  -0.81215  -0.78545
 Alpha  occ. eigenvalues --   -0.73929  -0.72859  -0.70068  -0.68795  -0.68309
 Alpha  occ. eigenvalues --   -0.67921  -0.64639  -0.61952  -0.59141  -0.58397
 Alpha  occ. eigenvalues --   -0.57526  -0.57245  -0.56339  -0.55628  -0.54973
 Alpha  occ. eigenvalues --   -0.54000  -0.53590  -0.52846  -0.52075  -0.51684
 Alpha  occ. eigenvalues --   -0.50057  -0.49358  -0.48852  -0.48167  -0.46585
 Alpha  occ. eigenvalues --   -0.45684  -0.44719  -0.43409  -0.42370  -0.41524
 Alpha  occ. eigenvalues --   -0.40851  -0.37960  -0.37336  -0.35526  -0.33790
 Alpha  occ. eigenvalues --   -0.32556  -0.28992
 Alpha virt. eigenvalues --   -0.02868  -0.01907  -0.00626   0.00514   0.01593
 Alpha virt. eigenvalues --    0.02007   0.02383   0.03012   0.03481   0.03623
 Alpha virt. eigenvalues --    0.04596   0.05275   0.05655   0.05813   0.06171
 Alpha virt. eigenvalues --    0.06431   0.06523   0.07138   0.07523   0.08145
 Alpha virt. eigenvalues --    0.08565   0.08747   0.09253   0.09537   0.10169
 Alpha virt. eigenvalues --    0.10694   0.11063   0.11467   0.11860   0.12601
 Alpha virt. eigenvalues --    0.12772   0.13156   0.13754   0.14233   0.14348
 Alpha virt. eigenvalues --    0.14712   0.15053   0.15578   0.16507   0.16795
 Alpha virt. eigenvalues --    0.17374   0.17694   0.17902   0.18300   0.19130
 Alpha virt. eigenvalues --    0.19345   0.19833   0.20108   0.20166   0.20549
 Alpha virt. eigenvalues --    0.21118   0.21615   0.21957   0.22474   0.22694
 Alpha virt. eigenvalues --    0.23007   0.23775   0.23985   0.24311   0.24439
 Alpha virt. eigenvalues --    0.24871   0.25429   0.25532   0.25906   0.26242
 Alpha virt. eigenvalues --    0.26640   0.27191   0.27829   0.28608   0.28888
 Alpha virt. eigenvalues --    0.29072   0.29768   0.30038   0.30558   0.30946
 Alpha virt. eigenvalues --    0.31343   0.31724   0.32047   0.33449   0.33554
 Alpha virt. eigenvalues --    0.33907   0.34844   0.35149   0.35967   0.36586
 Alpha virt. eigenvalues --    0.36741   0.37143   0.38477   0.39077   0.39590
 Alpha virt. eigenvalues --    0.39779   0.40923   0.41524   0.41987   0.43272
 Alpha virt. eigenvalues --    0.43828   0.44559   0.45378   0.45626   0.46060
 Alpha virt. eigenvalues --    0.46611   0.47160   0.48781   0.49165   0.50003
 Alpha virt. eigenvalues --    0.50193   0.50488   0.51913   0.52665   0.53117
 Alpha virt. eigenvalues --    0.54766   0.56202   0.56840   0.57385   0.58303
 Alpha virt. eigenvalues --    0.59315   0.59782   0.60787   0.61739   0.62086
 Alpha virt. eigenvalues --    0.62774   0.63566   0.64390   0.65497   0.66589
 Alpha virt. eigenvalues --    0.67279   0.68045   0.68451   0.68631   0.70007
 Alpha virt. eigenvalues --    0.70710   0.71424   0.71786   0.72347   0.72413
 Alpha virt. eigenvalues --    0.73507   0.73603   0.73979   0.74833   0.76133
 Alpha virt. eigenvalues --    0.76601   0.77239   0.77848   0.79595   0.80187
 Alpha virt. eigenvalues --    0.82445   0.83117   0.84672   0.87209   0.88536
 Alpha virt. eigenvalues --    0.90276   0.90707   0.91984   0.92429   0.92540
 Alpha virt. eigenvalues --    0.92715   0.93801   0.94636   0.95167   0.95414
 Alpha virt. eigenvalues --    0.96904   0.99139   0.99401   1.00521   1.02202
 Alpha virt. eigenvalues --    1.02693   1.04299   1.05409   1.07673   1.09232
 Alpha virt. eigenvalues --    1.10895   1.11328   1.13803   1.15461   1.17606
 Alpha virt. eigenvalues --    1.20013   1.21016   1.21494   1.23724   1.24643
 Alpha virt. eigenvalues --    1.26480   1.27733   1.30304   1.32644   1.33123
 Alpha virt. eigenvalues --    1.35940   1.36013   1.38359   1.38893   1.40836
 Alpha virt. eigenvalues --    1.43748   1.44484   1.45569   1.46000   1.46457
 Alpha virt. eigenvalues --    1.48616   1.50561   1.51745   1.52735   1.53107
 Alpha virt. eigenvalues --    1.53647   1.54704   1.55408   1.56459   1.58770
 Alpha virt. eigenvalues --    1.59313   1.60312   1.60384   1.62067   1.62702
 Alpha virt. eigenvalues --    1.63845   1.65221   1.67219   1.69043   1.71645
 Alpha virt. eigenvalues --    1.71948   1.73802   1.76654   1.76698   1.78138
 Alpha virt. eigenvalues --    1.78993   1.81359   1.83717   1.84943   1.85893
 Alpha virt. eigenvalues --    1.86283   1.89110   1.90036   1.90765   1.91833
 Alpha virt. eigenvalues --    1.93022   1.94422   1.97205   1.98330   2.02903
 Alpha virt. eigenvalues --    2.03688   2.05212   2.09066   2.11458   2.13353
 Alpha virt. eigenvalues --    2.14094   2.17842   2.19446   2.23212   2.24674
 Alpha virt. eigenvalues --    2.27836   2.31061   2.32294   2.34260   2.35085
 Alpha virt. eigenvalues --    2.37818   2.39265   2.43158   2.46286   2.47829
 Alpha virt. eigenvalues --    2.50256   2.50948   2.53055   2.53196   2.55093
 Alpha virt. eigenvalues --    2.55672   2.57112   2.59082   2.59850   2.60173
 Alpha virt. eigenvalues --    2.65013   2.69262   2.70000   2.70649   2.73750
 Alpha virt. eigenvalues --    2.80267   2.81236   2.83078   2.85097   2.88545
 Alpha virt. eigenvalues --    2.92190   2.93108   2.93416   2.97558   2.97837
 Alpha virt. eigenvalues --    2.98007   3.00482   3.02316   3.05452   3.06635
 Alpha virt. eigenvalues --    3.07795   3.11117   3.17940   3.19316   3.20549
 Alpha virt. eigenvalues --    3.21952   3.25865   3.30366   3.32867   3.36810
 Alpha virt. eigenvalues --    3.38156   3.39581   3.39843   3.42727   3.47295
 Alpha virt. eigenvalues --    3.52531   3.64554   3.65029   3.68509   3.73881
 Alpha virt. eigenvalues --    3.76708   3.77838   3.80619   3.84223   3.84462
 Alpha virt. eigenvalues --    3.86030   3.86794   3.88129   3.94097   3.96212
 Alpha virt. eigenvalues --    3.98021   3.98369   4.00074   4.01255   4.05721
 Alpha virt. eigenvalues --    4.06790   4.07662   4.16288   4.21044   4.24197
 Alpha virt. eigenvalues --    4.33183   4.42423   4.70477   4.78717   4.85847
 Alpha virt. eigenvalues --    4.92602   4.95927   5.18466   5.18969   5.40827
 Alpha virt. eigenvalues --    5.90232   6.44897   6.48541   6.49490   6.50840
 Alpha virt. eigenvalues --    6.52515   6.58109   6.61609   6.81024   6.84776
 Alpha virt. eigenvalues --    9.98154  23.40825  23.54437  23.58816  23.72859
 Alpha virt. eigenvalues --   23.79378  23.88651  23.91173  23.92839  24.01941
 Alpha virt. eigenvalues --   24.05134  24.15550  25.94439  26.29738  26.75306
 Alpha virt. eigenvalues --   35.56490  35.66776  50.12731  66.86974  66.90835
 Alpha virt. eigenvalues --   66.96022 216.08562
          Condensed to atoms (all electrons):
               1          2          3          4          5          6
     1  C   24.630467   0.160175  -0.799197  -0.359643  -0.427352  -0.265248
     2  N    0.160175   7.805732   0.189121  -0.042633  -0.595882  -0.139402
     3  C   -0.799197   0.189121   7.685415   0.638056   0.149751  -0.093088
     4  O   -0.359643  -0.042633   0.638056   8.079416  -0.213516  -0.056379
     5  N   -0.427352  -0.595882   0.149751  -0.213516   7.830119   0.254143
     6  C   -0.265248  -0.139402  -0.093088  -0.056379   0.254143   6.173411
     7  C   -0.042461  -0.065029  -0.151276  -0.005218   0.005513  -0.166848
     8  C   -0.006253  -0.013646  -0.013129  -0.010215   0.068026  -0.014931
     9  C   -7.437931  -0.365530  -1.925232  -0.065820  -0.233204  -0.055570
    10  C    2.430769  -0.050400  -0.245342  -0.022471   0.031897  -0.004926
    11  C   -3.156839   0.085455   0.408015   0.020066   0.010794   0.013396
    12  C   -5.139515   0.105488  -0.981502   0.018486   0.003217  -0.007097
    13  C    1.685449   0.034101   1.123564   0.369035   0.216422   0.021431
    14  H   -0.009314  -0.001307  -0.015103   0.004836  -0.064326   0.486886
    15  H    0.012616   0.014838   0.066967  -0.007189  -0.067797   0.374306
    16  H   -0.002617  -0.002004   0.001211   0.000710  -0.010380  -0.048277
    17  H    0.000509   0.000129  -0.002636  -0.000316   0.005837  -0.055503
    18  H    0.001364   0.000279   0.002970  -0.000305   0.002926  -0.021977
    19  H    0.000341   0.000023   0.006085  -0.000186  -0.003635   0.051171
    20  H   -0.000626  -0.000062  -0.009987   0.000691  -0.000275  -0.023943
    21  H   -0.075697  -0.007554   0.001100  -0.000073   0.000141   0.000006
    22  C   -5.242225  -0.013102  -0.222463  -0.001008   0.005408  -0.001029
    23  Cl   0.089154   0.001158  -0.015860  -0.000238   0.000211  -0.000021
    24  H   -0.005105  -0.001040   0.007714   0.000158   0.000181   0.000141
    25  H   -0.033321  -0.018625   0.072760  -0.011245   0.000073   0.003673
    26  F   -0.000936   0.001385  -0.000826  -0.000002  -0.000012  -0.000004
    27  F    0.026819   0.000360   0.000359   0.000001   0.000006   0.000000
    28  F    0.165373  -0.000378   0.002470  -0.000001  -0.000001   0.000007
    29  H   -0.012075   0.080950   0.058129  -0.000195   0.182919  -0.022519
    30  H    0.061556   0.177656   0.061908  -0.001484   0.064096   0.012316
               7          8          9         10         11         12
     1  C   -0.042461  -0.006253  -7.437931   2.430769  -3.156839  -5.139515
     2  N   -0.065029  -0.013646  -0.365530  -0.050400   0.085455   0.105488
     3  C   -0.151276  -0.013129  -1.925232  -0.245342   0.408015  -0.981502
     4  O   -0.005218  -0.010215  -0.065820  -0.022471   0.020066   0.018486
     5  N    0.005513   0.068026  -0.233204   0.031897   0.010794   0.003217
     6  C   -0.166848  -0.014931  -0.055570  -0.004926   0.013396  -0.007097
     7  C    6.056417   0.007980   0.001011   0.001924   0.001519  -0.005190
     8  C    0.007980   5.821489  -0.000952  -0.000234  -0.000333   0.002000
     9  C    0.001011  -0.000952  31.395756  -0.860164  -9.159975   5.886789
    10  C    0.001924  -0.000234  -0.860164  40.579544 -19.643620  -2.951568
    11  C    0.001519  -0.000333  -9.159975 -19.643620  42.631262  -6.655989
    12  C   -0.005190   0.002000   5.886789  -2.951568  -6.655989  21.850940
    13  C   -0.009665   0.005536 -12.438065  -7.009792   3.898316  -7.733036
    14  H   -0.102520   0.015195  -0.003029  -0.000062  -0.000004   0.001442
    15  H   -0.040538  -0.009759   0.002304   0.000207  -0.000129  -0.003411
    16  H    0.430530  -0.040757  -0.001051  -0.000079   0.000012   0.000013
    17  H    0.428619  -0.034986   0.000007   0.000004  -0.000003   0.000039
    18  H   -0.014979   0.382298   0.000101   0.000026  -0.000016   0.000165
    19  H   -0.108591   0.400710   0.000020   0.000001  -0.000000  -0.000010
    20  H   -0.002704   0.391053  -0.000039  -0.000002   0.000002   0.000015
    21  H   -0.000001  -0.000004   0.201612   0.167203  -0.050565  -0.052381
    22  C    0.000013   0.000008   0.945598  -5.181023  -1.564825   1.767935
    23  Cl   0.000007  -0.000000   0.384102   0.024896  -1.062097   0.313013
    24  H    0.000010   0.000000  -0.064959   0.023370   0.019376   0.234102
    25  H    0.000050   0.000110   0.010701  -0.003992  -0.014659   0.003221
    26  F   -0.000000   0.000000  -0.134146   0.308952  -0.088808  -0.009923
    27  F    0.000000   0.000000   0.093139  -0.143308  -0.006478   0.092677
    28  F    0.000000  -0.000000  -0.221812   0.320997  -0.073016  -0.043742
    29  H   -0.030147  -0.003572   0.001393  -0.004894   0.000186   0.003657
    30  H    0.002360   0.000038  -0.254620   0.013457  -0.006573  -0.013933
              13         14         15         16         17         18
     1  C    1.685449  -0.009314   0.012616  -0.002617   0.000509   0.001364
     2  N    0.034101  -0.001307   0.014838  -0.002004   0.000129   0.000279
     3  C    1.123564  -0.015103   0.066967   0.001211  -0.002636   0.002970
     4  O    0.369035   0.004836  -0.007189   0.000710  -0.000316  -0.000305
     5  N    0.216422  -0.064326  -0.067797  -0.010380   0.005837   0.002926
     6  C    0.021431   0.486886   0.374306  -0.048277  -0.055503  -0.021977
     7  C   -0.009665  -0.102520  -0.040538   0.430530   0.428619  -0.014979
     8  C    0.005536   0.015195  -0.009759  -0.040757  -0.034986   0.382298
     9  C  -12.438065  -0.003029   0.002304  -0.001051   0.000007   0.000101
    10  C   -7.009792  -0.000062   0.000207  -0.000079   0.000004   0.000026
    11  C    3.898316  -0.000004  -0.000129   0.000012  -0.000003  -0.000016
    12  C   -7.733036   0.001442  -0.003411   0.000013   0.000039   0.000165
    13  C   26.122648   0.011759  -0.014981   0.001024   0.000225   0.000356
    14  H    0.011759   0.454092  -0.032387   0.003276  -0.004828   0.000378
    15  H   -0.014981  -0.032387   0.417935   0.001578   0.002348  -0.002269
    16  H    0.001024   0.003276   0.001578   0.476621  -0.032453  -0.007505
    17  H    0.000225  -0.004828   0.002348  -0.032453   0.447571   0.005264
    18  H    0.000356   0.000378  -0.002269  -0.007505   0.005264   0.442917
    19  H   -0.000133  -0.000429   0.001122  -0.002821  -0.003983  -0.025908
    20  H    0.000226  -0.000118  -0.001610   0.005550  -0.007862  -0.030700
    21  H    0.006568   0.000000   0.000000  -0.000000   0.000000   0.000000
    22  C   -0.804596   0.000008  -0.000008  -0.000003   0.000000   0.000001
    23  Cl  -0.448908   0.000000  -0.000001   0.000000   0.000000   0.000000
    24  H    0.110975  -0.000000  -0.000000  -0.000000  -0.000000  -0.000000
    25  H    0.304596   0.000032  -0.000117  -0.000000  -0.000000   0.000001
    26  F   -0.009544   0.000000  -0.000000  -0.000000   0.000000   0.000000
    27  F    0.043567   0.000000  -0.000000  -0.000000  -0.000000   0.000000
    28  F    0.028062   0.000000  -0.000000  -0.000000   0.000000   0.000000
    29  H    0.009222   0.000368   0.002316   0.010188  -0.000884  -0.000182
    30  H    0.124278  -0.000030  -0.000030   0.000021  -0.000003  -0.000001
              19         20         21         22         23         24
     1  C    0.000341  -0.000626  -0.075697  -5.242225   0.089154  -0.005105
     2  N    0.000023  -0.000062  -0.007554  -0.013102   0.001158  -0.001040
     3  C    0.006085  -0.009987   0.001100  -0.222463  -0.015860   0.007714
     4  O   -0.000186   0.000691  -0.000073  -0.001008  -0.000238   0.000158
     5  N   -0.003635  -0.000275   0.000141   0.005408   0.000211   0.000181
     6  C    0.051171  -0.023943   0.000006  -0.001029  -0.000021   0.000141
     7  C   -0.108591  -0.002704  -0.000001   0.000013   0.000007   0.000010
     8  C    0.400710   0.391053  -0.000004   0.000008  -0.000000   0.000000
     9  C    0.000020  -0.000039   0.201612   0.945598   0.384102  -0.064959
    10  C    0.000001  -0.000002   0.167203  -5.181023   0.024896   0.023370
    11  C   -0.000000   0.000002  -0.050565  -1.564825  -1.062097   0.019376
    12  C   -0.000010   0.000015  -0.052381   1.767935   0.313013   0.234102
    13  C   -0.000133   0.000226   0.006568  -0.804596  -0.448908   0.110975
    14  H   -0.000429  -0.000118   0.000000   0.000008   0.000000  -0.000000
    15  H    0.001122  -0.001610   0.000000  -0.000008  -0.000001  -0.000000
    16  H   -0.002821   0.005550  -0.000000  -0.000003   0.000000  -0.000000
    17  H   -0.003983  -0.007862   0.000000   0.000000   0.000000  -0.000000
    18  H   -0.025908  -0.030700   0.000000   0.000001   0.000000  -0.000000
    19  H    0.454443  -0.023800  -0.000000   0.000000   0.000000   0.000000
    20  H   -0.023800   0.447633   0.000000  -0.000000   0.000000  -0.000000
    21  H   -0.000000   0.000000   0.414787   0.123879  -0.001266   0.000066
    22  C    0.000000  -0.000000   0.123879  15.863973  -0.348965   0.016807
    23  Cl   0.000000   0.000000  -0.001266  -0.348965  17.681108  -0.027621
    24  H    0.000000  -0.000000   0.000066   0.016807  -0.027621   0.406958
    25  H   -0.000000   0.000000  -0.000102   0.000548   0.001056  -0.004059
    26  F    0.000000   0.000000  -0.001445   0.102658   0.005818   0.000015
    27  F    0.000000  -0.000000   0.000609  -0.003176  -0.024774   0.000063
    28  F   -0.000000  -0.000000  -0.000985  -0.007490   0.005147   0.000015
    29  H    0.000129   0.000077   0.000006  -0.000233   0.000001  -0.000000
    30  H    0.000000  -0.000000   0.006839  -0.001578  -0.000084   0.000030
              25         26         27         28         29         30
     1  C   -0.033321  -0.000936   0.026819   0.165373  -0.012075   0.061556
     2  N   -0.018625   0.001385   0.000360  -0.000378   0.080950   0.177656
     3  C    0.072760  -0.000826   0.000359   0.002470   0.058129   0.061908
     4  O   -0.011245  -0.000002   0.000001  -0.000001  -0.000195  -0.001484
     5  N    0.000073  -0.000012   0.000006  -0.000001   0.182919   0.064096
     6  C    0.003673  -0.000004   0.000000   0.000007  -0.022519   0.012316
     7  C    0.000050  -0.000000   0.000000   0.000000  -0.030147   0.002360
     8  C    0.000110   0.000000   0.000000  -0.000000  -0.003572   0.000038
     9  C    0.010701  -0.134146   0.093139  -0.221812   0.001393  -0.254620
    10  C   -0.003992   0.308952  -0.143308   0.320997  -0.004894   0.013457
    11  C   -0.014659  -0.088808  -0.006478  -0.073016   0.000186  -0.006573
    12  C    0.003221  -0.009923   0.092677  -0.043742   0.003657  -0.013933
    13  C    0.304596  -0.009544   0.043567   0.028062   0.009222   0.124278
    14  H    0.000032   0.000000   0.000000   0.000000   0.000368  -0.000030
    15  H   -0.000117  -0.000000  -0.000000  -0.000000   0.002316  -0.000030
    16  H   -0.000000  -0.000000  -0.000000  -0.000000   0.010188   0.000021
    17  H   -0.000000   0.000000  -0.000000   0.000000  -0.000884  -0.000003
    18  H    0.000001   0.000000   0.000000   0.000000  -0.000182  -0.000001
    19  H   -0.000000   0.000000   0.000000  -0.000000   0.000129   0.000000
    20  H    0.000000   0.000000  -0.000000  -0.000000   0.000077  -0.000000
    21  H   -0.000102  -0.001445   0.000609  -0.000985   0.000006   0.006839
    22  C    0.000548   0.102658  -0.003176  -0.007490  -0.000233  -0.001578
    23  Cl   0.001056   0.005818  -0.024774   0.005147   0.000001  -0.000084
    24  H   -0.004059   0.000015   0.000063   0.000015  -0.000000   0.000030
    25  H    0.364562   0.000003  -0.000003  -0.000000  -0.000056   0.000159
    26  F    0.000003   8.961997  -0.030392  -0.052929   0.000000  -0.000209
    27  F   -0.000003  -0.030392   9.063857  -0.030995  -0.000000   0.000008
    28  F   -0.000000  -0.052929  -0.030995   8.956745   0.000000   0.000131
    29  H   -0.000056   0.000000  -0.000000   0.000000   0.410858   0.000303
    30  H    0.000159  -0.000209   0.000008   0.000131   0.000303   0.426859
 Mulliken charges:
               1
     1  C   -0.248239
     2  N   -0.340256
     3  C    0.000046
     4  O   -0.333320
     5  N   -0.215300
     6  C   -0.414128
     7  C   -0.190786
     8  C   -0.945670
     9  C    0.299567
    10  C   -1.781369
    11  C    0.395530
    12  C   -0.685900
    13  C    0.351363
    14  H    0.255184
    15  H    0.283688
    16  H    0.217213
    17  H    0.252904
    18  H    0.264796
    19  H    0.255453
    20  H    0.256481
    21  H    0.267258
    22  C    0.564887
    23  Cl   0.424165
    24  H    0.282804
    25  H    0.324635
    26  F   -0.051650
    27  F   -0.082339
    28  F   -0.047598
    29  H    0.314054
    30  H    0.326528
 Sum of Mulliken charges =  -0.00000
 Mulliken charges with hydrogens summed into heavy atoms:
               1
     1  C   -0.248239
     2  N   -0.013727
     3  C    0.000046
     4  O   -0.333320
     5  N    0.098754
     6  C    0.124744
     7  C    0.279330
     8  C   -0.168940
     9  C    0.566824
    10  C   -1.781369
    11  C    0.395530
    12  C   -0.403096
    13  C    0.675998
    22  C    0.564887
    23  Cl   0.424165
    26  F   -0.051650
    27  F   -0.082339
    28  F   -0.047598
 APT charges:
               1
     1  C   -0.507236
     2  N   -1.062191
     3  C   -0.321764
     4  O   -0.251866
     5  N    0.550466
     6  C   -0.717202
     7  C   -1.099200
     8  C   -2.176282
     9  C    0.812492
    10  C   -1.259001
    11  C    2.033921
    12  C   -0.305731
    13  C   -1.560160
    14  H    0.661224
    15  H    0.406352
    16  H    0.183726
    17  H    1.029692
    18  H   -0.091900
    19  H    1.089837
    20  H    0.700569
    21  H    0.553362
    22  C   -0.836313
    23  Cl  -0.287378
    24  H    0.759610
    25  H    0.595288
    26  F   -0.052896
    27  F    0.240021
    28  F   -0.085763
    29  H    0.532729
    30  H    0.465594
 Sum of APT charges =  -0.00000
 APT charges with hydrogens summed into heavy atoms:
               1
     1  C   -0.507236
     2  N   -0.596597
     3  C   -0.321764
     4  O   -0.251866
     5  N    1.083195
     6  C    0.350374
     7  C    0.114219
     8  C   -0.477776
     9  C    1.365854
    10  C   -1.259001
    11  C    2.033921
    12  C    0.453879
    13  C   -0.964872
    22  C   -0.836313
    23  Cl  -0.287378
    26  F   -0.052896
    27  F    0.240021
    28  F   -0.085763
 Electronic spatial extent (au):  <R**2>=           8541.2538
 Charge=             -0.0000 electrons
 Dipole moment (field-independent basis, Debye):
    X=             -5.2174    Y=             -2.7478    Z=             -0.9518  Tot=              5.9731
 Quadrupole moment (field-independent basis, Debye-Ang):
   XX=           -112.1195   YY=           -107.7147   ZZ=           -116.0429
   XY=             11.8863   XZ=              1.1554   YZ=              0.6234
 Traceless Quadrupole moment (field-independent basis, Debye-Ang):
   XX=             -0.1605   YY=              4.2443   ZZ=             -4.0838
   XY=             11.8863   XZ=              1.1554   YZ=              0.6234
 Octapole moment (field-independent basis, Debye-Ang**2):
  XXX=            -90.6997  YYY=            -24.7824  ZZZ=              3.4173  XYY=              8.1884
  XXY=            -23.3159  XXZ=             -7.4396  XZZ=             16.1856  YZZ=             -6.5869
  YYZ=             -3.1390  XYZ=              2.7747
 Hexadecapole moment (field-independent basis, Debye-Ang**3):
 XXXX=          -9019.5294 YYYY=          -1134.9652 ZZZZ=           -327.1059 XXXY=             52.0459
 XXXZ=             72.5882 YYYX=            -24.5217 YYYZ=             -0.1212 ZZZX=             24.6522
 ZZZY=             -1.8050 XXYY=          -1787.5994 XXZZ=          -1643.1919 YYZZ=           -266.1794
 XXYZ=            -19.5488 YYXZ=              8.7476 ZZXY=            -18.8852
 N-N= 1.418667978749D+03 E-N=-6.067127873005D+03  KE= 1.365681943501D+03
  Exact polarizability:   0.000   0.000   0.000   0.000   0.000   0.000
 Approx polarizability: 238.208   9.582 221.359   8.837   4.111 137.792
 Calling FoFJK, ICntrl=    100147 FMM=F ISym2X=0 I1Cent= 0 IOpClX= 0 NMat=1 NMatS=1 NMatT=0.
 ***** Axes restored to original set *****
 -------------------------------------------------------------------
 Center     Atomic                   Forces (Hartrees/Bohr)
 Number     Number              X              Y              Z
 -------------------------------------------------------------------
      1        6           0.006150302    0.023465089   -0.014510135
      2        7          -0.071202656   -0.109031812    0.077159367
      3        6           0.016402971    0.017610404   -0.010095104
      4        8          -0.003554306    0.002377585    0.003306660
      5        7          -0.013946743   -0.094558637    0.005029076
      6        6           0.007196279    0.003034077    0.002358612
      7        6           0.007441619   -0.004923506   -0.000437484
      8        6           0.003974865   -0.001167632   -0.008693880
      9        6           0.004269663    0.016213076   -0.003783485
     10        6           0.002852685    0.018701084   -0.003287297
     11        6          -0.003366514   -0.008439864    0.001615613
     12        6           0.003241815   -0.011759942    0.001794490
     13        6          -0.014084319    0.007734408    0.001511542
     14        1          -0.007925137    0.001107171   -0.009135052
     15        1          -0.001003761   -0.012890418    0.009861248
     16        1           0.007870912    0.008566567    0.003788310
     17        1          -0.011032265   -0.002415172   -0.006258055
     18        1           0.010882509    0.000041720    0.005008595
     19        1          -0.007028267    0.009019485    0.004043575
     20        1          -0.005456135   -0.009984076   -0.004434334
     21        1           0.004915679   -0.009153391    0.000532244
     22        6          -0.010266138    0.000000365    0.001330328
     23       17           0.009960804   -0.001441918   -0.001277581
     24        1          -0.001990917   -0.000672159    0.000748256
     25        1          -0.003652827   -0.004144469    0.001721247
     26        9          -0.013817031    0.006740952   -0.033790007
     27        9           0.039188117   -0.029123615   -0.000157294
     28        9          -0.003614714    0.020365205    0.031324565
     29        1           0.005056752    0.084887386    0.007681690
     30        1           0.042536759    0.079842038   -0.062955710
 -------------------------------------------------------------------
 Cartesian Forces:  Max     0.109031812 RMS     0.026059013
 FormGI is forming the generalized inverse of G from B-inverse, IUseBI=4.

 GradGradGradGradGradGradGradGradGradGradGradGradGradGradGradGradGradGrad
 Berny optimization.
 Internal  Forces:  Max     0.105345709 RMS     0.015836991
 Search for a local minimum.
 Step number   1 out of a maximum of  157
 All quantities printed in internal units (Hartrees-Bohrs-Radians)
 Mixed Optimization -- RFO/linear search
 Second derivative matrix not updated -- analytic derivatives used.
 ITU=  0
     Eigenvalues ---   -0.00693  -0.00565  -0.00383  -0.00175  -0.00045
     Eigenvalues ---    0.00260   0.00375   0.00788   0.00909   0.01144
     Eigenvalues ---    0.01565   0.01790   0.01900   0.02060   0.02420
     Eigenvalues ---    0.02533   0.02641   0.03032   0.03816   0.03942
     Eigenvalues ---    0.04048   0.04563   0.04596   0.04728   0.05150
     Eigenvalues ---    0.05933   0.07055   0.08378   0.10334   0.10861
     Eigenvalues ---    0.11200   0.11402   0.11545   0.11604   0.11970
     Eigenvalues ---    0.12546   0.12736   0.13573   0.14198   0.15902
     Eigenvalues ---    0.16407   0.16473   0.16853   0.17661   0.17972
     Eigenvalues ---    0.19259   0.20742   0.21492   0.22214   0.22290
     Eigenvalues ---    0.23108   0.23461   0.24330   0.25125   0.25649
     Eigenvalues ---    0.27395   0.29264   0.29843   0.29982   0.30355
     Eigenvalues ---    0.30581   0.30816   0.30846   0.31243   0.31319
     Eigenvalues ---    0.32040   0.32471   0.33214   0.35970   0.36845
     Eigenvalues ---    0.36955   0.37582   0.38088   0.38736   0.40241
     Eigenvalues ---    0.41932   0.42584   0.45034   0.45371   0.49009
     Eigenvalues ---    0.49642   0.76222   0.83573   0.93344
 RFO step:  Lambda=-1.33668883D-01 EMin=-6.92684201D-03
 Linear search not attempted -- first point.
 Maximum step size (   0.300) exceeded in Quadratic search.
    -- Step size scaled by   0.383
 Iteration  1 RMS(Cart)=  0.12975180 RMS(Int)=  0.00646611
 Iteration  2 RMS(Cart)=  0.00827695 RMS(Int)=  0.00011197
 Iteration  3 RMS(Cart)=  0.00006088 RMS(Int)=  0.00010586
 Iteration  4 RMS(Cart)=  0.00000003 RMS(Int)=  0.00010586
 Variable       Old X    -DE/DX   Delta X   Delta X   Delta X     New X
                                 (Linear)    (Quad)   (Total)
    R1        2.72191  -0.01127   0.00000  -0.01920  -0.01920   2.70271
    R2        2.67423  -0.02604   0.00000  -0.01554  -0.01553   2.65870
    R3        2.65304  -0.00065   0.00000  -0.00054  -0.00054   2.65250
    R4        2.58785   0.00649   0.00000   0.00630   0.00630   2.59415
    R5        2.44220  -0.10535   0.00000  -0.23265  -0.23265   2.20956
    R6        2.30648   0.00135   0.00000  -0.00381  -0.00381   2.30266
    R7        2.57626   0.00473   0.00000   0.00560   0.00560   2.58185
    R8        2.74531  -0.00017   0.00000   0.00118   0.00118   2.74649
    R9        2.18811  -0.08516   0.00000  -0.10752  -0.10752   2.08059
   R10        2.89702   0.00873   0.00000   0.00618   0.00618   2.90320
   R11        2.10230  -0.01137   0.00000  -0.01028  -0.01028   2.09202
   R12        2.10233  -0.01526   0.00000  -0.01263  -0.01263   2.08970
   R13        2.88352   0.00284   0.00000   0.00195   0.00195   2.88547
   R14        2.10110  -0.01162   0.00000  -0.00957  -0.00957   2.09153
   R15        2.10109  -0.01218   0.00000  -0.01073  -0.01073   2.09036
   R16        2.09930  -0.01180   0.00000  -0.00990  -0.00990   2.08939
   R17        2.09830  -0.01148   0.00000  -0.00988  -0.00988   2.08841
   R18        2.09928  -0.01200   0.00000  -0.01024  -0.01024   2.08904
   R19        2.66624  -0.01595   0.00000  -0.01091  -0.01090   2.65534
   R20        2.02986   0.00960   0.00000   0.00701   0.00701   2.03687
   R21        2.67920  -0.01665   0.00000  -0.01483  -0.01483   2.66437
   R22        2.87056  -0.00726   0.00000  -0.00545  -0.00545   2.86510
   R23        2.63793  -0.00718   0.00000  -0.00226  -0.00227   2.63566
   R24        3.32984  -0.00963   0.00000  -0.01022  -0.01022   3.31962
   R25        2.63089  -0.00689   0.00000  -0.00438  -0.00438   2.62651
   R26        2.04666  -0.00049   0.00000  -0.00016  -0.00016   2.04650
   R27        2.04676  -0.00571   0.00000  -0.00288  -0.00288   2.04388
   R28        2.61429  -0.03574   0.00000  -0.02361  -0.02361   2.59068
   R29        2.60776  -0.04758   0.00000  -0.03419  -0.03419   2.57357
   R30        2.61431  -0.03616   0.00000  -0.02493  -0.02493   2.58938
    A1        2.17579  -0.04037   0.00000  -0.04019  -0.04025   2.13553
    A2        2.05123   0.04148   0.00000   0.03882   0.03874   2.08997
    A3        2.05617  -0.00111   0.00000   0.00136   0.00132   2.05749
    A4        2.23678   0.01326   0.00000   0.00866   0.00857   2.24535
    A5        1.67856   0.03240   0.00000   0.07092   0.07080   1.74936
    A6        2.35097  -0.04527   0.00000  -0.08322  -0.08320   2.26777
    A7        2.11825   0.01212   0.00000   0.01507   0.01507   2.13332
    A8        2.08440  -0.03387   0.00000  -0.03645  -0.03646   2.04794
    A9        2.08054   0.02175   0.00000   0.02138   0.02137   2.10191
   A10        2.12692   0.00377   0.00000  -0.00139  -0.00143   2.12549
   A11        2.02469   0.00350   0.00000   0.00831   0.00826   2.03295
   A12        2.10560  -0.00718   0.00000  -0.01030  -0.01032   2.09528
   A13        1.93751   0.00704   0.00000   0.00608   0.00608   1.94359
   A14        1.90619  -0.00237   0.00000  -0.00120  -0.00123   1.90496
   A15        1.90620  -0.00655   0.00000  -0.01016  -0.01017   1.89604
   A16        1.90561   0.00064   0.00000   0.00387   0.00386   1.90947
   A17        1.90560   0.00192   0.00000   0.00334   0.00336   1.90895
   A18        1.90241  -0.00079   0.00000  -0.00206  -0.00209   1.90032
   A19        1.94141   0.00389   0.00000   0.00354   0.00353   1.94494
   A20        1.91063  -0.00051   0.00000  -0.00037  -0.00037   1.91026
   A21        1.91066  -0.00022   0.00000   0.00059   0.00058   1.91124
   A22        1.90109  -0.00116   0.00000  -0.00128  -0.00128   1.89981
   A23        1.90108  -0.00048   0.00000   0.00178   0.00178   1.90286
   A24        1.89844  -0.00164   0.00000  -0.00445  -0.00444   1.89399
   A25        1.92580   0.00120   0.00000   0.00140   0.00140   1.92720
   A26        1.91260   0.00520   0.00000   0.00663   0.00662   1.91922
   A27        1.92580   0.00175   0.00000   0.00179   0.00178   1.92758
   A28        1.89673  -0.00264   0.00000  -0.00264  -0.00265   1.89408
   A29        1.90570  -0.00251   0.00000  -0.00387  -0.00387   1.90184
   A30        1.89672  -0.00316   0.00000  -0.00349  -0.00350   1.89322
   A31        2.12307   0.00561   0.00000   0.00332   0.00334   2.12641
   A32        2.12993  -0.00684   0.00000  -0.00686  -0.00688   2.12306
   A33        2.03018   0.00123   0.00000   0.00354   0.00352   2.03370
   A34        2.07360   0.00304   0.00000   0.00252   0.00253   2.07613
   A35        2.03998  -0.01903   0.00000  -0.01311  -0.01313   2.02685
   A36        2.16960   0.01599   0.00000   0.01058   0.01056   2.18017
   A37        2.08773  -0.00459   0.00000  -0.00418  -0.00420   2.08353
   A38        2.16475   0.00762   0.00000   0.00137   0.00135   2.16610
   A39        2.03071  -0.00303   0.00000   0.00281   0.00278   2.03349
   A40        2.10910   0.00237   0.00000   0.00484   0.00484   2.11394
   A41        2.09545  -0.00339   0.00000  -0.00502  -0.00502   2.09043
   A42        2.07863   0.00102   0.00000   0.00018   0.00017   2.07880
   A43        2.11670  -0.00531   0.00000  -0.00787  -0.00786   2.10884
   A44        2.09945   0.00178   0.00000  -0.00078  -0.00078   2.09866
   A45        2.06704   0.00353   0.00000   0.00864   0.00864   2.07568
   A46        1.90486   0.01059   0.00000   0.00545   0.00543   1.91029
   A47        1.98678   0.01601   0.00000   0.00740   0.00736   1.99414
   A48        1.90485   0.01066   0.00000   0.00897   0.00893   1.91378
   A49        1.88381  -0.01209   0.00000  -0.00714  -0.00716   1.87666
   A50        1.89795  -0.01496   0.00000  -0.01281  -0.01282   1.88513
   A51        1.88380  -0.01209   0.00000  -0.00314  -0.00320   1.88060
    D1        2.94464   0.00118   0.00000   0.14505   0.14539   3.09004
    D2       -0.37161  -0.00203   0.00000   0.11770   0.11739  -0.25422
    D3       -0.19698   0.00040   0.00000   0.16683   0.16713  -0.02984
    D4        2.76995  -0.00280   0.00000   0.13947   0.13913   2.90908
    D5        3.14157  -0.00071   0.00000   0.01452   0.01406  -3.12755
    D6        0.00004  -0.00072   0.00000   0.02038   0.02001   0.02005
    D7        0.00001   0.00007   0.00000  -0.00731  -0.00729  -0.00729
    D8       -3.14153   0.00006   0.00000  -0.00146  -0.00134   3.14032
    D9       -3.14157   0.00050   0.00000  -0.01477  -0.01526   3.12635
   D10        0.00002   0.00031   0.00000  -0.01352  -0.01392  -0.01390
   D11       -0.00001  -0.00022   0.00000   0.00548   0.00552   0.00551
   D12        3.14159  -0.00042   0.00000   0.00673   0.00686  -3.13474
   D13        0.00008   0.00311   0.00000   0.02930   0.02955   0.02963
   D14       -3.14155   0.00356   0.00000   0.02446   0.02472  -3.11683
   D15       -2.89599  -0.00445   0.00000   0.04558   0.04532  -2.85067
   D16        0.24557  -0.00400   0.00000   0.04074   0.04049   0.28606
   D17       -2.89804  -0.00461   0.00000  -0.00884  -0.00889  -2.90693
   D18        0.48519  -0.00399   0.00000   0.00795   0.00800   0.49320
   D19        0.24351  -0.00417   0.00000  -0.01357  -0.01362   0.22989
   D20       -2.65644  -0.00355   0.00000   0.00322   0.00327  -2.65317
   D21       -2.43266  -0.00010   0.00000   0.03333   0.03330  -2.39936
   D22        1.74843  -0.00379   0.00000   0.02547   0.02545   1.77389
   D23       -0.33059   0.00246   0.00000   0.03471   0.03465  -0.29593
   D24        0.45628   0.00079   0.00000   0.01835   0.01839   0.47467
   D25       -1.64581  -0.00290   0.00000   0.01050   0.01054  -1.63527
   D26        2.55835   0.00335   0.00000   0.01973   0.01975   2.57810
   D27        2.07707  -0.00195   0.00000  -0.03101  -0.03102   2.04605
   D28       -0.02477  -0.00265   0.00000  -0.03143  -0.03143  -0.05620
   D29       -2.10428  -0.00021   0.00000  -0.02614  -0.02614  -2.13042
   D30       -2.10369  -0.00005   0.00000  -0.02616  -0.02615  -2.12985
   D31        2.07765  -0.00075   0.00000  -0.02657  -0.02656   2.05109
   D32       -0.00185   0.00169   0.00000  -0.02128  -0.02128  -0.02313
   D33       -0.02537   0.00051   0.00000  -0.02439  -0.02440  -0.04977
   D34       -2.12721  -0.00020   0.00000  -0.02480  -0.02481  -2.15202
   D35        2.07647   0.00224   0.00000  -0.01952  -0.01952   2.05695
   D36       -1.05370   0.00098   0.00000   0.00541   0.00541  -1.04829
   D37       -3.14157   0.00022   0.00000   0.00363   0.00363  -3.13794
   D38        1.05376  -0.00023   0.00000   0.00265   0.00265   1.05642
   D39        1.05376   0.00204   0.00000   0.00633   0.00634   1.06009
   D40       -1.03411   0.00128   0.00000   0.00456   0.00456  -1.02956
   D41       -3.12197   0.00083   0.00000   0.00358   0.00358  -3.11839
   D42        3.12200  -0.00088   0.00000   0.00127   0.00127   3.12327
   D43        1.03413  -0.00164   0.00000  -0.00051  -0.00051   1.03362
   D44       -1.05372  -0.00209   0.00000  -0.00148  -0.00149  -1.05521
   D45       -0.00000   0.00019   0.00000   0.00554   0.00548   0.00548
   D46       -3.14156   0.00012   0.00000  -0.00355  -0.00350   3.13813
   D47        3.14153   0.00019   0.00000   0.00001  -0.00018   3.14135
   D48       -0.00002   0.00013   0.00000  -0.00909  -0.00916  -0.00919
   D49        0.00000  -0.00029   0.00000  -0.00180  -0.00177  -0.00177
   D50        3.14157  -0.00003   0.00000  -0.01470  -0.01468   3.12689
   D51        3.14156  -0.00022   0.00000   0.00802   0.00806  -3.13357
   D52       -0.00006   0.00004   0.00000  -0.00488  -0.00485  -0.00491
   D53        1.03602  -0.00279   0.00000  -0.06830  -0.06833   0.96769
   D54       -3.14158   0.00000   0.00000  -0.06859  -0.06864   3.07297
   D55       -1.03602   0.00285   0.00000  -0.06124  -0.06126  -1.09727
   D56       -2.10553  -0.00286   0.00000  -0.07795  -0.07792  -2.18345
   D57        0.00006  -0.00007   0.00000  -0.07824  -0.07823  -0.07817
   D58        2.10562   0.00278   0.00000  -0.07089  -0.07084   2.03477
   D59       -0.00000   0.00015   0.00000   0.00005   0.00012   0.00011
   D60        3.14159   0.00037   0.00000  -0.00448  -0.00452   3.13707
   D61       -3.14158  -0.00010   0.00000   0.01198   0.01206  -3.12951
   D62        0.00002   0.00012   0.00000   0.00745   0.00743   0.00745
   D63        0.00001   0.00011   0.00000  -0.00198  -0.00206  -0.00206
   D64       -3.14159   0.00031   0.00000  -0.00320  -0.00339   3.13821
   D65       -3.14159  -0.00011   0.00000   0.00252   0.00254  -3.13905
   D66        0.00001   0.00009   0.00000   0.00129   0.00122   0.00122
         Item               Value     Threshold  Converged?
 Maximum Force            0.105346     0.000450     NO 
 RMS     Force            0.015837     0.000300     NO 
 Maximum Displacement     0.497023     0.001800     NO 
 RMS     Displacement     0.130684     0.001200     NO 
 Predicted change in Energy=-4.823681D-02
 GradGradGradGradGradGradGradGradGradGradGradGradGradGradGradGradGradGrad

                          Input orientation:                          
 ---------------------------------------------------------------------
 Center     Atomic      Atomic             Coordinates (Angstroms)
 Number     Number       Type             X           Y           Z
 ---------------------------------------------------------------------
      1          6           0       -6.198596    0.706094    0.874246
      2          7           0       -4.853559    0.238759    0.740141
      3          6           0       -3.748020    0.923129    0.299791
      4          8           0       -3.795865    2.097784   -0.020644
      5          7           0       -2.568917    0.235888    0.235920
      6          6           0       -1.295341    0.915033    0.065401
      7          6           0       -0.398996    0.178684   -0.941870
      8          6           0       -0.101941    1.046153   -2.162833
      9          6           0       -7.249887   -0.133388    1.285943
     10          6           0       -8.570526    0.333276    1.398045
     11          6           0       -8.847993    1.679076    1.082247
     12          6           0       -7.809153    2.513235    0.669621
     13          6           0       -6.506498    2.040094    0.564642
     14          1           0       -0.780111    0.971457    1.043622
     15          1           0       -1.488167    1.941758   -0.297223
     16          1           0       -0.903812   -0.747939   -1.275807
     17          1           0        0.555064   -0.097030   -0.454674
     18          1           0       -1.040545    1.319936   -2.679115
     19          1           0        0.540116    0.492559   -2.871799
     20          1           0        0.424850    1.970024   -1.861129
     21          1           0       -7.082047   -1.168034    1.537203
     22          6           0       -9.601818   -0.682827    1.848238
     23         17           0      -10.449294    2.397798    1.154103
     24          1           0       -8.015775    3.546923    0.421428
     25          1           0       -5.728733    2.717051    0.238117
     26          9           0       -9.209100   -1.234489    3.040248
     27          9           0      -10.851386   -0.170991    2.025167
     28          9           0       -9.690123   -1.690375    0.923789
[...]
 00057,-0.00000126,0.00000217,0.00000092,-0.00000619,-0.00000094,-0.000
 00233,0.00000941,0.00000452,-0.00000110,-0.00000463,0.00000025,0.00000
 071,0.00000426,0.00000969,-0.00011521,-0.00011324,0.00118013,-0.000033
 99,0.00017749,0.00028575,0.00059811,-0.00135647,-0.06308770,0.31474961
 ,0.00075446,0.00174870,0.00658874,-0.00009493,0.00007853,0.00003960,0.
 00006751,0.00007084,0.00003706,-0.00006785,-0.00001469,-0.00000376,-0.
 00003141,0.00000849,-0.00002963,0.00000615,0.00001130,0.00001309,-0.00
 000208,-0.00000471,0.00000475,0.00000251,0.00000251,-0.00000815,0.0001
 7038,-0.00058716,-0.00073605,0.00202248,0.00256561,0.00442175,-0.00297
 760,0.00839147,0.00013729,-0.01922691,0.09641721,-0.07328778,0.0002625
 3,0.00026765,0.00396428,-0.00000326,0.00000162,-0.00000318,0.00000098,
 -0.00000015,0.00000356,-0.00000002,0.00000127,-0.00000292,-0.00000396,
 0.00000028,-0.00000104,-0.00000346,-0.00000579,0.00000608,0.00000214,-
 0.00000129,-0.00000210,0.00000344,0.00000243,0.00000489,-0.00004431,-0
 .00011114,-0.00035879,-0.00050558,0.00035077,0.00061553,-0.00042254,-0
 .00123708,-0.00219012,0.02018597,-0.10623459,0.06523601,0.01342879,0.0
 0539325,-0.00305869,-0.00311099,-0.00220537,0.00050027,0.00132970,0.00
 813749,-0.00206247,-0.00813351,-0.00331715,0.00037954,0.00033490,-0.00
 146989,0.00043515,-0.00030233,-0.00009284,0.00003733,0.00001333,0.0000
 4797,0.00002074,-0.00000612,0.00001071,-0.00004044,-0.00032972,0.00231
 387,-0.00054592,0.00008503,0.00094623,-0.00044340,-0.00284258,0.002098
 07,-0.00002702,-0.01515126,-0.01676752,0.00812084,-0.21406242,-0.13837
 899,0.06967529,0.00005963,-0.00003089,-0.00000745,-0.00004665,-0.00000
 601,-0.00002023,-0.00000124,-0.00002423,0.00000361,0.00003190,0.000010
 22,-0.00002460,0.00002245,0.00005547,0.00005819,0.00004705,-0.00002702
 ,-0.00003607,-0.00006660,-0.00003271,0.00003700,0.00043852,0.00058562,
 -0.00022992,-0.00062608,-0.00032963,0.00015666,-0.00096473,-0.00025592
 ,0.00016815,0.00087495,0.00001039,-0.00034705,0.22824439,-0.02240332,-
 0.01150100,0.00846667,0.00029661,0.00127408,-0.00181213,0.00099479,-0.
 00401312,0.00105312,-0.00224430,0.00179238,-0.00103295,-0.00039620,0.0
 0071196,-0.00004515,0.00016226,0.00011443,0.00000215,-0.00003860,-0.00
 005956,0.00000402,0.00003726,0.00006422,0.00002095,0.00211923,-0.00355
 381,0.00355003,0.00114807,-0.00059008,-0.00008275,0.00282736,0.0013841
 0,0.00207968,0.00953073,0.01141228,-0.00379496,-0.13432868,-0.17537067
 ,0.06390939,-0.00003774,0.00003635,0.00000273,0.00004227,0.00001609,0.
 00001417,0.00000627,0.00000612,-0.00000072,-0.00003392,0.00000074,0.00
 001168,-0.00000843,-0.00008020,-0.00003088,-0.00003601,0.00000644,0.00
 001913,0.00002326,0.00001913,-0.00001615,-0.00097081,-0.00064499,0.000
 23303,0.00010458,-0.00036574,-0.00010253,0.00081117,0.00011484,-0.0001
 0458,-0.00044057,-0.00002679,-0.00166914,0.14331006,0.17905487,0.00790
 712,0.00599451,0.00226772,-0.00074852,-0.00183279,-0.00293422,-0.00001
 622,0.00273498,-0.00059702,0.00074630,-0.00147821,-0.00010901,0.000172
 65,-0.00043189,0.00035563,-0.00011380,0.00001158,0.00007198,-0.0000166
 1,-0.00002385,0.00007529,0.00001172,0.00001968,-0.00005945,-0.00026916
 ,0.00365445,0.00486030,-0.00057288,-0.00008248,-0.00051532,-0.00006817
 ,0.00207810,0.00686647,-0.00168956,-0.00095695,0.00423058,0.06734614,0
 .06284001,-0.06936124,0.00002678,0.00001703,-0.00002072,-0.00000554,-0
 .00002463,0.00002037,-0.00001050,0.00000601,-0.00003008,-0.00000583,0.
 00000629,-0.00002793,-0.00000433,-0.00007584,0.00003565,-0.00000524,0.
 00000293,-0.00001911,0.00005822,0.00002328,0.00002118,0.00031802,0.000
 10717,-0.00035978,-0.00002254,-0.00007278,-0.00060144,-0.00012814,0.00
 000316,0.00004260,-0.00032592,-0.00175098,-0.00386560,-0.07262519,-0.0
 7052445,0.05992763,0.00215891,-0.00114743,0.00027361,-0.00063717,-0.00
 020147,0.00007817,0.00098336,0.00046514,-0.00016164,-0.00026415,-0.000
 34167,0.00009671,-0.00042961,0.00004127,0.00000668,0.00017948,0.000080
 48,-0.00002928,-0.00002938,-0.00001986,-0.00000943,0.00001565,0.000012
 00,0.00000870,-0.00600157,-0.00137172,0.00108346,0.00899941,-0.0155710
 1,0.00593623,-0.00448178,-0.00032485,0.00067234,0.00053942,-0.00116385
 ,0.00037929,-0.00030512,-0.00043096,0.00020511,-0.00003789,0.00000564,
 0.00000429,0.00000378,-0.00000864,0.00001111,0.00001126,0.00000348,-0.
 00000055,-0.00002522,-0.00000627,0.00001947,-0.00001106,-0.00001410,-0
 .00002326,-0.00001606,0.00000536,0.00002026,0.00000972,0.00000157,-0.0
 0001219,-0.00158831,-0.00450352,0.00190973,-0.09356984,0.04828827,-0.0
 1704949,0.00136993,-0.00018502,-0.00003343,-0.00018301,-0.00016988,0.0
 0005951,0.00011833,-0.00018994,0.00006329,0.13997790,0.00135647,-0.000
 43034,0.00007545,-0.00214210,0.00013888,0.00021689,0.00173261,-0.00012
 842,-0.00011394,-0.00060916,0.00021810,-0.00000212,-0.00095566,0.00035
 833,-0.00021284,0.00021592,0.00015054,0.00000097,-0.00004225,-0.000079
 91,-0.00001697,0.00001124,0.00002097,0.00000776,0.00262530,-0.00255683
 ,0.00093829,0.01562303,-0.04098333,0.01775387,-0.00881743,0.00030761,0
 .00130112,0.00129925,-0.00216799,0.00056475,-0.00027526,0.00023847,-0.
 00001474,-0.00007974,-0.00000364,-0.00000292,0.00003022,-0.00000318,0.
 00001306,0.00000006,0.00004056,-0.00000031,-0.00003408,-0.00000184,0.0
 0002878,-0.00000229,-0.00004941,-0.00003133,-0.00002650,0.00000060,0.0
 0002581,0.00003152,0.00002722,-0.00001138,-0.00318832,-0.00069755,0.00
 034675,0.04011677,-0.24035743,0.06128870,-0.00015306,0.00037858,-0.000
 04099,-0.00061498,-0.00043574,0.00013009,0.00008178,0.00013139,-0.0000
 5825,-0.10945728,0.32775449,-0.00071138,0.00030579,0.00004616,0.000890
 75,0.00000941,0.00001993,-0.00075616,-0.00002294,0.00005908,0.00025682
 ,-0.00002607,0.00001434,0.00040123,-0.00014079,0.00012207,-0.00009195,
 -0.00006246,-0.00001220,0.00002067,0.00003000,0.00000201,-0.00001378,-
 0.00001160,0.00000174,-0.00048210,0.00131286,0.00007445,-0.00611091,0.
 02047630,0.00077406,0.00397205,0.00055336,0.00107114,-0.00059215,0.000
 76109,-0.00071728,0.00013810,-0.00002299,0.00005112,0.00003652,-0.0000
 0273,0.00000319,-0.00001222,0.00000419,-0.00000917,-0.00000347,-0.0000
 1208,0.00000031,0.00001821,0.00000176,-0.00000942,0.00000826,0.0000188
 0,0.00000580,0.00000756,-0.00000229,-0.00000667,-0.00001057,-0.0000078
 6,0.00000472,0.00135992,0.00048937,-0.00076576,-0.01390186,0.06061117,
 -0.09585119,-0.00003874,-0.00003924,0.00026570,0.00023410,0.00009074,-
 0.00029750,-0.00004579,-0.00004644,-0.00001180,0.03751318,-0.08585647,
 0.11217067,-0.00004271,-0.00206993,-0.00120219,-0.00132206,-0.00060610
 ,0.00003877,0.00163945,0.00032691,-0.00012543,-0.00059931,-0.00017470,
 0.00004374,-0.00089154,0.00019026,-0.00008580,0.00030099,0.00016346,-0
 .00003140,-0.00005279,-0.00005256,-0.00001214,0.00003288,0.00002788,0.
 00000833,0.00140648,-0.00313936,0.00223704,-0.02081184,0.00900463,0.03
 407572,-0.00610190,0.00285453,-0.00048895,0.00040093,-0.00068154,-0.00
 105951,-0.00097386,0.00022374,0.00033281,-0.00008040,0.00001000,0.0000
 0273,0.00002021,-0.00001279,0.00002142,0.00001576,0.00001669,-0.000001
 14,-0.00004799,-0.00000958,0.00003158,-0.00002049,-0.00004087,-0.00003
 235,-0.00002810,0.00000908,0.00003170,0.00002442,0.00001111,-0.0000191
 0,0.00049113,0.00065254,0.00082278,-0.14601413,0.03074017,0.09626016,0
 .00324706,-0.00012767,-0.00025883,-0.00016765,-0.00023685,0.00010850,0
 .00023848,0.00002021,0.00013634,-0.01886023,0.04033642,0.01778063,0.16
 645964,-0.00030230,-0.00071479,-0.00038987,-0.00068411,0.00000779,0.00
 002034,0.00050969,-0.00009166,-0.00006771,-0.00018315,0.00011800,0.000
 01239,-0.00031172,0.00011894,-0.00004753,0.00007117,0.00004913,-0.0000
 0171,-0.00001250,-0.00002560,-0.00000820,0.00000018,0.00000458,0.00000
 454,0.00056183,-0.00133718,0.00141987,-0.00954517,0.01150878,0.0086544
 1,0.00231588,-0.00032795,-0.00035465,0.00020131,0.00085418,-0.00038406
 ,-0.00059460,0.00049558,-0.00003170,-0.00002415,-0.00000297,-0.0000000
 8,0.00000989,0.00000039,0.00000204,-0.00000139,0.00001505,0.00000080,-
 0.00000939,-0.00000057,0.00001069,0.00000226,-0.00001595,-0.00001387,-
 0.00001053,-0.00000034,0.00001062,0.00001117,0.00001022,-0.00000396,-0
 .00067602,0.00013407,0.00016471,0.03062056,-0.09323548,-0.04482455,-0.
 00099451,-0.00217837,0.00276843,0.00012939,0.00008855,-0.00005148,0.00
 001530,0.00005771,-0.00004708,0.04954978,-0.04579335,-0.03383267,-0.07
 152581,0.13100549,0.00037690,0.00078357,0.00061266,0.00147474,0.000649
 51,-0.00000131,-0.00140305,-0.00045306,0.00012083,0.00047047,0.0002331
 6,-0.00000846,0.00076364,-0.00014414,0.00012869,-0.00022915,-0.0001369
 1,0.00000717,0.00004645,0.00004409,0.00000386,-0.00003262,-0.00002510,
 -0.00000084,0.00027018,0.00401507,-0.00252719,0.02304475,-0.00999631,-
 0.01630632,0.00240607,-0.00171498,0.00153364,-0.00022990,0.00034701,0.
 00044106,0.00063121,-0.00031900,-0.00014187,0.00007111,-0.00001085,0.0
 0000036,-0.00001677,0.00001306,-0.00002157,-0.00001412,-0.00001126,0.0
 0000216,0.00004112,0.00000718,-0.00002311,0.00002098,0.00003258,0.0000
 1681,0.00001710,-0.00000767,-0.00001874,-0.00001754,-0.00000709,0.0000
 1329,-0.00024748,-0.00041601,-0.00058100,0.09518896,-0.04188590,-0.197
 44789,-0.00172169,0.00244138,-0.00175625,0.00003875,0.00009914,-0.0001
 3844,-0.00015379,0.00000186,-0.00007453,0.01068345,-0.02028066,0.01204
 765,-0.13146288,0.10029557,0.27776407,0.00023867,-0.00074087,0.0024066
 3,-0.00149675,-0.00050986,0.00042482,0.00183048,0.00035227,-0.00019798
 ,-0.00065122,-0.00017010,0.00013350,-0.00099995,0.00021008,-0.00006581
 ,0.00034418,0.00017732,-0.00006466,-0.00005647,-0.00005799,-0.00002117
 ,0.00002524,0.00002448,0.00001822,0.00116418,-0.00436506,0.00043810,-0
 .02912359,-0.01533492,-0.02883969,-0.00654736,0.00312460,-0.00053818,0
 .00066265,0.00014635,0.00128875,-0.00106689,0.00000844,-0.00025778,-0.
 00008722,0.00000452,0.00000801,0.00002158,-0.00001128,0.00001890,0.000
 01456,0.00002282,-0.00000013,-0.00004811,-0.00000979,0.00003936,-0.000
 01406,-0.00004409,-0.00005033,-0.00003843,0.00000874,0.00004306,0.0000
 3008,0.00001548,-0.00002325,0.00037328,-0.00010813,-0.00117801,-0.1798
 8005,-0.04461559,-0.09653139,0.00356022,-0.00036868,-0.00021168,-0.000
 18564,-0.00026871,0.00010368,0.00023796,-0.00010573,-0.00017479,-0.028
 24999,0.02314343,-0.03990638,0.02154641,0.00097292,0.00014111,0.218193
 56,-0.00030367,-0.00028051,0.00114059,-0.00142654,-0.00022162,0.000373
 16,0.00124892,0.00020150,-0.00010626,-0.00041213,-0.00003099,0.0000671
 7,-0.00070626,0.00018224,-0.00008414,0.00019944,0.00011856,-0.00003363
 ,-0.00003415,-0.00004753,-0.00001497,0.00000982,0.00001529,0.00001158,
 -0.00001546,-0.00431334,0.00044846,-0.02421930,0.00176460,-0.01778532,
 0.00050565,0.00125778,0.00035357,0.00036197,0.00065442,0.00005728,-0.0
 0084055,0.00044678,-0.00027946,-0.00005998,-0.00000140,0.00000365,0.00
 001689,-0.00000526,0.00001092,0.00000512,0.00002211,-0.00000038,-0.000
 02775,-0.00000425,0.00002529,-0.00000417,-0.00003190,-0.00003164,-0.00
 002391,0.00000266,0.00002581,0.00002178,0.00001491,-0.00001208,-0.0004
 4720,-0.00003253,-0.00049287,-0.04340084,-0.09263304,-0.03414952,0.000
 01298,-0.00424459,-0.00028434,0.00006710,-0.00003318,-0.00005778,0.000
 09707,0.00001924,-0.00004586,0.03661745,0.00427140,0.03534370,-0.00586
 096,-0.00061875,-0.03357857,0.03860638,0.09369117,-0.00008263,0.000140
 50,-0.00014902,-0.00039759,-0.00025863,0.00026085,0.00041927,0.0002149
 5,-0.00011313,-0.00013384,-0.00012201,0.00009163,-0.00024098,0.0000134
 4,0.00006700,0.00010048,0.00004511,-0.00004081,-0.00001401,-0.00000979
 ,-0.00001296,-0.00000482,-0.00000059,0.00001514,-0.00084896,-0.0015041
 2,0.00075570,-0.00707852,-0.00144085,0.00163822,-0.00220857,0.00150771
 ,0.00023958,0.00000096,-0.00059945,0.00041167,0.00008058,-0.00013086,0
 .00004322,-0.00001670,-0.00000262,0.00000790,0.00000191,-0.00000163,0.
 00000111,0.00000275,0.00000539,0.00000068,-0.00000760,-0.00000287,0.00
 001557,0.00000304,-0.00000635,-0.00002650,-0.00001645,0.00000133,0.000
 01863,0.00000818,0.00000390,-0.00000790,0.00052127,-0.00006820,-0.0002
 8521,-0.09581740,-0.03711288,-0.16414780,0.00144029,-0.00000909,0.0003
 8425,-0.00010102,-0.00014364,-0.00000775,0.00005418,-0.00008138,-0.000
 03229,-0.04164203,0.02380157,-0.02884242,-0.01722671,-0.03332488,-0.07
 344405,0.16308244,0.04911216,0.26334902,-0.00086670,-0.00015854,0.0001
 2835,-0.00117675,-0.00137497,-0.00099078,0.01495886,0.02853604,0.00190
 339,-0.00606751,0.00561805,-0.00159402,-0.07659265,-0.04425052,0.00409
 238,0.00208072,-0.03287705,-0.00223274,0.00083757,-0.00083622,-0.00079
 568,0.00020373,0.00029678,0.00011764,0.00021617,0.00009683,-0.00005215
 ,-0.00006552,0.00004274,-0.00000223,-0.00005072,-0.00001523,0.00001410
 ,-0.00003364,-0.00012950,0.00010311,0.00032269,-0.00004739,-0.00006798
 ,0.00029166,0.00049165,-0.00083419,-0.00626443,-0.00158392,0.00139147,
 -0.00023939,0.00102231,0.00079429,-0.00000626,0.00050856,-0.00008860,-
 0.00002219,-0.00002068,0.00003198,0.00002437,-0.00004038,0.00003472,-0
 .00016271,0.00005517,-0.00014083,-0.00005678,-0.00004504,0.00004853,-0
 .00013637,0.00000191,0.00003316,0.00006248,-0.00003631,0.00000225,0.00
 003223,-0.00000840,-0.00000163,0.00021382,-0.00008784,0.00003153,0.000
 04616,-0.00001347,-0.00000595,0.00005013,-0.00000894,-0.00004548,0.000
 04956,0.00001509,0.00001567,0.07604065,0.00138852,-0.00014247,0.000384
 78,-0.00327987,0.00134123,0.00036214,-0.00731201,-0.01717550,-0.001582
 61,0.00334944,0.00091277,0.00035604,-0.03808361,-0.45024641,-0.0090580
 0,0.00069528,-0.00661418,-0.00215424,0.00021911,0.00118287,0.00035388,
 -0.00013148,-0.00019362,-0.00001889,-0.00027201,-0.00000246,-0.0000060
 3,-0.00000910,-0.00001020,-0.00001453,0.00003643,-0.00005955,0.0000289
 8,0.00012682,0.00003372,-0.00008612,-0.00027655,0.00005108,0.00007760,
 -0.00009754,0.00019330,-0.00003391,-0.00126123,0.00085749,0.00014436,-
 0.00022558,-0.00027605,0.00050401,0.00019974,0.00003835,-0.00014417,0.
 00009516,-0.00009043,0.00024964,0.00007170,0.00006196,-0.00003154,0.00
 005258,0.00002757,-0.00002314,0.00002423,0.00003565,0.00002129,0.00015
 942,0.00021907,-0.00008200,-0.00013478,0.00005454,-0.00000721,-0.00002
 739,0.00000958,-0.00000214,-0.00003545,0.00006723,-0.00002294,-0.00002
 433,-0.00010376,0.00003603,-0.00005689,-0.00003432,0.00004759,-0.00006
 969,-0.00006148,-0.00001609,0.04434201,0.46860923,-0.00055862,0.000262
 30,-0.00123358,0.00233874,-0.00031452,-0.00155571,-0.00556702,0.008784
 82,-0.00888651,-0.00122254,0.00093078,0.00632080,0.00609391,-0.0284232
 4,-0.00222146,0.00059565,0.00687362,-0.00136882,-0.00040929,0.00190991
 ,0.00064455,0.00036521,-0.00003049,-0.00034207,0.00014241,-0.00009036,
 -0.00003303,0.00003998,0.00001711,0.00003572,-0.00000115,0.00004488,-0
 .00000823,-0.00004096,0.00010500,-0.00006745,0.00000067,-0.00013388,0.
 00009880,-0.00017336,-0.00039084,-0.00016089,0.00046839,0.00000406,-0.
 00011347,0.00052225,-0.00067056,-0.00019688,-0.00019672,-0.00065072,-0
 .00001094,-0.00044401,0.00021569,-0.00039201,-0.00017487,-0.00006991,-
 0.00001032,-0.00012421,-0.00021667,0.00011857,0.00002945,0.00002320,0.
 00001904,-0.00004557,-0.00016849,0.00020674,0.00008404,-0.00002009,0.0
 0000805,-0.00001372,-0.00000126,0.00000209,-0.00009434,0.00008744,0.00
 010029,-0.00001494,0.00010407,-0.00006891,0.00003713,0.00002203,-0.000
 06854,0.00000610,0.00003001,-0.00005066,-0.00336199,0.01123858,0.00709
 274,0.00016192,0.03248851,-0.01293835,-0.07623397,0.02401244,-0.006311
 52,0.01573410,-0.02867712,0.01120013,-0.00733074,-0.00464940,0.0008812
 4,-0.00200340,0.00137281,-0.00159311,-0.00054941,0.00062486,0.00011401
 ,0.00016320,0.00000801,-0.00001168,0.00000276,-0.00005001,0.00003232,0
 .00098245,0.00300778,-0.00124408,-0.00069441,-0.00004301,-0.00004879,-
 0.00016575,-0.00076484,0.00033658,0.00117324,0.00149012,-0.00061538,-0
 .00643689,0.00040299,0.00069414,0.00002272,-0.00005868,-0.00001943,0.0
 0053403,0.00001095,-0.00008646,-0.00005110,0.00002878,0.00000895,0.000
 02700,0.00000196,-0.00006949,0.00001735,-0.00005436,0.00000614,-0.0000
 1937,0.00003962,-0.00002009,0.00004892,0.00006282,-0.00003464,-0.00123
 089,-0.00163590,0.00086913,-0.00049240,0.00034036,-0.00006241,-0.00004
 522,-0.00009505,0.00004342,-0.00042248,0.00006059,-0.00001768,-0.00007
 502,-0.00011203,-0.00001517,0.00027708,-0.00019241,0.00004540,0.000141
 01,-0.00008705,-0.00011251,0.00015311,-0.00000279,0.00010680,-0.003689
 20,0.00053706,0.00171937,0.08000136,0.00265961,-0.01111866,0.00355036,
 0.02474371,-0.39451764,0.14802567,0.00282986,-0.01578048,0.00406768,-0
 .00296176,0.00139321,0.00147238,0.00325822,0.00108317,-0.00099010,-0.0
 0099949,-0.00064482,-0.00060561,0.00029722,0.00022799,0.00002028,0.000
 03044,-0.00005794,-0.00000029,-0.00286314,0.00182635,-0.00083916,0.000
 12893,-0.00046503,-0.00025416,-0.00011671,0.00021362,-0.00001523,-0.00
 009034,-0.00045705,0.00059109,0.00053188,0.00217594,-0.00027816,0.0000
 6176,0.00004987,0.00003994,-0.00001603,0.00015036,0.00001247,-0.000006
 43,-0.00004447,0.00000581,0.00005463,-0.00003152,-0.00012254,-0.000035
 39,0.00001377,0.00005380,0.00000156,0.00001792,-0.00003187,0.00000020,
 0.00000602,-0.00000402,0.00021238,0.00035296,0.00028762,-0.00002917,0.
 00048973,-0.00004310,-0.00015441,0.00005861,-0.00000003,0.00013008,0.,
 -0.00007164,-0.00013988,-0.00007765,-0.00007019,0.00006136,-0.00024439
 ,0.00004207,0.00000798,-0.00009117,-0.00002329,-0.00003734,-0.00010230
 ,-0.00001014,0.00050726,0.00131477,0.00052753,-0.02806701,0.41425882,-
 0.00055512,-0.00110360,-0.00207021,-0.00551338,0.15795208,-0.06650156,
 -0.00484975,-0.00019825,-0.00518993,0.00061293,0.00094558,0.00519422,0
 .00026482,-0.00036720,-0.00130083,0.00002993,-0.00037969,-0.00106205,0
 .00018306,0.00013143,0.00005777,0.00019617,0.00000802,-0.00003080,0.00
 091746,-0.00127987,-0.00042432,-0.00029628,-0.00011162,-0.00075356,0.0
 0000146,-0.00014567,0.00021534,0.00027153,0.00052746,0.00093838,0.0003
 4754,-0.00006266,0.00149241,-0.00019376,-0.00001615,0.00004348,-0.0001
 8681,-0.00012913,0.00005619,0.00005059,-0.00006166,-0.00000829,-0.0000
 0418,-0.00003921,-0.00008333,-0.00007805,0.00007911,-0.00001799,-0.000
 02586,-0.00000538,-0.00001406,-0.00006537,-0.00003938,0.00001028,0.000
 12126,0.00039262,0.00080461,0.00006850,-0.00002681,0.00036703,0.000092
 08,-0.00002806,-0.00001067,-0.00001620,-0.00006767,-0.00014192,0.00011
 541,-0.00011183,-0.00025619,-0.00004838,0.00004500,-0.00014182,0.00003
 704,-0.00000243,-0.00013214,-0.00009146,-0.00004651,-0.00013967,0.0014
 7166,-0.00052136,0.00214209,0.00714314,-0.15533717,0.06695755\\-0.0000
 0154,-0.00000259,0.00000023,0.00000983,0.00000743,0.00000090,-0.000001
 16,-0.00000313,0.00000308,-0.00000042,0.00000142,-0.00000251,-0.000002
 87,0.00000835,0.00000334,0.00000037,-0.00000122,0.00000764,0.00000640,
 0.00000260,-0.00000465,-0.00000174,-0.00000115,-0.00000319,0.00000091,
 -0.00000020,-0.00000299,0.00000644,-0.00000071,0.00001261,0.00000082,0
 .00000159,0.00000332,-0.00000201,-0.00000207,-0.00000156,-0.00000104,-
 0.00000031,-0.00000131,-0.00000098,0.00000293,0.00000042,-0.00000300,-
 0.00000125,-0.00000155,-0.00000044,0.00000102,-0.00000063,-0.00000123,
 -0.00000102,-0.00000293,-0.00000015,-0.00000178,0.00000053,-0.00000061
 ,-0.00000135,-0.00000045,0.00000040,-0.00000178,-0.00000205,0.00000013
 ,-0.00000004,0.00000252,-0.00000458,-0.00000319,-0.00001640,-0.0000026
 9,-0.00001049,0.00000269,-0.00000049,-0.00000118,-0.00000187,-0.000001
 65,-0.00000093,-0.00000127,-0.00000026,0.00000522,0.00000196,0.0000032
 1,0.00000981,0.00000478,0.00000223,-0.00000314,0.00000269,-0.00000064,
 -0.00000268,-0.00000254,-0.00000326,-0.00000016,-0.00000081\\\@


 SI MONUMENTUM REQUIRIS, CIRCUMSPICE
     -- FROM SIR CHRISTOPHER WREN'S TOMBSTONE
 Job cpu time:       0 days  4 hours 30 minutes  6.9 seconds.
 File lengths (MBytes):  RWF=    581 Int=      0 D2E=      0 Chk=     16 Scr=      1
 Normal termination of Gaussian 09 at Thu Dec 12 20:29:03 2019.
pbs_rusage has been removed.
Please contact help@nci.org.au if you require this functionality.
