 Entering Gaussian System, Link 0=/apps/gaussian/g09e01/g09/g09
 Initial command:
 /apps/gaussian/g09e01/g09/l1.exe "/jobfs/local/3578922.r-man2/Gau-22465.inp" -scrdir="/jobfs/local/3578922.r-man2/"
 Entering Link 1 = /apps/gaussian/g09e01/g09/l1.exe PID=     22469.
  
 Copyright (c) 1988,1990,1992,1993,1995,1998,2003,2009,2015,
            Gaussian, Inc.  All Rights Reserved.
  
 This is part of the Gaussian(R) 09 program.  It is based on
 the Gaussian(R) 03 system (copyright 2003, Gaussian, Inc.),
 the Gaussian(R) 98 system (copyright 1998, Gaussian, Inc.),
 the Gaussian(R) 94 system (copyright 1995, Gaussian, Inc.),
 the Gaussian 92(TM) system (copyright 1992, Gaussian, Inc.),
 the Gaussian 90(TM) system (copyright 1990, Gaussian, Inc.),
 the Gaussian 88(TM) system (copyright 1988, Gaussian, Inc.),
 the Gaussian 86(TM) system (copyright 1986, Carnegie Mellon
 University), and the Gaussian 82(TM) system (copyright 1983,
 Carnegie Mellon University). Gaussian is a federally registered
 trademark of Gaussian, Inc.
  
 This software contains proprietary and confidential information,
 including trade secrets, belonging to Gaussian, Inc.
  
 This software is provided under written license and may be
 used, copied, transmitted, or stored only in accord with that
 written license.
  
 The following legend is applicable only to US Government
 contracts under FAR:
  
                    RESTRICTED RIGHTS LEGEND
  
 Use, reproduction and disclosure by the US Government is
 subject to restrictions as set forth in subparagraphs (a)
 and (c) of the Commercial Computer Software - Restricted
 Rights clause in FAR 52.227-19.
  
 Gaussian, Inc.
 340 Quinnipiac St., Bldg. 40, Wallingford CT 06492
  
  
 ---------------------------------------------------------------
 Warning -- This program may not be used in any manner that
 competes with the business of Gaussian, Inc. or will provide
 assistance to any competitor of Gaussian, Inc.  The licensee
 of this program is prohibited from giving any competitor of
 Gaussian, Inc. access to this program.  By using this program,
 the user acknowledges that Gaussian, Inc. is engaged in the
 business of creating and licensing software in the field of
 computational chemistry and represents and warrants to the
 licensee that it is not a competitor of Gaussian, Inc. and that
 it will not use this program in any manner prohibited above.
 ---------------------------------------------------------------
  

 Cite this work as:
 Gaussian 09, Revision E.01,
 M. J. Frisch, G. W. Trucks, H. B. Schlegel, G. E. Scuseria, 
 M. A. Robb, J. R. Cheeseman, G. Scalmani, V. Barone, B. Mennucci, 
 G. A. Petersson, H. Nakatsuji, M. Caricato, X. Li, H. P. Hratchian, 
 A. F. Izmaylov, J. Bloino, G. Zheng, J. L. Sonnenberg, M. Hada, 
 M. Ehara, K. Toyota, R. Fukuda, J. Hasegawa, M. Ishida, T. Nakajima, 
 Y. Honda, O. Kitao, H. Nakai, T. Vreven, J. A. Montgomery, Jr., 
 J. E. Peralta, F. Ogliaro, M. Bearpark, J. J. Heyd, E. Brothers, 
 K. N. Kudin, V. N. Staroverov, T. Keith, R. Kobayashi, J. Normand, 
 K. Raghavachari, A. Rendell, J. C. Burant, S. S. Iyengar, J. Tomasi, 
 M. Cossi, N. Rega, J. M. Millam, M. Klene, J. E. Knox, J. B. Cross, 
 V. Bakken, C. Adamo, J. Jaramillo, R. Gomperts, R. E. Stratmann, 
 O. Yazyev, A. J. Austin, R. Cammi, C. Pomelli, J. W. Ochterski, 
 R. L. Martin, K. Morokuma, V. G. Zakrzewski, G. A. Voth, 
 P. Salvador, J. J. Dannenberg, S. Dapprich, A. D. Daniels, 
 O. Farkas, J. B. Foresman, J. V. Ortiz, J. Cioslowski, 
 and D. J. Fox, Gaussian, Inc., Wallingford CT, 2013.
 
 ******************************************
 Gaussian 09:  ES64L-G09RevE.01 30-Nov-2015
                14-Nov-2019 
 ******************************************
 %chk=29_c2.M062X_6-311pGd_opt_water_GD3.chk
 %mem=196608000
 %nproc=4
 Will use up to    4 processors via shared memory.
 ----------------------------------------------------------------------
 # M062X/6-311+G* SCF=Tight INT(grid=ultrafine) OPT IOP(2/17=4) Empiric
 alDispersion=GD3 SCRF=(SMD,Solvent=h2o) maxdisk=2147483648
 ----------------------------------------------------------------------
 1/14=-1,18=20,19=15,26=4,38=1/1,3;
 2/9=110,12=2,17=4,18=5,40=1/2;
 3/5=4,6=6,7=11,11=2,16=1,25=1,30=1,70=32201,71=1,72=1,74=-55,75=-5,124=31/1,2,3;
 4//1;
 5/5=2,32=2,38=5,53=1/2;
 6/7=2,8=2,9=2,10=2,28=1/1;
 7//1,2,3,16;
 1/14=-1,18=20,19=15,26=4/3(2);
 2/9=110,17=4/2;
 99//99;
 2/9=110,17=4/2;
 3/5=4,6=6,7=11,11=2,16=1,25=1,30=1,70=32205,71=1,72=1,74=-55,75=-5,124=31/1,2,3;
 4/5=5,16=3,69=1/1;
 5/5=2,32=2,38=5,53=1/2;
 7//1,2,3,16;
 1/14=-1,18=20,19=15,26=4/3(-5);
 2/9=110,17=4/2;
 6/7=2,8=2,9=2,10=2,19=2,28=1/1;
 99/9=1/99;
 ----------------------------------
 29_c2.M062X_6-311pGd_opt_water_GD3
 ----------------------------------
 Symbolic Z-matrix:
 Charge =  0 Multiplicity = 1
 C                    -6.22814   1.43144   0.15315 
 N                    -4.98215   0.8149    0.31063 
 C                    -3.75655   1.38575   0.01825 
 O                    -3.6385    2.54326  -0.39225 
 N                    -2.69886   0.57579   0.21841 
 C                    -1.34254   1.01189  -0.0897 
 C                    -0.35654  -0.11788   0.15661 
 C                     1.06906   0.32052  -0.15493 
 C                    -7.32878   0.61271  -0.11248 
 C                    -8.60174   1.15105  -0.23357 
 C                    -8.78494   2.5279   -0.10327 
 C                    -7.69835   3.34546   0.16498 
 C                    -6.42647   2.80568   0.30367 
 H                    -5.00191  -0.19096   0.42816 
 H                    -2.83889  -0.36463   0.5626 
 H                    -1.08726   1.87643   0.52996 
 H                    -1.29369   1.33299  -1.13406 
 H                    -0.62999  -0.97623  -0.4649 
 H                    -0.43043  -0.44066   1.19984 
 H                     1.16502   0.63042  -1.19872 
 H                     1.77708  -0.49181   0.01888 
 H                     1.3666    1.16391   0.47347 
 H                    -7.18077  -0.45516  -0.22268 
 C                    -9.76113   0.23674  -0.5147 
 Cl                   -10.36241   3.25622  -0.26174 
 H                    -7.84515   4.4123    0.28139 
 H                    -5.59782   3.45689   0.53923 
 F                    -9.38621  -1.04559  -0.59781 
 F                    -10.70185   0.29956   0.44319 
 F                    -10.37294   0.53352  -1.67417 
 

 GradGradGradGradGradGradGradGradGradGradGradGradGradGradGradGradGradGrad
 Berny optimization.
 Initialization pass.
                           ----------------------------
                           !    Initial Parameters    !
                           ! (Angstroms and Degrees)  !
 --------------------------                            --------------------------
 ! Name  Definition              Value          Derivative Info.                !
 --------------------------------------------------------------------------------
 ! R1    R(1,2)                  1.3991         estimate D2E/DX2                !
 ! R2    R(1,9)                  1.3973         estimate D2E/DX2                !
 ! R3    R(1,13)                 1.3966         estimate D2E/DX2                !
 ! R4    R(2,3)                  1.3833         estimate D2E/DX2                !
 ! R5    R(2,14)                 1.0129         estimate D2E/DX2                !
 ! R6    R(3,4)                  1.2338         estimate D2E/DX2                !
 ! R7    R(3,5)                  1.3471         estimate D2E/DX2                !
 ! R8    R(5,6)                  1.4576         estimate D2E/DX2                !
 ! R9    R(5,15)                 1.0112         estimate D2E/DX2                !
 ! R10   R(6,7)                  1.5196         estimate D2E/DX2                !
 ! R11   R(6,16)                 1.0939         estimate D2E/DX2                !
 ! R12   R(6,17)                 1.0937         estimate D2E/DX2                !
 ! R13   R(7,8)                  1.5237         estimate D2E/DX2                !
 ! R14   R(7,18)                 1.0944         estimate D2E/DX2                !
 ! R15   R(7,19)                 1.0945         estimate D2E/DX2                !
 ! R16   R(8,20)                 1.093          estimate D2E/DX2                !
 ! R17   R(8,21)                 1.0915         estimate D2E/DX2                !
 ! R18   R(8,22)                 1.093          estimate D2E/DX2                !
 ! R19   R(9,10)                 1.3874         estimate D2E/DX2                !
 ! R20   R(9,23)                 1.0837         estimate D2E/DX2                !
 ! R21   R(10,11)                1.3951         estimate D2E/DX2                !
 ! R22   R(10,24)                1.5031         estimate D2E/DX2                !
 ! R23   R(11,12)                1.386          estimate D2E/DX2                !
 ! R24   R(11,25)                1.7447         estimate D2E/DX2                !
 ! R25   R(12,13)                1.3886         estimate D2E/DX2                !
 ! R26   R(12,26)                1.0832         estimate D2E/DX2                !
 ! R27   R(13,27)                1.0799         estimate D2E/DX2                !
 ! R28   R(24,28)                1.3386         estimate D2E/DX2                !
 ! R29   R(24,29)                1.344          estimate D2E/DX2                !
 ! R30   R(24,30)                1.3441         estimate D2E/DX2                !
 ! A1    A(2,1,9)              117.6913         estimate D2E/DX2                !
 ! A2    A(2,1,13)             123.2274         estimate D2E/DX2                !
 ! A3    A(9,1,13)             119.0253         estimate D2E/DX2                !
 ! A4    A(1,2,3)              125.6906         estimate D2E/DX2                !
 ! A5    A(1,2,14)             115.6776         estimate D2E/DX2                !
 ! A6    A(3,2,14)             116.8482         estimate D2E/DX2                !
 ! A7    A(2,3,4)              122.8376         estimate D2E/DX2                !
 ! A8    A(2,3,5)              114.5895         estimate D2E/DX2                !
 ! A9    A(4,3,5)              122.573          estimate D2E/DX2                !
 ! A10   A(3,5,6)              121.2836         estimate D2E/DX2                !
 ! A11   A(3,5,15)             120.067          estimate D2E/DX2                !
 ! A12   A(6,5,15)             118.6241         estimate D2E/DX2                !
 ! A13   A(5,6,7)              110.3076         estimate D2E/DX2                !
 ! A14   A(5,6,16)             109.504          estimate D2E/DX2                !
 ! A15   A(5,6,17)             109.3438         estimate D2E/DX2                !
 ! A16   A(7,6,16)             110.1416         estimate D2E/DX2                !
 ! A17   A(7,6,17)             110.1245         estimate D2E/DX2                !
 ! A18   A(16,6,17)            107.365          estimate D2E/DX2                !
 ! A19   A(6,7,8)              111.1026         estimate D2E/DX2                !
 ! A20   A(6,7,18)             109.2035         estimate D2E/DX2                !
 ! A21   A(6,7,19)             109.2651         estimate D2E/DX2                !
 ! A22   A(8,7,18)             110.0788         estimate D2E/DX2                !
 ! A23   A(8,7,19)             110.0533         estimate D2E/DX2                !
 ! A24   A(18,7,19)            107.0433         estimate D2E/DX2                !
 ! A25   A(7,8,20)             111.0371         estimate D2E/DX2                !
 ! A26   A(7,8,21)             111.1144         estimate D2E/DX2                !
 ! A27   A(7,8,22)             111.0483         estimate D2E/DX2                !
 ! A28   A(20,8,21)            107.8253         estimate D2E/DX2                !
 ! A29   A(20,8,22)            107.8384         estimate D2E/DX2                !
 ! A30   A(21,8,22)            107.8256         estimate D2E/DX2                !
 ! A31   A(1,9,10)             120.7954         estimate D2E/DX2                !
 ! A32   A(1,9,23)             119.2843         estimate D2E/DX2                !
 ! A33   A(10,9,23)            119.9203         estimate D2E/DX2                !
 ! A34   A(9,10,11)            119.688          estimate D2E/DX2                !
 ! A35   A(9,10,24)            119.2103         estimate D2E/DX2                !
 ! A36   A(11,10,24)           121.0999         estimate D2E/DX2                !
 ! A37   A(10,11,12)           119.8207         estimate D2E/DX2                !
 ! A38   A(10,11,25)           121.4822         estimate D2E/DX2                !
 ! A39   A(12,11,25)           118.6962         estimate D2E/DX2                !
 ! A40   A(11,12,13)           120.5374         estimate D2E/DX2                !
 ! A41   A(11,12,26)           119.7044         estimate D2E/DX2                !
 ! A42   A(13,12,26)           119.7523         estimate D2E/DX2                !
 ! A43   A(1,13,12)            120.1187         estimate D2E/DX2                !
 ! A44   A(1,13,27)            120.5236         estimate D2E/DX2                !
 ! A45   A(12,13,27)           119.3542         estimate D2E/DX2                !
 ! A46   A(10,24,28)           112.2281         estimate D2E/DX2                !
 ! A47   A(10,24,29)           112.2188         estimate D2E/DX2                !
 ! A48   A(10,24,30)           112.2176         estimate D2E/DX2                !
 ! A49   A(28,24,29)           106.5622         estimate D2E/DX2                !
 ! A50   A(28,24,30)           106.5855         estimate D2E/DX2                !
 ! A51   A(29,24,30)           106.6116         estimate D2E/DX2                !
 ! D1    D(9,1,2,3)            150.9122         estimate D2E/DX2                !
 ! D2    D(9,1,2,14)           -13.318          estimate D2E/DX2                !
 ! D3    D(13,1,2,3)           -31.841          estimate D2E/DX2                !
 ! D4    D(13,1,2,14)          163.9287         estimate D2E/DX2                !
 ! D5    D(2,1,9,10)           177.7202         estimate D2E/DX2                !
 ! D6    D(2,1,9,23)            -2.1782         estimate D2E/DX2                !
 ! D7    D(13,1,9,10)            0.354          estimate D2E/DX2                !
 ! D8    D(13,1,9,23)         -179.5444         estimate D2E/DX2                !
 ! D9    D(2,1,13,12)         -178.4038         estimate D2E/DX2                !
 ! D10   D(2,1,13,27)            0.9113         estimate D2E/DX2                !
 ! D11   D(9,1,13,12)           -1.1919         estimate D2E/DX2                !
 ! D12   D(9,1,13,27)          178.1232         estimate D2E/DX2                !
 ! D13   D(1,2,3,4)              1.8849         estimate D2E/DX2                !
 ! D14   D(1,2,3,5)           -178.1482         estimate D2E/DX2                !
 ! D15   D(14,2,3,4)           165.9511         estimate D2E/DX2                !
 ! D16   D(14,2,3,5)           -14.0819         estimate D2E/DX2                !
 ! D17   D(2,3,5,6)            177.7242         estimate D2E/DX2                !
 ! D18   D(2,3,5,15)            -0.4179         estimate D2E/DX2                !
 ! D19   D(4,3,5,6)             -2.3087         estimate D2E/DX2                !
 ! D20   D(4,3,5,15)           179.5492         estimate D2E/DX2                !
 ! D21   D(3,5,6,7)           -176.8678         estimate D2E/DX2                !
 ! D22   D(3,5,6,16)            61.7603         estimate D2E/DX2                !
 ! D23   D(3,5,6,17)           -55.6211         estimate D2E/DX2                !
 ! D24   D(15,5,6,7)             1.3004         estimate D2E/DX2                !
 ! D25   D(15,5,6,16)         -120.0714         estimate D2E/DX2                !
 ! D26   D(15,5,6,17)          122.5472         estimate D2E/DX2                !
 ! D27   D(5,6,7,8)           -179.7786         estimate D2E/DX2                !
 ! D28   D(5,6,7,18)            58.6143         estimate D2E/DX2                !
 ! D29   D(5,6,7,19)           -58.1622         estimate D2E/DX2                !
 ! D30   D(16,6,7,8)           -58.7866         estimate D2E/DX2                !
 ! D31   D(16,6,7,18)          179.6063         estimate D2E/DX2                !
 ! D32   D(16,6,7,19)           62.8298         estimate D2E/DX2                !
 ! D33   D(17,6,7,8)            59.4405         estimate D2E/DX2                !
 ! D34   D(17,6,7,18)          -62.1667         estimate D2E/DX2                !
 ! D35   D(17,6,7,19)         -178.9432         estimate D2E/DX2                !
 ! D36   D(6,7,8,20)           -59.8125         estimate D2E/DX2                !
 ! D37   D(6,7,8,21)          -179.819          estimate D2E/DX2                !
 ! D38   D(6,7,8,22)            60.1665         estimate D2E/DX2                !
 ! D39   D(18,7,8,20)           61.2819         estimate D2E/DX2                !
 ! D40   D(18,7,8,21)          -58.7246         estimate D2E/DX2                !
 ! D41   D(18,7,8,22)         -178.7391         estimate D2E/DX2                !
 ! D42   D(19,7,8,20)          179.0327         estimate D2E/DX2                !
 ! D43   D(19,7,8,21)           59.0262         estimate D2E/DX2                !
 ! D44   D(19,7,8,22)          -60.9883         estimate D2E/DX2                !
 ! D45   D(1,9,10,11)            0.7016         estimate D2E/DX2                !
 ! D46   D(1,9,10,24)         -179.7784         estimate D2E/DX2                !
 ! D47   D(23,9,10,11)        -179.4006         estimate D2E/DX2                !
 ! D48   D(23,9,10,24)           0.1194         estimate D2E/DX2                !
 ! D49   D(9,10,11,12)          -0.9239         estimate D2E/DX2                !
 ! D50   D(9,10,11,25)         179.4178         estimate D2E/DX2                !
 ! D51   D(24,10,11,12)        179.5654         estimate D2E/DX2                !
 ! D52   D(24,10,11,25)         -0.0929         estimate D2E/DX2                !
 ! D53   D(9,10,24,28)           0.8143         estimate D2E/DX2                !
 ! D54   D(9,10,24,29)         120.7858         estimate D2E/DX2                !
 ! D55   D(9,10,24,30)        -119.1864         estimate D2E/DX2                !
 ! D56   D(11,10,24,28)       -179.6726         estimate D2E/DX2                !
 ! D57   D(11,10,24,29)        -59.7012         estimate D2E/DX2                !
 ! D58   D(11,10,24,30)         60.3266         estimate D2E/DX2                !
 ! D59   D(10,11,12,13)          0.0875         estimate D2E/DX2                !
 ! D60   D(10,11,12,26)       -179.0305         estimate D2E/DX2                !
 ! D61   D(25,11,12,13)        179.7553         estimate D2E/DX2                !
 ! D62   D(25,11,12,26)          0.6373         estimate D2E/DX2                !
 ! D63   D(11,12,13,1)           0.9799         estimate D2E/DX2                !
 ! D64   D(11,12,13,27)       -178.3432         estimate D2E/DX2                !
 ! D65   D(26,12,13,1)        -179.9025         estimate D2E/DX2                !
 ! D66   D(26,12,13,27)          0.7744         estimate D2E/DX2                !
 --------------------------------------------------------------------------------
 Trust Radius=3.00D-01 FncErr=1.00D-07 GrdErr=1.00D-06
 Number of steps in this run=    157 maximum allowed number of steps=    180.
 GradGradGradGradGradGradGradGradGradGradGradGradGradGradGradGradGradGrad

                          Input orientation:                          
 ---------------------------------------------------------------------
 Center     Atomic      Atomic             Coordinates (Angstroms)
 Number     Number       Type             X           Y           Z
 ---------------------------------------------------------------------
      1          6           0       -6.228135    1.431443    0.153146
      2          7           0       -4.982152    0.814897    0.310632
      3          6           0       -3.756550    1.385751    0.018254
      4          8           0       -3.638502    2.543258   -0.392245
      5          7           0       -2.698857    0.575790    0.218406
      6          6           0       -1.342544    1.011888   -0.089699
      7          6           0       -0.356542   -0.117875    0.156605
      8          6           0        1.069057    0.320517   -0.154929
      9          6           0       -7.328784    0.612710   -0.112482
     10          6           0       -8.601745    1.151050   -0.233567
     11          6           0       -8.784935    2.527898   -0.103273
     12          6           0       -7.698351    3.345455    0.164978
     13          6           0       -6.426471    2.805681    0.303671
     14          1           0       -5.001913   -0.190963    0.428165
     15          1           0       -2.838894   -0.364629    0.562595
     16          1           0       -1.087257    1.876434    0.529958
     17          1           0       -1.293694    1.332986   -1.134057
     18          1           0       -0.629985   -0.976235   -0.464895
     19          1           0       -0.430428   -0.440665    1.199842
     20          1           0        1.165023    0.630420   -1.198715
     21          1           0        1.777085   -0.491807    0.018879
     22          1           0        1.366601    1.163913    0.473469
     23          1           0       -7.180768   -0.455165   -0.222675
     24          6           0       -9.761132    0.236740   -0.514704
     25         17           0      -10.362411    3.256218   -0.261736
     26          1           0       -7.845148    4.412297    0.281386
     27          1           0       -5.597820    3.456886    0.539230
     28          9           0       -9.386206   -1.045588   -0.597807
     29          9           0      -10.701846    0.299556    0.443195
     30          9           0      -10.372935    0.533520   -1.674165
 ---------------------------------------------------------------------
                    Distance matrix (angstroms):
                    1          2          3          4          5
     1  C    0.000000
     2  N    1.399074   0.000000
     3  C    2.475685   1.383278   0.000000
     4  O    2.870502   2.299275   1.233801   0.000000
     5  N    3.632108   2.297632   1.347150   2.264234   0.000000
     6  C    4.909583   3.666853   2.445169   2.776337   1.457633
     7  C    6.072562   4.721235   3.720227   4.260766   2.443652
     8  C    7.387698   6.089194   4.944815   5.211334   3.794959
     9  C    1.397251   2.393029   3.657259   4.174142   4.641883
    10  C    2.421196   3.675678   4.857408   5.157247   5.948049
    11  C    2.793777   4.191283   5.157899   5.154563   6.399574
    12  C    2.413528   3.715196   4.404516   4.175691   5.715666
    13  C    1.396612   2.459538   3.037456   2.885470   4.344512
    14  H    2.052184   1.012896   2.050605   3.163530   2.436386
    15  H    3.857523   2.459333   2.049934   3.163368   1.011170
    16  H    5.173841   4.042916   2.761836   2.793557   2.094277
    17  H    5.100519   3.995030   2.719607   2.741015   2.092124
    18  H    6.125208   4.769795   3.948141   4.630689   2.675054
    19  H    6.181728   4.804718   3.974296   4.661573   2.672483
    20  H    7.558304   6.332450   5.125761   5.232895   4.115919
    21  H    8.234104   6.890564   5.843487   6.221673   4.605825
    22  H    7.606194   6.360423   5.148117   5.263374   4.115688
    23  H    2.146635   2.594492   3.895162   4.644022   4.620059
    24  C    3.788853   4.884066   6.136716   6.543823   7.108315
    25  Cl   4.538079   5.935895   6.871276   6.762862   8.132975
    26  H    3.393621   4.597705   5.093706   4.652199   6.419272
    27  H    2.156102   2.722390   2.819803   2.353995   4.099710
    28  F    4.083262   4.866453   6.163114   6.779246   6.929337
    29  F    4.623785   5.744393   7.042552   7.458082   8.010910
    30  F    4.617867   5.751447   6.882378   7.143876   7.904118
                    6          7          8          9         10
     6  C    0.000000
     7  C    1.519615   0.000000
     8  C    2.509595   1.523670   0.000000
     9  C    5.999577   7.015578   8.403030   0.000000
    10  C    7.261960   8.351394   9.706718   1.387408   0.000000
    11  C    7.595239   8.837730  10.098334   2.405910   1.395079
    12  C    6.775447   8.117690   9.280088   2.771544   2.406319
    13  C    5.405437   6.738906   7.910075   2.407587   2.785363
    14  H    3.886645   4.653876   6.120317   2.520420   3.898420
    15  H    2.135263   2.527407   4.031916   4.644355   6.011789
    16  H    1.093887   2.156527   2.745841   6.400499   7.587930
    17  H    1.093697   2.156168   2.750705   6.163175   7.365567
    18  H    2.145027   1.094448   2.159719   6.893682   8.253957
    19  H    2.145875   1.094529   2.159458   7.100641   8.447403
    20  H    2.768272   2.170714   1.093041   8.563001   9.828139
    21  H    3.464819   2.170519   1.091505   9.173552  10.511080
    22  H    2.771234   2.170853   1.093039   8.732518   9.993397
    23  H    6.021195   6.843076   8.286488   1.083701   2.144579
    24  C    8.464875   9.435186  10.836487   2.493883   1.503057
    25  Cl   9.296484  10.567731  11.802889   4.026574   2.744535
    26  H    7.347404   8.753128   9.818150   3.854688   3.387233
    27  H    4.947822   6.355810   7.400399   3.392683   3.864927
    28  F    8.318165   9.108492  10.553431   2.686723   2.360778
    29  F    9.401485  10.357688  11.786108   3.432840   2.365053
    30  F    9.180813  10.203145  11.544376   3.422277   2.365118
                   11         12         13         14         15
    11  C    0.000000
    12  C    1.386010   0.000000
    13  C    2.409382   1.388622   0.000000
    14  H    4.688911   4.454918   3.320352   0.000000
    15  H    6.645713   6.126757   4.794644   2.174140   0.000000
    16  H    7.751105   6.782167   5.424197   4.428208   2.844585
    17  H    7.655653   6.837920   5.530035   4.302771   2.854499
    18  H    8.883295   8.308763   6.963679   4.530779   2.511787
    19  H    8.961487   8.260045   6.877093   4.642877   2.492503
    20  H   10.188331   9.369657   8.038639   6.430592   4.485944
    21  H   10.985891  10.223982   8.846065   6.798002   4.649630
    22  H   10.258985   9.328861   7.965940   6.511199   4.475552
    23  H    3.389140   3.855240   3.388085   2.289281   4.413244
    24  C    2.524211   3.792248   4.288259   4.870534   7.031330
    25  Cl   1.744703   2.699493   4.001786   6.410457   8.390075
    26  H    2.140589   1.083167   2.143444   5.412534   6.925365
    27  H    3.381351   2.136519   1.079916   3.697869   4.713406
    28  F    3.657307   4.765706   4.940139   4.583124   6.684126
    29  F    2.989763   4.286711   4.957718   5.721020   7.891858
    30  F    2.994493   4.294512   4.964790   5.813136   7.910218
                   16         17         18         19         20
    16  H    0.000000
    17  H    1.762640   0.000000
    18  H    3.055577   2.494150   0.000000
    19  H    2.499823   3.055838   1.760116   0.000000
    20  H    3.100586   2.557943   2.518310   3.073396   0.000000
    21  H    3.751563   3.753507   2.502537   2.504077   1.765375
    22  H    2.555836   3.112859   3.073616   2.516267   1.766762
    23  H    6.567624   6.219786   6.575937   6.898612   8.472508
    24  C    8.889096   8.560541   9.211495   9.511077  10.954621
    25  Cl   9.410582   9.311358  10.614850  10.698010  11.859784
    26  H    7.222290   7.376122   9.036137   8.909145   9.883141
    27  H    4.779444   5.082946   6.733514   6.506093   7.532955
    28  F    8.870323   8.451859   8.757504   9.154421  10.700399
    29  F    9.743428   9.595260  10.192873  10.325815  11.984487
    30  F    9.637707   9.130360   9.933115  10.395306  11.548157
                   21         22         23         24         25
    21  H    0.000000
    22  H    1.765377   0.000000
    23  H    8.961184   8.727173   0.000000
    24  C   11.573502  11.209932   2.687432   0.000000
    25  Cl  12.708021  11.936833   4.888633   3.089138   0.000000
    26  H   10.803078   9.769606   4.938386   4.662620   2.822785
    27  H    8.381656   7.332476   4.288399   5.367801   4.835612
    28  F   11.194018  11.029614   2.313716   1.338597   4.423964
    29  F   12.511195  12.099398   3.662100   1.344046   3.058430
    30  F   12.310186  11.951001   3.643384   1.344147   3.067271
                   26         27         28         29         30
    26  H    0.000000
    27  H    2.455560   0.000000
    28  F    5.739020   5.993079   0.000000
    29  F    5.010144   6.002419   2.150351   0.000000
    30  F    5.025813   6.020541   2.150759   2.155490   0.000000
 Stoichiometry    C11H12ClF3N2O
 Framework group  C1[X(C11H12ClF3N2O)]
 Deg. of freedom    84
 Full point group                 C1      NOp   1
 Largest Abelian subgroup         C1      NOp   1
 Largest concise Abelian subgroup C1      NOp   1
                         Standard orientation:                         
 ---------------------------------------------------------------------
 Center     Atomic      Atomic             Coordinates (Angstroms)
 Number     Number       Type             X           Y           Z
 ---------------------------------------------------------------------
      1          6           0        0.131083   -0.208878   -0.280065
      2          7           0        1.431349    0.284676   -0.432115
      3          6           0        2.589421   -0.353412   -0.025701
      4          8           0        2.589265   -1.470658    0.497776
      5          7           0        3.720839    0.343235   -0.247939
      6          6           0        5.020029   -0.170403    0.167965
      7          6           0        6.109756    0.844755   -0.133995
      8          6           0        7.477565    0.323485    0.289027
      9          6           0       -0.904691    0.719698   -0.148812
     10          6           0       -2.223493    0.302339   -0.041705
     11          6           0       -2.519665   -1.060912   -0.050364
     12          6           0       -1.497677   -1.987425   -0.185046
     13          6           0       -0.179083   -1.570287   -0.309850
     14          1           0        1.503823    1.272286   -0.645025
     15          1           0        3.677493    1.253520   -0.686079
     16          1           0        5.225354   -1.109787   -0.353559
     17          1           0        4.996731   -0.390066    1.239123
     18          1           0        5.885745    1.779676    0.389030
     19          1           0        6.108233    1.068264   -1.205460
     20          1           0        7.502160    0.110995    1.360932
     21          1           0        8.260039    1.053805    0.075134
     22          1           0        7.727153   -0.599256   -0.241056
     23          1           0       -0.669461    1.777439   -0.132711
     24          6           0       -3.310103    1.332057    0.092977
     25         17           0       -4.159608   -1.637977    0.096513
     26          1           0       -1.731342   -3.044852   -0.207362
     27          1           0        0.599211   -2.307405   -0.440749
     28          9           0       -2.829289    2.581166    0.073313
     29          9           0       -4.211440    1.252784   -0.900888
     30          9           0       -3.993728    1.202137    1.242981
 ---------------------------------------------------------------------
 Rotational constants (GHZ):      0.9397084      0.1291566      0.1168842
 Standard basis: 6-311+G(d) (5D, 7F)
 There are   458 symmetry adapted cartesian basis functions of A   symmetry.
 There are   440 symmetry adapted basis functions of A   symmetry.
   440 basis functions,   725 primitive gaussians,   458 cartesian basis functions
    72 alpha electrons       72 beta electrons
       nuclear repulsion energy      1432.0423096803 Hartrees.
 NAtoms=   30 NActive=   30 NUniq=   30 SFac= 1.00D+00 NAtFMM=   60 NAOKFM=F Big=F
 Integral buffers will be    131072 words long.
 Raffenetti 2 integral format.
 Two-electron integral symmetry is turned on.
 Nuclear repulsion after empirical dispersion term =     1432.0410151250 Hartrees.
 ------------------------------------------------------------------------------
 Polarizable Continuum Model (PCM)
 =================================
 Model                : PCM (using non-symmetric T matrix).
 Atomic radii         : SMD-Coulomb.
 Polarization charges : Total charges.
 Charge compensation  : None.
 Solution method      : On-the-fly selection.
 Cavity type          : VdW (van der Waals Surface) (Alpha=1.000).
 Cavity algorithm     : GePol (No added spheres)
                        Default sphere list used, NSphG=   30.
                        Lebedev-Laikov grids with approx.  5.0 points / Ang**2.
                        Smoothing algorithm: York/Karplus (Gamma=1.0000).
                        Polarization charges: spherical gaussians, with
                                              point-specific exponents (IZeta= 3).
                        Self-potential: point-specific (ISelfS= 7).
                        Self-field    : sphere-specific E.n sum rule (ISelfD= 2).
 1st derivatives      : Analytical E(r).r(x)/FMM algorithm (CHGder, D1EAlg=3).
                        Cavity 1st derivative terms included.
 Solvent              : Water, Eps=  78.355300 Eps(inf)=   1.777849
 ------------------------------------------------------------------------------
 ------------------------------------------------------------------------------
 Atomic radii for non-electrostatic terms: SMD-CDS.
 ------------------------------------------------------------------------------
 Nuclear repulsion after PCM non-electrostatic terms =     1432.0517441521 Hartrees.
 One-electron integrals computed using PRISM.
 NBasis=   440 RedAO= T EigKep=  1.41D-06  NBF=   440
 NBsUse=   439 1.00D-06 EigRej=  9.70D-07 NBFU=   439
 ExpMin= 4.38D-02 ExpMax= 1.06D+05 ExpMxC= 3.62D+03 IAcc=3 IRadAn=         5 AccDes= 0.00D+00
 Harris functional with IExCor= 1009 and IRadAn=       5 diagonalized for initial guess.
 HarFok:  IExCor= 1009 AccDes= 0.00D+00 IRadAn=         5 IDoV= 1 UseB2=F ITyADJ=14
 ICtDFT=  3500011 ScaDFX=  1.000000  1.000000  1.000000  1.000000
 FoFCou: FMM=F IPFlag=           0 FMFlag=      100000 FMFlg1=           0
         NFxFlg=           0 DoJE=T BraDBF=F KetDBF=T FulRan=T
         wScrn=  0.000000 ICntrl=     500 IOpCl=  0 I1Cent=   200000004 NGrid=           0
         NMat0=    1 NMatS0=      1 NMatT0=    0 NMatD0=    1 NMtDS0=    0 NMtDT0=    0
 Petite list used in FoFCou.
 Requested convergence on RMS density matrix=1.00D-08 within 128 cycles.
 Requested convergence on MAX density matrix=1.00D-06.
 Requested convergence on             energy=1.00D-06.
 No special actions if energy rises.
 Inv3:  Mode=1 IEnd=    16921875.
 Iteration    1 A*A^-1 deviation from unit magnitude is 5.11D-15 for   2369.
 Iteration    1 A*A^-1 deviation from orthogonality  is 4.04D-15 for   1823    507.
 Iteration    1 A^-1*A deviation from unit magnitude is 5.11D-15 for   2369.
 Iteration    1 A^-1*A deviation from orthogonality  is 1.59D-09 for   1728   1161.
 Iteration    2 A*A^-1 deviation from unit magnitude is 3.33D-15 for   1099.
 Iteration    2 A*A^-1 deviation from orthogonality  is 2.47D-15 for    961     91.
 Iteration    2 A^-1*A deviation from unit magnitude is 1.44D-15 for    250.
 Iteration    2 A^-1*A deviation from orthogonality  is 5.65D-16 for   2343    147.
 Error on total polarization charges =  0.04511
 SCF Done:  E(RM062X) =  -1370.81464218     A.U. after   15 cycles
            NFock= 15  Conv=0.61D-08     -V/T= 2.0029
 SMD-CDS (non-electrostatic) energy       (kcal/mol) =       6.73
 (included in total energy above)

 **********************************************************************

            Population analysis using the SCF density.

 **********************************************************************

 Orbital symmetries:
       Occupied  (A) (A) (A) (A) (A) (A) (A) (A) (A) (A) (A) (A)
                 (A) (A) (A) (A) (A) (A) (A) (A) (A) (A) (A) (A)
                 (A) (A) (A) (A) (A) (A) (A) (A) (A) (A) (A) (A)
                 (A) (A) (A) (A) (A) (A) (A) (A) (A) (A) (A) (A)
                 (A) (A) (A) (A) (A) (A) (A) (A) (A) (A) (A) (A)
                 (A) (A) (A) (A) (A) (A) (A) (A) (A) (A) (A) (A)
       Virtual   (A) (A) (A) (A) (A) (A) (A) (A) (A) (A) (A) (A)
                 (A) (A) (A) (A) (A) (A) (A) (A) (A) (A) (A) (A)
                 (A) (A) (A) (A) (A) (A) (A) (A) (A) (A) (A) (A)
                 (A) (A) (A) (A) (A) (A) (A) (A) (A) (A) (A) (A)
                 (A) (A) (A) (A) (A) (A) (A) (A) (A) (A) (A) (A)
                 (A) (A) (A) (A) (A) (A) (A) (A) (A) (A) (A) (A)
                 (A) (A) (A) (A) (A) (A) (A) (A) (A) (A) (A) (A)
                 (A) (A) (A) (A) (A) (A) (A) (A) (A) (A) (A) (A)
                 (A) (A) (A) (A) (A) (A) (A) (A) (A) (A) (A) (A)
                 (A) (A) (A) (A) (A) (A) (A) (A) (A) (A) (A) (A)
                 (A) (A) (A) (A) (A) (A) (A) (A) (A) (A) (A) (A)
                 (A) (A) (A) (A) (A) (A) (A) (A) (A) (A) (A) (A)
                 (A) (A) (A) (A) (A) (A) (A) (A) (A) (A) (A) (A)
                 (A) (A) (A) (A) (A) (A) (A) (A) (A) (A) (A) (A)
                 (A) (A) (A) (A) (A) (A) (A) (A) (A) (A) (A) (A)
                 (A) (A) (A) (A) (A) (A) (A) (A) (A) (A) (A) (A)
                 (A) (A) (A) (A) (A) (A) (A) (A) (A) (A) (A) (A)
                 (A) (A) (A) (A) (A) (A) (A) (A) (A) (A) (A) (A)
                 (A) (A) (A) (A) (A) (A) (A) (A) (A) (A) (A) (A)
                 (A) (A) (A) (A) (A) (A) (A) (A) (A) (A) (A) (A)
                 (A) (A) (A) (A) (A) (A) (A) (A) (A) (A) (A) (A)
                 (A) (A) (A) (A) (A) (A) (A) (A) (A) (A) (A) (A)
                 (A) (A) (A) (A) (A) (A) (A) (A) (A) (A) (A) (A)
                 (A) (A) (A) (A) (A) (A) (A) (A) (A) (A) (A) (A)
                 (A) (A) (A) (A) (A) (A) (A) (A) (A) (A) (A) (A)
                 (A) (A) (A) (A) (A) (A) (A) (A) (A) (A) (A) (A)
                 (A) (A) (A) (A) (A) (A) (A) (A) (A) (A) (A) (A)
                 (A) (A) (A) (A) (A) (A) (A) (A) (A) (A) (A) (A)
                 (A) (A) (A) (A) (A) (A) (A) (A) (A) (A) (A) (A)
                 (A) (A) (A) (A) (A) (A) (A) (A) (A) (A) (A) (A)
                 (A) (A) (A) (A) (A) (A) (A)
 The electronic state is 1-A.
 Alpha  occ. eigenvalues -- -102.68864 -25.28888 -25.28512 -25.28507 -19.59996
 Alpha  occ. eigenvalues --  -14.78726 -14.77056 -10.81519 -10.68504 -10.62330
 Alpha  occ. eigenvalues --  -10.61057 -10.59120 -10.56978 -10.56643 -10.56616
 Alpha  occ. eigenvalues --  -10.56075 -10.53051 -10.51749  -9.83142  -7.55656
 Alpha  occ. eigenvalues --   -7.54977  -7.54967  -1.48127  -1.38730  -1.38384
 Alpha  occ. eigenvalues --   -1.18757  -1.06730  -1.03642  -1.01375  -0.94984
 Alpha  occ. eigenvalues --   -0.90413  -0.88234  -0.84767  -0.81727  -0.77806
 Alpha  occ. eigenvalues --   -0.74597  -0.72441  -0.70454  -0.70023  -0.69612
 Alpha  occ. eigenvalues --   -0.68657  -0.65100  -0.63985  -0.59951  -0.58681
 Alpha  occ. eigenvalues --   -0.58585  -0.57330  -0.56415  -0.55730  -0.54454
 Alpha  occ. eigenvalues --   -0.54412  -0.53364  -0.52357  -0.52304  -0.51611
 Alpha  occ. eigenvalues --   -0.51283  -0.49356  -0.48610  -0.46774  -0.45994
 Alpha  occ. eigenvalues --   -0.45883  -0.44248  -0.42666  -0.42094  -0.39985
 Alpha  occ. eigenvalues --   -0.39286  -0.39052  -0.37345  -0.36634  -0.33703
 Alpha  occ. eigenvalues --   -0.32872  -0.28081
 Alpha virt. eigenvalues --   -0.01188  -0.00057   0.01156   0.01951   0.02742
 Alpha virt. eigenvalues --    0.03083   0.03657   0.03847   0.04318   0.04953
 Alpha virt. eigenvalues --    0.05306   0.05790   0.06346   0.06634   0.07065
 Alpha virt. eigenvalues --    0.07225   0.07784   0.08034   0.08414   0.08771
 Alpha virt. eigenvalues --    0.08964   0.09448   0.09859   0.10605   0.11227
 Alpha virt. eigenvalues --    0.11426   0.12418   0.12511   0.13280   0.13308
 Alpha virt. eigenvalues --    0.13816   0.14440   0.15022   0.15588   0.16224
 Alpha virt. eigenvalues --    0.16845   0.17211   0.17643   0.18330   0.18738
 Alpha virt. eigenvalues --    0.19043   0.19447   0.19558   0.20097   0.20369
 Alpha virt. eigenvalues --    0.20773   0.21246   0.21491   0.21749   0.22322
 Alpha virt. eigenvalues --    0.22887   0.22975   0.23010   0.23826   0.23999
 Alpha virt. eigenvalues --    0.24514   0.24741   0.25318   0.25514   0.26015
 Alpha virt. eigenvalues --    0.26607   0.27114   0.27418   0.27511   0.27769
 Alpha virt. eigenvalues --    0.27977   0.28387   0.28743   0.29177   0.30042
 Alpha virt. eigenvalues --    0.30169   0.30670   0.30984   0.31183   0.31464
 Alpha virt. eigenvalues --    0.32311   0.32466   0.32763   0.32844   0.33642
 Alpha virt. eigenvalues --    0.34005   0.34540   0.35857   0.36029   0.36545
 Alpha virt. eigenvalues --    0.37105   0.37305   0.37942   0.38432   0.39030
 Alpha virt. eigenvalues --    0.40429   0.41388   0.41601   0.42869   0.43580
 Alpha virt. eigenvalues --    0.43826   0.44582   0.44773   0.45361   0.47034
 Alpha virt. eigenvalues --    0.47629   0.48444   0.48868   0.49557   0.50039
 Alpha virt. eigenvalues --    0.50307   0.51875   0.52215   0.54064   0.55692
 Alpha virt. eigenvalues --    0.56353   0.57682   0.58775   0.59492   0.60446
 Alpha virt. eigenvalues --    0.61012   0.61899   0.62659   0.63984   0.64137
 Alpha virt. eigenvalues --    0.65327   0.65696   0.67378   0.68234   0.68684
 Alpha virt. eigenvalues --    0.69079   0.69674   0.70309   0.71120   0.71694
 Alpha virt. eigenvalues --    0.71861   0.72291   0.73159   0.73473   0.73545
 Alpha virt. eigenvalues --    0.74652   0.75796   0.76248   0.77911   0.78080
 Alpha virt. eigenvalues --    0.78811   0.79189   0.79572   0.79843   0.81633
 Alpha virt. eigenvalues --    0.83409   0.84537   0.86036   0.87673   0.89431
 Alpha virt. eigenvalues --    0.90372   0.91807   0.92775   0.93617   0.94054
 Alpha virt. eigenvalues --    0.94409   0.95118   0.95353   0.96076   0.96697
 Alpha virt. eigenvalues --    0.97664   0.98209   1.01166   1.03344   1.03646
 Alpha virt. eigenvalues --    1.04185   1.04521   1.07235   1.08592   1.09860
 Alpha virt. eigenvalues --    1.10869   1.11587   1.11871   1.15036   1.18805
 Alpha virt. eigenvalues --    1.20562   1.21974   1.22855   1.23148   1.25989
 Alpha virt. eigenvalues --    1.26409   1.29302   1.30018   1.32303   1.33736
 Alpha virt. eigenvalues --    1.34862   1.35204   1.38312   1.38612   1.41318
 Alpha virt. eigenvalues --    1.43793   1.45044   1.46532   1.47088   1.48315
 Alpha virt. eigenvalues --    1.49503   1.50180   1.52644   1.53008   1.53032
 Alpha virt. eigenvalues --    1.53762   1.55714   1.56171   1.57547   1.57907
 Alpha virt. eigenvalues --    1.58522   1.61254   1.61567   1.62094   1.63672
 Alpha virt. eigenvalues --    1.63901   1.66944   1.68624   1.73030   1.73850
 Alpha virt. eigenvalues --    1.75302   1.77811   1.78369   1.79883   1.80309
 Alpha virt. eigenvalues --    1.81210   1.82756   1.84804   1.85342   1.86446
 Alpha virt. eigenvalues --    1.86852   1.90423   1.92204   1.93661   1.96003
 Alpha virt. eigenvalues --    1.96930   1.97532   1.98137   1.99977   2.04937
 Alpha virt. eigenvalues --    2.07498   2.08436   2.08490   2.11326   2.13421
 Alpha virt. eigenvalues --    2.15301   2.18860   2.22732   2.25542   2.26900
 Alpha virt. eigenvalues --    2.27982   2.31300   2.31538   2.34332   2.35061
 Alpha virt. eigenvalues --    2.37088   2.38411   2.41611   2.47615   2.49755
 Alpha virt. eigenvalues --    2.52458   2.55740   2.56316   2.57413   2.58005
 Alpha virt. eigenvalues --    2.58947   2.60663   2.60960   2.63747   2.65616
 Alpha virt. eigenvalues --    2.67898   2.72076   2.72846   2.77495   2.81360
 Alpha virt. eigenvalues --    2.82806   2.83587   2.87850   2.88862   2.91663
 Alpha virt. eigenvalues --    2.94400   2.95104   2.98464   3.00318   3.00955
 Alpha virt. eigenvalues --    3.03342   3.03672   3.07051   3.09982   3.12773
 Alpha virt. eigenvalues --    3.13554   3.18430   3.19908   3.24134   3.25825
 Alpha virt. eigenvalues --    3.27263   3.29960   3.30444   3.34950   3.38920
 Alpha virt. eigenvalues --    3.39459   3.40262   3.41277   3.44325   3.52351
 Alpha virt. eigenvalues --    3.56554   3.65220   3.67414   3.69420   3.75527
 Alpha virt. eigenvalues --    3.79567   3.80337   3.82372   3.83334   3.83634
 Alpha virt. eigenvalues --    3.85921   3.86373   3.87701   3.96019   3.98913
 Alpha virt. eigenvalues --    3.99998   4.00067   4.01862   4.03982   4.06642
 Alpha virt. eigenvalues --    4.06825   4.11449   4.22168   4.26774   4.30912
 Alpha virt. eigenvalues --    4.54678   4.58297   4.76029   4.81176   4.90038
 Alpha virt. eigenvalues --    4.97575   5.01520   5.19291   5.20473   5.39587
 Alpha virt. eigenvalues --    5.87643   6.44149   6.48142   6.49976   6.52123
 Alpha virt. eigenvalues --    6.54902   6.57025   6.62764   6.86299   6.90542
 Alpha virt. eigenvalues --    9.99717  23.43519  23.59393  23.65037  23.74515
 Alpha virt. eigenvalues --   23.82257  23.92318  23.93933  23.95357  24.08252
 Alpha virt. eigenvalues --   24.12494  24.19821  25.95409  26.30032  26.80087
 Alpha virt. eigenvalues --   35.60321  35.70024  50.12802  66.88086  66.90810
 Alpha virt. eigenvalues --   66.96478 216.10667
          Condensed to atoms (all electrons):
               1          2          3          4          5          6
     1  C   19.656067   0.110084  -0.632087  -0.217038  -0.293636  -0.460497
     2  N    0.110084   7.617788   0.326683  -0.138638  -0.446145  -0.347710
     3  C   -0.632087   0.326683   7.393871   0.660873   0.285594  -0.910834
     4  O   -0.217038  -0.138638   0.660873   8.323804  -0.180822  -0.084584
     5  N   -0.293636  -0.446145   0.285594  -0.180822   7.553609   0.434212
     6  C   -0.460497  -0.347710  -0.910834  -0.084584   0.434212   8.002656
     7  C   -0.008592   0.020720   0.173248   0.013197  -0.108895  -0.860687
     8  C   -0.014261  -0.011812  -0.214874  -0.002564   0.001078   0.375496
     9  C   -3.815920   0.077132  -0.960917  -0.111516  -0.142463  -0.033843
    10  C   -0.884482   0.043559  -0.250068  -0.007754   0.037559  -0.001734
    11  C   -1.156725   0.006440   0.426737   0.023604   0.004438   0.011539
    12  C   -2.752418   0.050612  -0.670064  -0.035644  -0.018361  -0.043047
    13  C    0.198058  -0.291927   0.469691   0.299211   0.069965  -0.076030
    14  H   -0.004094   0.255789  -0.037188   0.000199   0.050196   0.009785
    15  H   -0.001573   0.052771   0.016453  -0.002092   0.270403  -0.055708
    16  H    0.009731  -0.002332   0.014397  -0.000475  -0.057748   0.415435
    17  H    0.002540   0.014678   0.084138   0.002787  -0.058573   0.300161
    18  H    0.000229  -0.001813   0.001175  -0.000170   0.007144  -0.071898
    19  H   -0.000210  -0.000111   0.004925  -0.000063   0.007577  -0.071367
    20  H   -0.000126  -0.000052  -0.003437  -0.000036  -0.000195  -0.044040
    21  H    0.000096   0.000004   0.005090   0.000018  -0.001416   0.083515
    22  H    0.000022  -0.000025   0.001203  -0.000049   0.000267  -0.051101
    23  H    0.059454  -0.011925   0.006365  -0.000071  -0.000769  -0.000317
    24  C   -3.479268   0.004866  -0.269395  -0.002123   0.001654  -0.006719
    25  Cl   0.321534   0.000424  -0.004566  -0.000028   0.000583   0.000110
    26  H   -0.016500  -0.000647   0.004188   0.000014   0.000087   0.000060
    27  H    0.018222  -0.011212   0.020887  -0.009217  -0.002116   0.001750
    28  F    0.186665   0.000331   0.001588  -0.000003   0.000013   0.000013
    29  F   -0.007758   0.000716  -0.000163  -0.000001   0.000006   0.000001
    30  F    0.019149   0.000335   0.000473   0.000000  -0.000008  -0.000004
               7          8          9         10         11         12
     1  C   -0.008592  -0.014261  -3.815920  -0.884482  -1.156725  -2.752418
     2  N    0.020720  -0.011812   0.077132   0.043559   0.006440   0.050612
     3  C    0.173248  -0.214874  -0.960917  -0.250068   0.426737  -0.670064
     4  O    0.013197  -0.002564  -0.111516  -0.007754   0.023604  -0.035644
     5  N   -0.108895   0.001078  -0.142463   0.037559   0.004438  -0.018361
     6  C   -0.860687   0.375496  -0.033843  -0.001734   0.011539  -0.043047
     7  C    6.375045  -0.216946   0.007348  -0.003057  -0.000688   0.002743
     8  C   -0.216946   6.111520   0.001162  -0.000155   0.000054  -0.000496
     9  C    0.007348   0.001162  22.478851  -0.794703  -8.967809   4.825778
    10  C   -0.003057  -0.000155  -0.794703  35.394475 -13.847210  -5.642391
    11  C   -0.000688   0.000054  -8.967809 -13.847210  39.592123  -7.083779
    12  C    0.002743  -0.000496   4.825778  -5.642391  -7.083779  20.255726
    13  C    0.000367  -0.005252  -7.778572  -2.563204   1.326070  -3.952224
    14  H   -0.001561  -0.000051  -0.073114   0.019291  -0.006141  -0.005233
    15  H   -0.014932   0.003003  -0.002435  -0.002641   0.000149   0.001134
    16  H   -0.037982  -0.012528   0.001127   0.000176  -0.000008  -0.001838
    17  H    0.000376  -0.026067  -0.000259   0.000026  -0.000028   0.001588
    18  H    0.460868  -0.050333   0.000837   0.000046   0.000007  -0.000051
    19  H    0.454306  -0.048074  -0.000733  -0.000029   0.000001   0.000094
    20  H    0.007557   0.385241  -0.000035  -0.000001   0.000000   0.000002
    21  H   -0.122624   0.385042  -0.000005   0.000000   0.000000  -0.000000
    22  H    0.022774   0.372217   0.000029  -0.000000  -0.000000   0.000001
    23  H    0.000023  -0.000001   0.260173   0.041953  -0.032282  -0.054361
    24  C   -0.000067  -0.000040   1.169355  -4.963454  -3.198088   1.215332
    25  Cl  -0.000017   0.000001   0.210556   0.387595  -1.504484   0.290398
    26  H   -0.000002   0.000000  -0.053040   0.085002   0.047830   0.202648
    27  H    0.000003   0.000002   0.067065  -0.002005  -0.030764   0.030221
    28  F    0.000000  -0.000000   0.119536  -0.273508  -0.200901  -0.025451
    29  F    0.000000   0.000000   0.053121   0.175526  -0.174379   0.060471
    30  F    0.000000  -0.000000  -0.003738   0.175567  -0.127791   0.035486
              13         14         15         16         17         18
     1  C    0.198058  -0.004094  -0.001573   0.009731   0.002540   0.000229
     2  N   -0.291927   0.255789   0.052771  -0.002332   0.014678  -0.001813
     3  C    0.469691  -0.037188   0.016453   0.014397   0.084138   0.001175
     4  O    0.299211   0.000199  -0.002092  -0.000475   0.002787  -0.000170
     5  N    0.069965   0.050196   0.270403  -0.057748  -0.058573   0.007144
     6  C   -0.076030   0.009785  -0.055708   0.415435   0.300161  -0.071898
     7  C    0.000367  -0.001561  -0.014932  -0.037982   0.000376   0.460868
     8  C   -0.005252  -0.000051   0.003003  -0.012528  -0.026067  -0.050333
     9  C   -7.778572  -0.073114  -0.002435   0.001127  -0.000259   0.000837
    10  C   -2.563204   0.019291  -0.002641   0.000176   0.000026   0.000046
    11  C    1.326070  -0.006141   0.000149  -0.000008  -0.000028   0.000007
    12  C   -3.952224  -0.005233   0.001134  -0.001838   0.001588  -0.000051
    13  C   17.395425   0.074638   0.002698  -0.007449   0.006749  -0.000924
    14  H    0.074638   0.278185   0.001659   0.000137  -0.000064   0.000015
    15  H    0.002698   0.001659   0.277695   0.001537   0.002382  -0.001393
    16  H   -0.007449   0.000137   0.001537   0.444185  -0.043965   0.005795
    17  H    0.006749  -0.000064   0.002382  -0.043965   0.436727  -0.008347
    18  H   -0.000924   0.000015  -0.001393   0.005795  -0.008347   0.436554
    19  H    0.001133   0.000022  -0.000558  -0.007873   0.005154  -0.041249
    20  H    0.000044   0.000000  -0.000017  -0.000578   0.003406  -0.008189
    21  H    0.000008   0.000000  -0.000035  -0.000024  -0.000070  -0.003186
    22  H   -0.000038  -0.000000  -0.000032   0.003521  -0.000402   0.005883
    23  H    0.029780   0.003121   0.000014  -0.000000   0.000000  -0.000000
    24  C    0.094259   0.005237  -0.000169  -0.000003   0.000021  -0.000001
    25  Cl  -0.177414   0.000173  -0.000002   0.000000   0.000000   0.000000
    26  H    0.052771   0.000003   0.000000  -0.000000  -0.000000   0.000000
    27  H    0.237916  -0.000165   0.000026   0.000011  -0.000004   0.000000
    28  F    0.014653   0.000099  -0.000000  -0.000000   0.000000   0.000000
    29  F   -0.005070  -0.000012   0.000000   0.000000  -0.000000   0.000000
    30  F    0.010784  -0.000001  -0.000000  -0.000000   0.000000  -0.000000
              19         20         21         22         23         24
     1  C   -0.000210  -0.000126   0.000096   0.000022   0.059454  -3.479268
     2  N   -0.000111  -0.000052   0.000004  -0.000025  -0.011925   0.004866
     3  C    0.004925  -0.003437   0.005090   0.001203   0.006365  -0.269395
     4  O   -0.000063  -0.000036   0.000018  -0.000049  -0.000071  -0.002123
     5  N    0.007577  -0.000195  -0.001416   0.000267  -0.000769   0.001654
     6  C   -0.071367  -0.044040   0.083515  -0.051101  -0.000317  -0.006719
     7  C    0.454306   0.007557  -0.122624   0.022774   0.000023  -0.000067
     8  C   -0.048074   0.385241   0.385042   0.372217  -0.000001  -0.000040
     9  C   -0.000733  -0.000035  -0.000005   0.000029   0.260173   1.169355
    10  C   -0.000029  -0.000001   0.000000  -0.000000   0.041953  -4.963454
    11  C    0.000001   0.000000   0.000000  -0.000000  -0.032282  -3.198088
    12  C    0.000094   0.000002  -0.000000   0.000001  -0.054361   1.215332
    13  C    0.001133   0.000044   0.000008  -0.000038   0.029780   0.094259
    14  H    0.000022   0.000000   0.000000  -0.000000   0.003121   0.005237
    15  H   -0.000558  -0.000017  -0.000035  -0.000032   0.000014  -0.000169
    16  H   -0.007873  -0.000578  -0.000024   0.003521  -0.000000  -0.000003
    17  H    0.005154   0.003406  -0.000070  -0.000402   0.000000   0.000021
    18  H   -0.041249  -0.008189  -0.003186   0.005883  -0.000000  -0.000001
    19  H    0.435595   0.005903  -0.003133  -0.008355  -0.000000   0.000000
    20  H    0.005903   0.445545  -0.024260  -0.036475  -0.000000  -0.000000
    21  H   -0.003133  -0.024260   0.425310  -0.024428   0.000000   0.000000
    22  H   -0.008355  -0.036475  -0.024428   0.445423   0.000000   0.000000
    23  H   -0.000000  -0.000000   0.000000   0.000000   0.350419   0.019248
    24  C    0.000000  -0.000000   0.000000   0.000000   0.019248  14.831499
    25  Cl   0.000000  -0.000000  -0.000000   0.000000  -0.000132  -0.590612
    26  H    0.000000   0.000000   0.000000  -0.000000   0.000051   0.012107
    27  H   -0.000000  -0.000000   0.000000   0.000000  -0.000095   0.004615
    28  F    0.000000  -0.000000  -0.000000   0.000000   0.012328   0.311078
    29  F   -0.000000  -0.000000  -0.000000   0.000000  -0.000039   0.059622
    30  F   -0.000000  -0.000000   0.000000   0.000000   0.000017   0.054149
              25         26         27         28         29         30
     1  C    0.321534  -0.016500   0.018222   0.186665  -0.007758   0.019149
     2  N    0.000424  -0.000647  -0.011212   0.000331   0.000716   0.000335
     3  C   -0.004566   0.004188   0.020887   0.001588  -0.000163   0.000473
     4  O   -0.000028   0.000014  -0.009217  -0.000003  -0.000001   0.000000
     5  N    0.000583   0.000087  -0.002116   0.000013   0.000006  -0.000008
     6  C    0.000110   0.000060   0.001750   0.000013   0.000001  -0.000004
     7  C   -0.000017  -0.000002   0.000003   0.000000   0.000000   0.000000
     8  C    0.000001   0.000000   0.000002  -0.000000   0.000000  -0.000000
     9  C    0.210556  -0.053040   0.067065   0.119536   0.053121  -0.003738
    10  C    0.387595   0.085002  -0.002005  -0.273508   0.175526   0.175567
    11  C   -1.504484   0.047830  -0.030764  -0.200901  -0.174379  -0.127791
    12  C    0.290398   0.202648   0.030221  -0.025451   0.060471   0.035486
    13  C   -0.177414   0.052771   0.237916   0.014653  -0.005070   0.010784
    14  H    0.000173   0.000003  -0.000165   0.000099  -0.000012  -0.000001
    15  H   -0.000002   0.000000   0.000026  -0.000000   0.000000  -0.000000
    16  H    0.000000  -0.000000   0.000011  -0.000000   0.000000  -0.000000
    17  H    0.000000  -0.000000  -0.000004   0.000000  -0.000000   0.000000
    18  H    0.000000   0.000000   0.000000   0.000000   0.000000  -0.000000
    19  H    0.000000   0.000000  -0.000000   0.000000  -0.000000  -0.000000
    20  H   -0.000000   0.000000  -0.000000  -0.000000  -0.000000  -0.000000
    21  H   -0.000000   0.000000   0.000000  -0.000000  -0.000000   0.000000
    22  H    0.000000  -0.000000   0.000000   0.000000   0.000000   0.000000
    23  H   -0.000132   0.000051  -0.000095   0.012328  -0.000039   0.000017
    24  C   -0.590612   0.012107   0.004615   0.311078   0.059622   0.054149
    25  Cl  17.690511  -0.013516   0.000430   0.011700  -0.018541  -0.020084
    26  H   -0.013516   0.360601  -0.003144   0.000022  -0.000022  -0.000018
    27  H    0.000430  -0.003144   0.361447  -0.000003   0.000001  -0.000002
    28  F    0.011700   0.000022  -0.000003   9.057761  -0.034950  -0.036932
    29  F   -0.018541  -0.000022   0.000001  -0.034950   8.994642  -0.044236
    30  F   -0.020084  -0.000018  -0.000002  -0.036932  -0.044236   8.990801
 Mulliken charges:
               1
     1  C   -0.836670
     2  N   -0.318583
     3  C    0.056016
     4  O   -0.530816
     5  N   -0.413238
     6  C   -0.514611
     7  C   -0.162525
     8  C   -1.031362
     9  C   -0.532966
    10  C   -1.124378
    11  C    0.892086
    12  C   -0.686877
    13  C    0.573888
    14  H    0.429076
    15  H    0.451665
    16  H    0.276751
    17  H    0.277047
    18  H    0.269002
    19  H    0.267046
    20  H    0.269742
    21  H    0.280096
    22  H    0.269567
    23  H    0.317048
    24  C    0.726898
    25  Cl   0.415380
    26  H    0.321504
    27  H    0.316132
    28  F   -0.144039
    29  F   -0.058935
    30  F   -0.053946
 Sum of Mulliken charges =  -0.00000
 Mulliken charges with hydrogens summed into heavy atoms:
               1
     1  C   -0.836670
     2  N    0.110492
     3  C    0.056016
     4  O   -0.530816
     5  N    0.038427
     6  C    0.039187
     7  C    0.373523
     8  C   -0.211956
     9  C   -0.215917
    10  C   -1.124378
    11  C    0.892086
    12  C   -0.365373
    13  C    0.890020
    24  C    0.726898
    25  Cl   0.415380
    28  F   -0.144039
    29  F   -0.058935
    30  F   -0.053946
 Electronic spatial extent (au):  <R**2>=           8620.7992
 Charge=             -0.0000 electrons
 Dipole moment (field-independent basis, Debye):
    X=              7.1680    Y=              4.4764    Z=             -2.8109  Tot=              8.9062
 Quadrupole moment (field-independent basis, Debye-Ang):
   XX=           -110.9754   YY=           -109.0338   ZZ=           -115.5921
   XY=             19.8505   XZ=             -5.5263   YZ=              0.8631
 Traceless Quadrupole moment (field-independent basis, Debye-Ang):
   XX=              0.8917   YY=              2.8333   ZZ=             -3.7250
   XY=             19.8505   XZ=             -5.5263   YZ=              0.8631
 Octapole moment (field-independent basis, Debye-Ang**2):
  XXX=            147.0520  YYY=             23.7442  ZZZ=              4.0800  XYY=            -15.8603
  XXY=             45.1444  XXZ=            -17.3958  XZZ=            -10.6105  YZZ=             13.8744
  YYZ=            -10.7286  XYZ=              1.7343
 Hexadecapole moment (field-independent basis, Debye-Ang**3):
 XXXX=          -9182.9624 YYYY=          -1115.8080 ZZZZ=           -246.5916 XXXY=            149.7968
 XXXZ=            -77.1262 YYYX=             -6.7326 YYYZ=              9.2958 ZZZX=             -6.4118
 ZZZY=             -2.7831 XXYY=          -1820.3387 XXZZ=          -1668.4880 YYZZ=           -240.7258
 XXYZ=              1.0344 YYXZ=            -28.1368 ZZXY=            -21.6492
 N-N= 1.432051744152D+03 E-N=-6.094808685436D+03  KE= 1.366858443395D+03
 D1PCM: PCM CHGder 1st derivatives, ID1Alg=3 FixD1E=F DoIter=F DoCFld=F I1PDM=0.
 Calling FoFJK, ICntrl=      2127 FMM=F ISym2X=0 I1Cent= 0 IOpClX= 0 NMat=1 NMatS=1 NMatT=0.
 ***** Axes restored to original set *****
 -------------------------------------------------------------------
 Center     Atomic                   Forces (Hartrees/Bohr)
 Number     Number              X              Y              Z
 -------------------------------------------------------------------
      1        6           0.000003429    0.000000763   -0.000001366
      2        7           0.000007797    0.000005951   -0.000000473
      3        6          -0.000007539   -0.000008743    0.000004156
      4        8           0.000001569    0.000000771   -0.000008332
      5        7           0.000001384    0.000002518   -0.000001962
      6        6           0.000000079   -0.000002624   -0.000001727
      7        6           0.000001417    0.000000664   -0.000000957
      8        6          -0.000002662   -0.000003825   -0.000000784
      9        6           0.000000359   -0.000002776    0.000004803
     10        6          -0.000002497    0.000006427    0.000002560
     11        6           0.000000863    0.000001203   -0.000002864
     12        6           0.000005950    0.000002226   -0.000004721
     13        6          -0.000001805    0.000009167   -0.000004971
     14        1           0.000000107   -0.000000368    0.000003569
     15        1          -0.000000976    0.000000465    0.000003948
     16        1           0.000000994    0.000002143   -0.000005646
     17        1          -0.000001011   -0.000004562   -0.000005045
     18        1          -0.000001907   -0.000004826    0.000003564
     19        1           0.000000373    0.000001858    0.000003084
     20        1          -0.000001425   -0.000005740   -0.000004948
     21        1           0.000000000   -0.000003288   -0.000000601
     22        1           0.000000915   -0.000000042   -0.000004652
     23        1          -0.000000999    0.000001272    0.000008073
     24        6          -0.000005328   -0.000005360    0.000025897
     25       17           0.000001713    0.000007324   -0.000003069
     26        1           0.000000800    0.000002691   -0.000008668
     27        1           0.000001408    0.000001248   -0.000007348
     28        9          -0.000002521   -0.000001871    0.000011042
     29        9           0.000005182   -0.000002135   -0.000003515
     30        9          -0.000005673   -0.000000529    0.000000952
 -------------------------------------------------------------------
 Cartesian Forces:  Max     0.000025897 RMS     0.000004856

 GradGradGradGradGradGradGradGradGradGradGradGradGradGradGradGradGradGrad
 Berny optimization.
 FormGI is forming the generalized inverse of G from B-inverse, IUseBI=4.
 Internal  Forces:  Max     0.000013728 RMS     0.000002957
 Search for a local minimum.
 Step number   1 out of a maximum of  157
 All quantities printed in internal units (Hartrees-Bohrs-Radians)
 Mixed Optimization -- En-DIIS/RFO-DIIS
 Second derivative matrix not updated -- first step.
 ITU=  0
     Eigenvalues ---    0.00453   0.00506   0.00726   0.00929   0.01526
     Eigenvalues ---    0.01609   0.01704   0.01913   0.01948   0.02008
     Eigenvalues ---    0.02143   0.02151   0.02177   0.02190   0.02201
     Eigenvalues ---    0.02222   0.02239   0.02257   0.02391   0.03778
     Eigenvalues ---    0.04492   0.04957   0.05561   0.05566   0.05573
     Eigenvalues ---    0.08131   0.09164   0.10650   0.10653   0.12035
     Eigenvalues ---    0.12643   0.15727   0.15994   0.15998   0.15999
     Eigenvalues ---    0.16000   0.16000   0.16000   0.16000   0.21889
     Eigenvalues ---    0.21917   0.22001   0.22099   0.22374   0.23477
     Eigenvalues ---    0.24605   0.24970   0.24999   0.25000   0.25000
     Eigenvalues ---    0.25000   0.25000   0.25000   0.25000   0.30016
     Eigenvalues ---    0.30404   0.31006   0.32059   0.34294   0.34304
     Eigenvalues ---    0.34367   0.34389   0.34464   0.34464   0.34639
     Eigenvalues ---    0.35551   0.35614   0.36005   0.37262   0.42617
     Eigenvalues ---    0.42852   0.45491   0.45774   0.45777   0.46308
     Eigenvalues ---    0.46579   0.47631   0.47714   0.48508   0.55632
     Eigenvalues ---    0.56286   0.56308   0.57520   0.89521
 RFO step:  Lambda= 0.00000000D+00 EMin= 4.52833654D-03
 Linear search not attempted -- first point.
 Iteration  1 RMS(Cart)=  0.00008161 RMS(Int)=  0.00000000
 Iteration  2 RMS(Cart)=  0.00000000 RMS(Int)=  0.00000000
 Variable       Old X    -DE/DX   Delta X   Delta X   Delta X     New X
                                 (Linear)    (Quad)   (Total)
    R1        2.64387   0.00000   0.00000   0.00000   0.00000   2.64387
    R2        2.64042   0.00000   0.00000   0.00001   0.00001   2.64043
    R3        2.63921   0.00000   0.00000   0.00001   0.00001   2.63922
    R4        2.61402  -0.00001   0.00000  -0.00002  -0.00002   2.61400
    R5        1.91410   0.00000   0.00000   0.00000   0.00000   1.91410
    R6        2.33155   0.00000   0.00000   0.00000   0.00000   2.33155
    R7        2.54574  -0.00000   0.00000  -0.00000  -0.00000   2.54574
    R8        2.75453  -0.00000   0.00000  -0.00000  -0.00000   2.75453
    R9        1.91083   0.00000   0.00000   0.00000   0.00000   1.91084
   R10        2.87166   0.00000   0.00000   0.00000   0.00000   2.87166
   R11        2.06715   0.00000   0.00000   0.00000   0.00000   2.06715
   R12        2.06679   0.00000   0.00000   0.00000   0.00000   2.06679
   R13        2.87932  -0.00000   0.00000  -0.00000  -0.00000   2.87931
   R14        2.06821   0.00000   0.00000   0.00000   0.00000   2.06821
   R15        2.06836   0.00000   0.00000   0.00000   0.00000   2.06837
   R16        2.06555   0.00000   0.00000   0.00000   0.00000   2.06555
   R17        2.06265   0.00000   0.00000   0.00000   0.00000   2.06265
   R18        2.06554   0.00000   0.00000   0.00000   0.00000   2.06555
   R19        2.62182   0.00000   0.00000   0.00001   0.00001   2.62183
   R20        2.04790  -0.00000   0.00000  -0.00000  -0.00000   2.04790
   R21        2.63632   0.00001   0.00000   0.00002   0.00002   2.63633
   R22        2.84037   0.00001   0.00000   0.00003   0.00003   2.84040
   R23        2.61918   0.00000   0.00000   0.00001   0.00001   2.61919
   R24        3.29701   0.00000   0.00000   0.00000   0.00000   3.29702
   R25        2.62412  -0.00000   0.00000  -0.00001  -0.00001   2.62411
   R26        2.04689   0.00000   0.00000   0.00000   0.00000   2.04689
   R27        2.04074  -0.00000   0.00000  -0.00000  -0.00000   2.04074
   R28        2.52958   0.00000   0.00000   0.00000   0.00000   2.52958
   R29        2.53988  -0.00001   0.00000  -0.00002  -0.00002   2.53986
   R30        2.54007   0.00001   0.00000   0.00001   0.00001   2.54008
    A1        2.05410  -0.00000   0.00000  -0.00000  -0.00000   2.05410
    A2        2.15072   0.00000   0.00000   0.00000   0.00000   2.15073
    A3        2.07738  -0.00000   0.00000  -0.00000  -0.00000   2.07738
    A4        2.19372  -0.00000   0.00000  -0.00000  -0.00000   2.19371
    A5        2.01896   0.00000   0.00000   0.00000   0.00000   2.01896
    A6        2.03938  -0.00000   0.00000  -0.00000  -0.00000   2.03938
    A7        2.14392  -0.00000   0.00000  -0.00000  -0.00000   2.14392
    A8        1.99996   0.00000   0.00000   0.00001   0.00001   1.99998
    A9        2.13930  -0.00000   0.00000  -0.00001  -0.00001   2.13929
   A10        2.11680  -0.00000   0.00000  -0.00000  -0.00000   2.11679
   A11        2.09556  -0.00000   0.00000  -0.00000  -0.00000   2.09556
   A12        2.07038   0.00000   0.00000   0.00001   0.00001   2.07039
   A13        1.92523  -0.00000   0.00000  -0.00000  -0.00000   1.92523
   A14        1.91121   0.00000   0.00000   0.00000   0.00000   1.91121
   A15        1.90841  -0.00000   0.00000  -0.00001  -0.00001   1.90840
   A16        1.92233   0.00000   0.00000   0.00001   0.00001   1.92234
   A17        1.92203   0.00000   0.00000  -0.00000  -0.00000   1.92203
   A18        1.87387  -0.00000   0.00000  -0.00000  -0.00000   1.87387
   A19        1.93911  -0.00000   0.00000  -0.00000  -0.00000   1.93910
   A20        1.90596   0.00000   0.00000  -0.00000  -0.00000   1.90596
   A21        1.90704   0.00000   0.00000   0.00001   0.00001   1.90704
   A22        1.92124   0.00000   0.00000   0.00000   0.00000   1.92124
   A23        1.92079   0.00000   0.00000   0.00000   0.00000   1.92079
   A24        1.86826  -0.00000   0.00000  -0.00000  -0.00000   1.86825
   A25        1.93796  -0.00000   0.00000  -0.00000  -0.00000   1.93796
   A26        1.93931   0.00000   0.00000   0.00000   0.00000   1.93932
   A27        1.93816   0.00000   0.00000   0.00000   0.00000   1.93816
   A28        1.88191   0.00000   0.00000  -0.00000  -0.00000   1.88191
   A29        1.88214   0.00000   0.00000  -0.00000  -0.00000   1.88213
   A30        1.88191  -0.00000   0.00000   0.00000   0.00000   1.88191
   A31        2.10828   0.00000   0.00000   0.00001   0.00001   2.10829
   A32        2.08190  -0.00000   0.00000  -0.00001  -0.00001   2.08190
   A33        2.09300  -0.00000   0.00000  -0.00001  -0.00001   2.09300
   A34        2.08895  -0.00000   0.00000  -0.00002  -0.00002   2.08893
   A35        2.08061  -0.00001   0.00000  -0.00004  -0.00004   2.08057
   A36        2.11359   0.00001   0.00000   0.00005   0.00005   2.11365
   A37        2.09127   0.00000   0.00000   0.00000   0.00000   2.09127
   A38        2.12026   0.00001   0.00000   0.00004   0.00004   2.12030
   A39        2.07164  -0.00001   0.00000  -0.00004  -0.00004   2.07160
   A40        2.10377   0.00000   0.00000   0.00001   0.00001   2.10379
   A41        2.08924  -0.00000   0.00000  -0.00001  -0.00001   2.08923
   A42        2.09007  -0.00000   0.00000   0.00000   0.00000   2.09007
   A43        2.09647  -0.00000   0.00000  -0.00000  -0.00000   2.09646
   A44        2.10353  -0.00000   0.00000  -0.00000  -0.00000   2.10353
   A45        2.08312   0.00000   0.00000   0.00001   0.00001   2.08313
   A46        1.95875   0.00000   0.00000   0.00000   0.00000   1.95875
   A47        1.95859   0.00001   0.00000   0.00005   0.00005   1.95864
   A48        1.95857  -0.00000   0.00000  -0.00001  -0.00001   1.95855
   A49        1.85986  -0.00001   0.00000  -0.00002  -0.00002   1.85984
   A50        1.86027  -0.00000   0.00000  -0.00001  -0.00001   1.86026
   A51        1.86072  -0.00000   0.00000  -0.00001  -0.00001   1.86071
    D1        2.63392   0.00000   0.00000   0.00001   0.00001   2.63392
    D2       -0.23244   0.00000   0.00000   0.00003   0.00003  -0.23241
    D3       -0.55573  -0.00000   0.00000   0.00000   0.00000  -0.55573
    D4        2.86110   0.00000   0.00000   0.00003   0.00003   2.86112
    D5        3.10180   0.00000   0.00000   0.00001   0.00001   3.10182
    D6       -0.03802   0.00000   0.00000  -0.00000  -0.00000  -0.03802
    D7        0.00618   0.00000   0.00000   0.00002   0.00002   0.00620
    D8       -3.13364   0.00000   0.00000   0.00001   0.00001  -3.13364
    D9       -3.11373  -0.00000   0.00000  -0.00001  -0.00001  -3.11375
   D10        0.01590  -0.00000   0.00000  -0.00001  -0.00001   0.01589
   D11       -0.02080  -0.00000   0.00000  -0.00002  -0.00002  -0.02082
   D12        3.10884  -0.00000   0.00000  -0.00002  -0.00002   3.10882
   D13        0.03290  -0.00000   0.00000  -0.00003  -0.00003   0.03287
   D14       -3.10927   0.00000   0.00000   0.00001   0.00001  -3.10926
   D15        2.89639  -0.00000   0.00000  -0.00005  -0.00005   2.89634
   D16       -0.24578  -0.00000   0.00000  -0.00001  -0.00001  -0.24579
   D17        3.10187  -0.00000   0.00000  -0.00003  -0.00003   3.10185
   D18       -0.00729  -0.00000   0.00000  -0.00002  -0.00002  -0.00732
   D19       -0.04029   0.00000   0.00000   0.00002   0.00002  -0.04028
   D20        3.13372   0.00000   0.00000   0.00002   0.00002   3.13374
   D21       -3.08693   0.00000   0.00000   0.00002   0.00002  -3.08691
   D22        1.07792  -0.00000   0.00000   0.00000   0.00000   1.07793
   D23       -0.97077   0.00000   0.00000   0.00001   0.00001  -0.97076
   D24        0.02270   0.00000   0.00000   0.00001   0.00001   0.02271
   D25       -2.09564  -0.00000   0.00000  -0.00000  -0.00000  -2.09564
   D26        2.13885   0.00000   0.00000   0.00001   0.00001   2.13886
   D27       -3.13773  -0.00000   0.00000  -0.00003  -0.00003  -3.13775
   D28        1.02301  -0.00000   0.00000  -0.00003  -0.00003   1.02299
   D29       -1.01512  -0.00000   0.00000  -0.00002  -0.00002  -1.01514
   D30       -1.02602   0.00000   0.00000  -0.00002  -0.00002  -1.02603
   D31        3.13472  -0.00000   0.00000  -0.00001  -0.00001   3.13471
   D32        1.09659   0.00000   0.00000  -0.00001  -0.00001   1.09658
   D33        1.03743   0.00000   0.00000  -0.00002  -0.00002   1.03742
   D34       -1.08501   0.00000   0.00000  -0.00002  -0.00002  -1.08503
   D35       -3.12315   0.00000   0.00000  -0.00001  -0.00001  -3.12316
   D36       -1.04393   0.00000   0.00000   0.00007   0.00007  -1.04386
   D37       -3.13843   0.00000   0.00000   0.00007   0.00007  -3.13837
   D38        1.05010   0.00000   0.00000   0.00006   0.00006   1.05017
   D39        1.06957   0.00000   0.00000   0.00006   0.00006   1.06963
   D40       -1.02494   0.00000   0.00000   0.00007   0.00007  -1.02487
   D41       -3.11959   0.00000   0.00000   0.00006   0.00006  -3.11953
   D42        3.12471   0.00000   0.00000   0.00006   0.00006   3.12477
   D43        1.03020   0.00000   0.00000   0.00006   0.00006   1.03026
   D44       -1.06445   0.00000   0.00000   0.00006   0.00006  -1.06439
   D45        0.01224  -0.00000   0.00000  -0.00000  -0.00000   0.01224
   D46       -3.13773  -0.00000   0.00000  -0.00007  -0.00007  -3.13780
   D47       -3.13113   0.00000   0.00000   0.00001   0.00001  -3.13112
   D48        0.00208  -0.00000   0.00000  -0.00005  -0.00005   0.00203
   D49       -0.01613  -0.00000   0.00000  -0.00002  -0.00002  -0.01615
   D50        3.13143  -0.00000   0.00000  -0.00005  -0.00005   3.13138
   D51        3.13401   0.00000   0.00000   0.00005   0.00005   3.13406
   D52       -0.00162   0.00000   0.00000   0.00002   0.00002  -0.00161
   D53        0.01421  -0.00000   0.00000  -0.00012  -0.00012   0.01409
   D54        2.10811  -0.00000   0.00000  -0.00011  -0.00011   2.10800
   D55       -2.08020   0.00000   0.00000  -0.00010  -0.00010  -2.08030
   D56       -3.13588  -0.00000   0.00000  -0.00019  -0.00019  -3.13607
   D57       -1.04198  -0.00000   0.00000  -0.00018  -0.00018  -1.04217
   D58        1.05290  -0.00000   0.00000  -0.00017  -0.00017   1.05272
   D59        0.00153   0.00000   0.00000   0.00002   0.00002   0.00155
   D60       -3.12467   0.00000   0.00000   0.00001   0.00001  -3.12466
   D61        3.13732   0.00000   0.00000   0.00006   0.00006   3.13738
   D62        0.01112   0.00000   0.00000   0.00004   0.00004   0.01116
   D63        0.01710  -0.00000   0.00000  -0.00000  -0.00000   0.01710
   D64       -3.11268  -0.00000   0.00000  -0.00000  -0.00000  -3.11268
   D65       -3.13989   0.00000   0.00000   0.00001   0.00001  -3.13988
   D66        0.01352   0.00000   0.00000   0.00001   0.00001   0.01353
         Item               Value     Threshold  Converged?
 Maximum Force            0.000014     0.000450     YES
 RMS     Force            0.000003     0.000300     YES
 Maximum Displacement     0.000483     0.001800     YES
 RMS     Displacement     0.000082     0.001200     YES
 Predicted change in Energy=-3.014252D-09
 Optimization completed.
    -- Stationary point found.
                           ----------------------------
                           !   Optimized Parameters   !
                           ! (Angstroms and Degrees)  !
 --------------------------                            --------------------------
 ! Name  Definition              Value          Derivative Info.                !
 --------------------------------------------------------------------------------
 ! R1    R(1,2)                  1.3991         -DE/DX =    0.0                 !
 ! R2    R(1,9)                  1.3973         -DE/DX =    0.0                 !
 ! R3    R(1,13)                 1.3966         -DE/DX =    0.0                 !
 ! R4    R(2,3)                  1.3833         -DE/DX =    0.0                 !
 ! R5    R(2,14)                 1.0129         -DE/DX =    0.0                 !
 ! R6    R(3,4)                  1.2338         -DE/DX =    0.0                 !
 ! R7    R(3,5)                  1.3471         -DE/DX =    0.0                 !
 ! R8    R(5,6)                  1.4576         -DE/DX =    0.0                 !
 ! R9    R(5,15)                 1.0112         -DE/DX =    0.0                 !
 ! R10   R(6,7)                  1.5196         -DE/DX =    0.0                 !
 ! R11   R(6,16)                 1.0939         -DE/DX =    0.0                 !
 ! R12   R(6,17)                 1.0937         -DE/DX =    0.0                 !
 ! R13   R(7,8)                  1.5237         -DE/DX =    0.0                 !
 ! R14   R(7,18)                 1.0944         -DE/DX =    0.0                 !
 ! R15   R(7,19)                 1.0945         -DE/DX =    0.0                 !
 ! R16   R(8,20)                 1.093          -DE/DX =    0.0                 !
 ! R17   R(8,21)                 1.0915         -DE/DX =    0.0                 !
 ! R18   R(8,22)                 1.093          -DE/DX =    0.0                 !
 ! R19   R(9,10)                 1.3874         -DE/DX =    0.0                 !
 ! R20   R(9,23)                 1.0837         -DE/DX =    0.0                 !
 ! R21   R(10,11)                1.3951         -DE/DX =    0.0                 !
 ! R22   R(10,24)                1.5031         -DE/DX =    0.0                 !
 ! R23   R(11,12)                1.386          -DE/DX =    0.0                 !
 ! R24   R(11,25)                1.7447         -DE/DX =    0.0                 !
 ! R25   R(12,13)                1.3886         -DE/DX =    0.0                 !
 ! R26   R(12,26)                1.0832         -DE/DX =    0.0                 !
 ! R27   R(13,27)                1.0799         -DE/DX =    0.0                 !
 ! R28   R(24,28)                1.3386         -DE/DX =    0.0                 !
 ! R29   R(24,29)                1.344          -DE/DX =    0.0                 !
 ! R30   R(24,30)                1.3441         -DE/DX =    0.0                 !
 ! A1    A(2,1,9)              117.6913         -DE/DX =    0.0                 !
 ! A2    A(2,1,13)             123.2274         -DE/DX =    0.0                 !
 ! A3    A(9,1,13)             119.0253         -DE/DX =    0.0                 !
 ! A4    A(1,2,3)              125.6906         -DE/DX =    0.0                 !
 ! A5    A(1,2,14)             115.6776         -DE/DX =    0.0                 !
 ! A6    A(3,2,14)             116.8482         -DE/DX =    0.0                 !
 ! A7    A(2,3,4)              122.8376         -DE/DX =    0.0                 !
 ! A8    A(2,3,5)              114.5895         -DE/DX =    0.0                 !
 ! A9    A(4,3,5)              122.573          -DE/DX =    0.0                 !
 ! A10   A(3,5,6)              121.2836         -DE/DX =    0.0                 !
 ! A11   A(3,5,15)             120.067          -DE/DX =    0.0                 !
 ! A12   A(6,5,15)             118.6241         -DE/DX =    0.0                 !
 ! A13   A(5,6,7)              110.3076         -DE/DX =    0.0                 !
 ! A14   A(5,6,16)             109.504          -DE/DX =    0.0                 !
 ! A15   A(5,6,17)             109.3438         -DE/DX =    0.0                 !
 ! A16   A(7,6,16)             110.1416         -DE/DX =    0.0                 !
 ! A17   A(7,6,17)             110.1245         -DE/DX =    0.0                 !
 ! A18   A(16,6,17)            107.365          -DE/DX =    0.0                 !
[...]
 ,0.00007892,0.00001800,-0.00002668,0.00000019,-0.00001034,-0.00000352,
 -0.00000019,-0.00000598,0.00000758,0.00000113,0.00000230,-0.00000164,0
 .00002457,0.00000280,-0.00000326,0.00000081,0.00000219,-0.00000038,0.0
 0245132,-0.00199059,0.00054796,0.04007656,0.55819434,-0.00151071,-0.00
 006163,0.00711874,0.00108138,-0.00010634,0.00006118,-0.00085784,-0.000
 49458,0.00006673,0.00027019,0.00025019,-0.00010741,0.00035837,-0.00012
 947,-0.00001610,-0.00006887,-0.00004140,0.00007100,0.00001351,0.000024
 82,-0.00000492,0.00000120,-0.00001244,0.00000046,-0.00398009,-0.000284
 95,0.00155563,-0.02223803,-0.01750972,-0.06917082,0.00078503,-0.003520
 06,-0.00210808,-0.00037492,-0.00042779,0.00544248,0.00052468,0.0005752
 9,-0.00092846,0.00002091,0.00009051,0.00002178,0.00000140,0.00003580,0
 .00000626,0.00001942,0.00000607,-0.00000171,0.00002125,0.00000608,-0.0
 0001017,0.00000111,-0.00000501,0.00000002,-0.00000016,-0.00000047,-0.0
 0000129,0.00000153,0.00000150,-0.00000230,0.00000591,0.00000098,-0.000
 00084,0.00000039,-0.00000143,0.00000009,0.00071489,0.00019977,-0.00394
 440,0.01762339,0.01621535,0.47358558,0.00401016,0.00130259,0.00123832,
 -0.00560153,0.00081938,-0.00031864,0.00372196,0.00209567,-0.00032654,-
 0.00091982,-0.00111438,0.00052592,-0.00147458,0.00046238,-0.00011703,0
 .00028134,0.00016535,-0.00010279,-0.00003668,-0.00009894,0.00003347,-0
 .00001473,0.00004619,-0.00001299,-0.00148888,0.00163236,-0.00028697,-0
 .01545562,0.00822633,-0.00200448,-0.14541606,0.05144701,-0.01328576,-0
 .04298671,0.01998532,-0.00474314,0.00115112,-0.00670891,-0.00202464,-0
 .00022962,-0.00033518,-0.00021544,0.00000841,-0.00013428,0.00004345,-0
 .00010048,-0.00002338,0.00000651,-0.00009038,-0.00001779,0.00003377,0.
 00000192,0.00000910,0.00000089,0.00000144,0.00000663,-0.00000610,-0.00
 000209,-0.00000179,0.00000277,-0.00002452,-0.00000264,0.00000388,-0.00
 000246,-0.00000274,-0.00000073,-0.00103351,0.00003794,-0.00023736,-0.0
 0613705,-0.00234902,-0.00083194,0.20690999,-0.00132775,0.00127921,-0.0
 0012989,0.00281139,-0.00021083,0.00019920,-0.00182074,-0.00112469,0.00
 022782,0.00037797,0.00062289,-0.00020401,0.00072593,-0.00021110,0.0000
 3710,-0.00013654,-0.00008501,0.00003888,0.00001835,0.00004885,-0.00001
 578,0.00000723,-0.00002243,0.00000678,-0.00249533,-0.00468017,-0.00145
 671,0.03290406,-0.00945405,0.00371540,0.05037792,-0.06401292,0.0027459
 5,-0.00638784,0.00698317,-0.00045332,-0.00087734,-0.00133146,-0.000642
 32,0.00004119,0.00016803,0.00009509,-0.00000696,0.00006454,-0.00002758
 ,0.00004768,0.00001285,-0.00000213,0.00004677,0.00000724,-0.00001525,-
 0.00000080,-0.00000440,-0.00000043,-0.00000063,-0.00000348,0.00000309,
 0.00000102,0.00000066,-0.00000121,0.00001194,0.00000133,-0.00000193,0.
 00000137,0.00000137,0.00000039,0.00156632,-0.00017821,0.00015128,0.001
 66187,0.00059289,0.00047076,-0.07542112,0.07911000,0.00054530,0.000608
 92,-0.00049426,-0.00039282,-0.00006238,-0.00066140,0.00038022,0.000095
 79,-0.00006534,-0.00021932,-0.00006593,0.00007956,-0.00011018,0.000045
 48,0.00002310,0.00002395,0.00001920,0.00001113,-0.00000185,-0.00000904
 ,0.00000213,-0.00000106,0.00000317,-0.00000262,-0.00085734,-0.00084368
 ,0.00376728,0.00095376,0.00013293,0.00235982,-0.01358361,0.00272044,-0
 .02179602,-0.00786577,0.00366840,0.00281308,-0.00094832,-0.00170615,0.
 00447296,-0.00004879,-0.00000074,-0.00004369,0.00000459,-0.00000474,0.
 00000951,-0.00000611,-0.00000445,-0.00000085,-0.00001209,0.00000046,-0
 .00000105,0.00000023,0.00000099,0.00000018,-0.00000016,0.00000141,-0.0
 0000096,-0.00000005,0.00000007,0.00000002,-0.00000220,-0.00000021,0.00
 000035,-0.00000032,-0.00000030,-0.00000010,-0.00007223,-0.00012002,0.0
 0053030,-0.00031447,-0.00006493,-0.00294553,0.02164099,-0.00396977,0.0
 1445723,-0.00418041,0.00138727,-0.00190256,-0.00013724,0.00162104,0.00
 015506,0.00062677,0.00028429,-0.00021277,-0.00016364,-0.00018707,0.000
 08984,-0.00024699,0.00003814,0.00000738,0.00004653,0.00003549,-0.00002
 359,-0.00000839,-0.00001757,0.00000649,-0.00000245,0.00000872,-0.00000
 241,-0.00122638,0.00005976,-0.00000317,-0.00352966,-0.00240462,-0.0017
 1335,0.00439806,-0.02464416,-0.00287953,-0.06173105,0.03999942,0.00118
 624,0.00007864,0.02852032,0.00341819,-0.00040909,0.00007092,0.00009777
 ,0.00001160,-0.00002765,0.00001542,-0.00001650,-0.00000559,0.00000119,
 -0.00001198,-0.00000364,0.00000605,0.00000025,0.00000151,0.00000010,0.
 00000006,0.00000133,-0.00000111,-0.00000028,-0.00000022,0.00000061,-0.
 00000431,-0.00000069,0.00000072,-0.00000056,-0.00000061,-0.00000031,0.
 00011442,0.00002874,0.00006360,0.00102200,-0.00066467,-0.00000296,0.00
 068420,-0.00148589,0.00026487,0.06400920,0.00100610,0.00150366,-0.0005
 3234,0.00029616,-0.00038362,-0.00003133,-0.00038821,-0.00021328,0.0000
 6912,0.00007958,0.00012349,-0.00004577,0.00015324,-0.00002983,0.000002
 50,-0.00002879,-0.00002019,0.00001118,0.00000470,0.00001069,-0.0000038
 0,0.00000125,-0.00000530,0.00000150,-0.00002126,0.00062653,0.00023108,
 -0.00291815,-0.00023202,-0.00127647,0.00459980,-0.01314417,-0.00133384
 ,0.03776975,-0.34377657,-0.03401351,0.00000970,-0.00550290,-0.00128461
 ,0.00009787,0.00003731,-0.00000535,-0.00000503,0.00001449,-0.00000629,
 0.00001031,0.00000310,-0.00000045,0.00000891,0.00000216,-0.00000364,-0
 .00000029,-0.00000098,-0.00000009,-0.00000019,-0.00000074,0.00000087,0
 .00000021,0.00000028,-0.00000053,0.00000269,0.00000024,-0.00000043,0.0
 0000035,0.00000059,0.00000030,0.00000664,-0.00006619,0.00004154,0.0010
 0036,0.00004134,0.00008149,0.00048316,0.00109481,0.00050576,-0.0413980
 3,0.35973602,-0.00189419,0.00001300,0.00707507,0.00025180,-0.00008916,
 0.00001449,-0.00004137,0.00000294,-0.00000125,0.00010278,-0.00006836,-
 0.00002158,0.00001907,-0.00003820,0.00000640,-0.00000850,0.,0.00000613
 ,-0.00000015,0.00000206,-0.00000029,0.00000024,-0.00000090,0.00000054,
 -0.00019866,0.00029900,-0.00119677,-0.00165237,-0.00147058,0.00508328,
 0.00119368,-0.00531321,0.00254764,0.00029762,-0.03379777,-0.04192859,-
 0.00012240,0.00294036,0.00473660,0.00001010,0.00001814,-0.00014741,0.0
 0000694,0.00000165,-0.00000745,0.00000186,0.00000098,-0.00000024,0.000
 00143,-0.00000069,-0.00000012,-0.00000027,-0.00000019,-0.00000004,0.00
 000009,-0.00000024,-0.00000021,0.00000027,0.00000003,-0.00000032,0.000
 00044,0.00000011,-0.00000003,0.00000008,0.00000006,0.00000004,0.000062
 37,0.00002159,-0.00033819,0.00018649,-0.00020977,0.00069700,0.00045999
 ,0.00009596,-0.00237584,0.00062302,0.03705852,0.03049146,0.00878980,0.
 00468580,0.00172353,-0.00030338,-0.00094933,0.00055469,-0.00042466,0.0
 0132117,0.00005115,-0.00529201,0.00096418,0.00222565,0.00000252,-0.000
 10044,-0.00014760,-0.00003991,-0.00003325,-0.00004396,0.00000405,0.000
 01113,-0.00000787,0.00000309,-0.00000373,0.00000351,0.00058057,0.00183
 946,-0.00045117,-0.00004148,0.00069972,0.00020900,-0.00185917,0.002363
 69,-0.00115774,-0.01663099,-0.01641455,-0.00565186,-0.23189102,-0.1414
 1926,-0.05561967,0.00005616,-0.00010144,-0.00009792,0.00000407,0.00004
 240,0.00000857,-0.00001013,0.00000970,0.00001002,0.00001326,0.00000062
 ,-0.00000533,-0.00000033,0.00000034,-0.00000100,-0.00000160,0.00000116
 ,0.00000140,-0.00000008,0.00000025,0.00000004,0.00000166,0.00000005,0.
 ,-0.00000001,0.00000045,-0.00000003,0.00035398,0.00036023,0.00006887,-
 0.00014868,-0.00004933,0.00006361,-0.00125981,-0.00014053,-0.00018126,
 0.00115102,-0.00014960,0.00080206,0.24679094,-0.02430290,-0.01189057,-
 0.00642901,-0.00023865,0.00204359,0.00034039,0.00072423,-0.00293247,0.
 00073403,-0.00121023,0.00197462,0.00019730,-0.00037259,0.00062516,-0.0
 0036315,0.00013889,0.00007285,-0.00007696,-0.00000535,-0.00002564,0.00
 000210,-0.00000261,0.00001380,-0.00000264,0.00176937,-0.00507529,-0.00
 121175,0.00108580,-0.00063246,0.00015288,0.00282698,0.00033401,-0.0005
 1282,0.01212779,0.01201661,0.00313844,-0.13852628,-0.17025577,-0.04295
 163,-0.00003410,0.00001436,0.00016078,-0.00006437,-0.00000450,-0.00003
 725,-0.00003422,-0.00000630,0.00001222,-0.00000427,-0.00001999,0.00001
 833,-0.00000182,0.00000547,0.00000024,-0.00000472,0.00000454,-0.000000
 72,-0.00000146,-0.00000112,0.00000151,-0.00000875,-0.00000088,0.000001
 47,-0.00000084,-0.00000103,-0.00000026,-0.00116415,-0.00054850,-0.0001
 1287,0.00004409,-0.00011276,0.00007994,0.00097046,0.00006282,0.0001233
 9,-0.00065257,0.00058360,0.00061743,0.14714310,0.17364804,-0.00178290,
 -0.00120123,0.00462722,0.00142350,0.00010641,-0.00364425,-0.00006199,-
 0.00216969,0.00026327,0.00013683,0.00061662,0.00007663,0.00017150,0.00
 023375,0.00013021,0.00001941,0.00003528,0.00008939,0.00000788,0.000000
 65,-0.00000336,-0.00000084,0.00000049,-0.00000129,-0.00071296,-0.00109
 309,0.00606606,0.00037118,0.00017781,-0.00054899,-0.00126339,-0.000340
 38,0.00722026,-0.00204800,-0.00243212,0.00342677,-0.05454944,-0.040771
 39,-0.05446982,-0.00010073,-0.00002123,-0.00022836,-0.00000685,0.00002
 511,0.00000568,0.00002395,-0.00001580,-0.00001066,-0.00002524,0.000009
 39,-0.00001940,-0.00000268,0.00000011,-0.00000042,-0.00000187,0.000003
 58,-0.00000201,0.00000055,-0.00000020,-0.00000087,-0.00000039,0.000000
 10,-0.00000034,-0.00000094,-0.00000094,0.00000031,-0.00003207,0.000057
 15,-0.00038732,0.00003025,0.00000955,-0.00071560,-0.00017695,-0.000020
 70,-0.00001701,0.00089548,0.00063715,-0.00434339,0.05762124,0.04612511
 ,0.04256953,0.00173043,-0.00105681,0.00014866,-0.00067294,0.00004457,-
 0.00000795,0.00061296,0.00033873,-0.00011411,-0.00016591,-0.00019024,0
 .00008029,-0.00025015,0.00005979,-0.00001147,0.00004788,0.00003313,-0.
 00001151,-0.00000697,-0.00001749,0.00000600,-0.00000237,0.00000770,-0.
 00000285,-0.00464580,-0.00155127,-0.00051374,0.00898931,-0.02197431,-0
 .00229178,-0.00442964,-0.00022567,-0.00090818,0.00030307,-0.00140266,-
 0.00008638,-0.00024472,-0.00039391,-0.00013364,0.00004434,-0.00004544,
 0.00001308,0.00000630,-0.00002067,0.00001044,-0.00001617,-0.00000482,0
 .00000094,-0.00001488,-0.00000283,0.00000550,0.00000073,0.00000146,-0.
 00000011,0.00000012,0.00000153,-0.00000116,-0.00000025,-0.00000030,0.0
 0000051,-0.00000450,-0.00000035,0.00000065,-0.00000051,-0.00000074,-0.
 00000022,-0.00235805,-0.00414671,-0.00106006,-0.08073841,0.03494867,0.
 00168301,0.00065638,0.00014826,0.00006914,-0.00023988,-0.00017067,-0.0
 0001996,0.00002391,-0.00011937,-0.00001064,0.11719007,0.00120039,-0.00
 040288,0.00006947,-0.00182958,0.00009107,-0.00005990,0.00126348,0.0006
 2922,-0.00019692,-0.00042291,-0.00031177,0.00015347,-0.00054383,0.0001
 7042,-0.00001236,0.00009881,0.00006828,-0.00003475,-0.00001440,-0.0000
 3869,0.00001285,-0.00000658,0.00001862,-0.00000526,0.00289551,-0.00200
 079,0.00040137,0.01149426,-0.04748895,-0.00417469,-0.01011232,0.001553
 49,-0.00148856,0.00117852,-0.00299030,-0.00021264,-0.00030097,-0.00005
 117,-0.00011435,-0.00007443,-0.00012996,-0.00002269,0.00000139,-0.0000
 5383,0.00001469,-0.00003325,-0.00000822,0.00000321,-0.00003313,-0.0000
 0687,0.00001091,-0.00000016,0.00000484,0.00000162,0.00000004,0.0000022
 8,-0.00000303,-0.00000046,-0.00000102,0.00000053,-0.00000972,-0.000001
 07,0.00000133,-0.00000009,-0.00000051,0.00000037,-0.00211636,0.0000212
 7,-0.00030947,0.02119738,-0.26362972,-0.01809015,0.00047852,-0.0002296
 5,0.00003572,-0.00070566,-0.00042566,-0.00013258,-0.00006306,0.0000710
 0,0.00000717,-0.09350931,0.37780748,0.00044374,-0.00020966,0.00006605,
 -0.00033194,0.00001356,0.00002782,0.00024131,0.00014849,-0.00003264,-0
 .00007413,-0.00007383,0.00003566,-0.00010495,0.00002818,0.00000319,0.0
 0001900,0.00001166,-0.00001384,-0.00000288,-0.00000795,0.00000190,-0.0
 0000098,0.00000358,-0.00000054,-0.00015475,-0.00042225,-0.00032320,0.0
 0132586,-0.00939867,0.00719096,-0.00205464,-0.00004835,0.00129678,0.00
 025085,-0.00050443,-0.00042711,-0.00008287,-0.00008532,0.00002393,0.00
 000285,-0.00002550,-0.00001260,0.00000325,-0.00000936,-0.00000002,-0.0
 0000673,-0.00000151,0.00000071,-0.00000634,-0.00000167,0.00000328,-0.0
 0000017,0.00000149,0.,0.00000028,0.00000023,0.00000014,-0.00000033,-0.
 00000038,0.00000052,-0.00000186,-0.00000024,0.00000020,-0.00000003,0.,
 -0.00000002,-0.00068489,-0.00066336,-0.00004549,0.00016445,-0.01576595
 ,-0.06857171,0.00012294,-0.00003748,0.00026342,-0.00008074,-0.00004283
 ,-0.00025008,-0.00000455,-0.00000971,-0.00000748,-0.00478302,0.0177379
 2,0.08210185,0.00031291,-0.00093542,-0.00224929,-0.00178523,-0.0002593
 8,-0.00007594,0.00131590,0.00073154,-0.00035981,-0.00050681,-0.0003469
 2,0.00016672,-0.00062830,0.00015802,0.00000861,0.00012077,0.00009621,-
 0.00003618,-0.00002003,-0.00004374,0.00001723,-0.00000623,0.00002051,-
 0.00000647,0.00044032,-0.00557035,0.00074538,-0.03464900,-0.00383659,0
 .03191254,-0.00424233,0.00408344,-0.00049093,-0.00013971,-0.00028551,-
 0.00134356,-0.00093132,-0.00021271,0.00009305,-0.00000803,-0.00011687,
 0.00008094,0.00000590,-0.00005256,0.00002047,-0.00003544,-0.00001294,0
 .00000237,-0.00003608,-0.00000824,0.00001228,0.00000058,0.00000333,0.0
 0000013,0.00000013,0.00000341,-0.00000322,-0.00000025,-0.00000079,0.00
 000087,-0.00001147,-0.00000122,0.00000174,-0.00000097,-0.00000177,-0.0
 0000033,0.00027106,0.00008452,0.00104956,-0.17866311,-0.01041765,0.090
 09620,0.00262753,-0.00063946,0.00052196,-0.00012404,-0.00024232,-0.000
 07609,0.00004902,-0.00006670,0.00019562,-0.02569328,0.03735831,0.02946
 630,0.22463355,-0.00021650,-0.00031503,-0.00083189,-0.00107952,-0.0000
 8104,-0.00010102,0.00069612,0.00039406,-0.00020234,-0.00022259,-0.0001
 9765,0.00008518,-0.00032270,0.00008974,0.00000220,0.00005919,0.0000479
 2,-0.00001093,-0.00001007,-0.00002232,0.00000773,-0.00000356,0.0000104
 4,-0.00000333,-0.00034788,-0.00336346,0.00064395,-0.01848163,0.0088680
 8,0.01212648,0.00148592,0.00072178,-0.00040475,0.00031733,0.00052940,-
 0.00002645,-0.00071723,0.00038499,0.00003834,-0.00002350,-0.00006675,0
 .00002479,0.00000197,-0.00002989,0.00000837,-0.00001729,-0.00000604,0.
 00000125,-0.00001981,-0.00000395,0.00000605,0.00000029,0.00000214,0.00
 000068,-0.00000028,0.00000167,-0.00000172,-0.00000024,-0.00000045,0.00
 000031,-0.00000566,-0.00000064,0.00000070,-0.00000030,-0.00000051,0.00
 000001,-0.00021476,0.00012486,0.00025766,-0.00709620,-0.07109591,0.000
 87426,-0.00119595,-0.00484203,0.00146580,0.00006153,-0.00000573,0.0000
 4904,-0.00000391,0.00001472,0.00000208,0.04895814,-0.02279656,-0.03993
 754,-0.01836836,0.08149670,-0.00002937,-0.00020763,0.00014787,0.000824
 58,0.00017962,0.00006258,-0.00051259,-0.00032826,0.00016654,0.00016208
 ,0.00016028,-0.00006414,0.00024976,-0.00005291,-0.00000128,-0.00004432
 ,-0.00003986,0.00000619,0.00000766,0.00001685,-0.00000769,0.00000346,-
 0.00000897,0.00000304,0.00094447,0.00263978,-0.00007216,0.01083645,-0.
 00146388,-0.00070734,0.00080347,-0.00182679,0.00064259,0.00021912,0.00
 046906,0.00025089,0.00004210,0.00009759,-0.00003327,-0.00001078,0.0000
 4843,-0.00003767,-0.00000226,0.00002186,-0.00001104,0.00001433,0.00000
 515,-0.00000057,0.00001393,0.00000268,-0.00000414,-0.00000018,-0.00000
 048,0.,0.00000019,-0.00000153,0.00000205,-0.00000008,0.00000004,0.0000
 0009,0.00000438,0.00000032,-0.00000076,0.00000072,0.00000094,0.0000001
 7,-0.00025721,0.00006175,-0.00006109,0.09328667,0.00581277,-0.14346610
 ,-0.00068033,0.00123463,0.00011145,0.00005211,0.00008814,-0.00000446,-
 0.00001643,0.00004551,-0.00002226,0.02834057,-0.03054490,-0.01150376,-
 0.15881627,0.01375741,0.24277085,-0.00029644,-0.00145200,0.00173266,-0
 .00134305,-0.00030468,0.00015726,0.00100794,0.00052081,-0.00029288,-0.
 00044198,-0.00023782,0.00014490,-0.00050418,0.00011503,-0.00000742,0.0
 0009855,0.00008391,-0.00002102,-0.00001649,-0.00003602,0.00001436,-0.0
 0000533,0.00001546,-0.00000757,0.00125088,-0.00402722,-0.00166769,-0.0
 1871158,0.00311048,-0.03704593,-0.00392158,0.00333156,-0.00017732,-0.0
 0049993,-0.00044506,0.00086964,-0.00082161,-0.00006316,-0.00038532,-0.
 00001363,-0.00008608,0.00003985,0.00000769,-0.00004393,0.00001442,-0.0
 0002900,-0.00000946,0.00000201,-0.00002936,-0.00000677,0.00001114,0.00
 000048,0.00000370,0.00000011,0.00000053,0.00000234,-0.00000198,-0.0000
 0070,-0.00000093,0.00000128,-0.00000943,-0.00000106,0.00000139,-0.0000
 0023,-0.00000140,-0.00000024,0.00043446,0.00031884,-0.00088119,-0.1229
 0670,0.00791223,-0.08342187,0.00222007,-0.00000833,0.00021292,-0.00010
 989,-0.00020824,-0.00000637,0.00007920,-0.00001477,-0.00011949,-0.0101
 2107,0.03260959,-0.02366504,0.01770397,-0.00323257,0.02456379,0.136978
 42,-0.00049295,-0.00050573,0.00049938,-0.00073566,-0.00011782,0.000096
 80,0.00045325,0.00026316,-0.00009778,-0.00017021,-0.00011173,0.0000585
 2,-0.00022788,0.00005271,-0.00000457,0.00004061,0.00003399,-0.00001379
 ,-0.00000699,-0.00001681,0.00000504,-0.00000278,0.00000814,-0.00000216
 ,0.00022269,-0.00223729,-0.00118896,-0.01101629,0.01106155,-0.01245917
 ,0.00163823,0.00021043,0.00087836,0.00031075,0.00059257,0.00013962,-0.
 00064651,0.00045965,-0.00016178,-0.00002567,-0.00004795,-0.00000224,0.
 00000170,-0.00002015,0.00000818,-0.00001309,-0.00000431,0.00000105,-0.
 00001302,-0.00000283,0.00000441,0.00000015,0.00000178,0.00000060,-0.00
 000004,0.00000113,-0.00000145,-0.00000017,-0.00000041,0.00000021,-0.00
 000427,-0.00000050,0.00000062,-0.00000008,-0.00000043,0.00000010,-0.00
 021904,0.00018294,-0.00024365,0.01027702,-0.07442400,0.02177263,-0.000
 76229,-0.00366024,-0.00257561,0.00008017,0.00002887,0.00000077,-0.0000
 1502,0.00002211,0.00001924,0.04029159,-0.03987035,0.04930087,-0.001119
 79,0.01014146,0.00983240,-0.03784444,0.09796005,-0.00029353,-0.0004310
 1,0.00091275,-0.00145873,-0.00036753,0.00012675,0.00095012,0.00059789,
 -0.00027555,-0.00035368,-0.00027863,0.00014772,-0.00047412,0.00009648,
 0.00000923,0.00008444,0.00007390,-0.00003815,-0.00001630,-0.00003399,0
 .00001152,-0.00000529,0.00001688,-0.00000454,-0.00029992,-0.00448872,-
 0.00192466,-0.01949467,0.00564431,-0.01882435,-0.00203936,0.00281483,0
 .00088143,-0.00033209,-0.00052031,0.00033372,-0.00045914,0.00002300,-0
 .00027123,0.00000341,-0.00009055,0.00002187,0.00000828,-0.00004219,0.0
 0000979,-0.00002698,-0.00000832,0.00000182,-0.00002750,-0.00000655,0.0
 0001137,0.00000076,0.00000380,0.00000007,0.00000059,0.00000186,-0.0000
 0087,-0.00000106,-0.00000089,0.00000154,-0.00000841,-0.00000111,0.0000
 0115,-0.00000070,-0.00000064,-0.00000018,0.00038006,0.00009315,-0.0003
 8557,-0.08597617,0.01588668,-0.19663150,0.00125893,-0.00204382,-0.0004
 9687,-0.00006162,-0.00014788,-0.00004238,0.00004304,-0.00004232,-0.000
 05252,-0.02040202,0.03695162,-0.00982794,0.00906608,0.01216765,-0.0881
 6660,0.11993561,-0.06586761,0.31447219\\-0.00000341,-0.00000074,0.0000
 0137,-0.00000780,-0.00000595,0.00000048,0.00000755,0.00000874,-0.00000
 416,-0.00000157,-0.00000078,0.00000833,-0.00000139,-0.00000251,0.00000
 196,-0.00000008,0.00000262,0.00000173,-0.00000142,-0.00000066,0.000000
 96,0.00000266,0.00000383,0.00000078,-0.00000039,0.00000277,-0.00000481
 ,0.00000252,-0.00000644,-0.00000256,-0.00000086,-0.00000118,0.00000287
 ,-0.00000597,-0.00000224,0.00000472,0.00000182,-0.00000918,0.00000497,
 -0.00000011,0.00000037,-0.00000357,0.00000097,-0.00000046,-0.00000395,
 -0.00000099,-0.00000214,0.00000565,0.00000101,0.00000456,0.00000504,0.
 00000191,0.00000483,-0.00000356,-0.00000037,-0.00000186,-0.00000308,0.
 00000143,0.00000574,0.00000495,0.,0.00000329,0.00000060,-0.00000091,0.
 00000004,0.00000465,0.00000100,-0.00000127,-0.00000807,0.00000533,0.00
 000535,-0.00002590,-0.00000172,-0.00000732,0.00000307,-0.00000080,-0.0
 0000269,0.00000867,-0.00000141,-0.00000125,0.00000735,0.00000252,0.000
 00187,-0.00001104,-0.00000518,0.00000214,0.00000352,0.00000567,0.00000
 053,-0.00000095\\\@


 ART, GLORY, FREEDOM FAIL, BUT NATURE STILL IS FAIR.

                                           -- BYRON
 Job cpu time:       0 days  4 hours 35 minutes 59.2 seconds.
 File lengths (MBytes):  RWF=    684 Int=      0 D2E=      0 Chk=     23 Scr=      1
 Normal termination of Gaussian 09 at Thu Nov 14 10:36:59 2019.
pbs_rusage has been removed.
Please contact help@nci.org.au if you require this functionality.
