 Entering Gaussian System, Link 0=/apps/gaussian/g09e01/g09/g09
 Initial command:
 /apps/gaussian/g09e01/g09/l1.exe "/jobfs/local/3595142.r-man2/Gau-26088.inp" -scrdir="/jobfs/local/3595142.r-man2/"
 Entering Link 1 = /apps/gaussian/g09e01/g09/l1.exe PID=     26091.
  
 Copyright (c) 1988,1990,1992,1993,1995,1998,2003,2009,2015,
            Gaussian, Inc.  All Rights Reserved.
  
 This is part of the Gaussian(R) 09 program.  It is based on
 the Gaussian(R) 03 system (copyright 2003, Gaussian, Inc.),
 the Gaussian(R) 98 system (copyright 1998, Gaussian, Inc.),
 the Gaussian(R) 94 system (copyright 1995, Gaussian, Inc.),
 the Gaussian 92(TM) system (copyright 1992, Gaussian, Inc.),
 the Gaussian 90(TM) system (copyright 1990, Gaussian, Inc.),
 the Gaussian 88(TM) system (copyright 1988, Gaussian, Inc.),
 the Gaussian 86(TM) system (copyright 1986, Carnegie Mellon
 University), and the Gaussian 82(TM) system (copyright 1983,
 Carnegie Mellon University). Gaussian is a federally registered
 trademark of Gaussian, Inc.
  
 This software contains proprietary and confidential information,
 including trade secrets, belonging to Gaussian, Inc.
  
 This software is provided under written license and may be
 used, copied, transmitted, or stored only in accord with that
 written license.
  
 The following legend is applicable only to US Government
 contracts under FAR:
  
                    RESTRICTED RIGHTS LEGEND
  
 Use, reproduction and disclosure by the US Government is
 subject to restrictions as set forth in subparagraphs (a)
 and (c) of the Commercial Computer Software - Restricted
 Rights clause in FAR 52.227-19.
  
 Gaussian, Inc.
 340 Quinnipiac St., Bldg. 40, Wallingford CT 06492
  
  
 ---------------------------------------------------------------
 Warning -- This program may not be used in any manner that
 competes with the business of Gaussian, Inc. or will provide
 assistance to any competitor of Gaussian, Inc.  The licensee
 of this program is prohibited from giving any competitor of
 Gaussian, Inc. access to this program.  By using this program,
 the user acknowledges that Gaussian, Inc. is engaged in the
 business of creating and licensing software in the field of
 computational chemistry and represents and warrants to the
 licensee that it is not a competitor of Gaussian, Inc. and that
 it will not use this program in any manner prohibited above.
 ---------------------------------------------------------------
  

 Cite this work as:
 Gaussian 09, Revision E.01,
 M. J. Frisch, G. W. Trucks, H. B. Schlegel, G. E. Scuseria, 
 M. A. Robb, J. R. Cheeseman, G. Scalmani, V. Barone, B. Mennucci, 
 G. A. Petersson, H. Nakatsuji, M. Caricato, X. Li, H. P. Hratchian, 
 A. F. Izmaylov, J. Bloino, G. Zheng, J. L. Sonnenberg, M. Hada, 
 M. Ehara, K. Toyota, R. Fukuda, J. Hasegawa, M. Ishida, T. Nakajima, 
 Y. Honda, O. Kitao, H. Nakai, T. Vreven, J. A. Montgomery, Jr., 
 J. E. Peralta, F. Ogliaro, M. Bearpark, J. J. Heyd, E. Brothers, 
 K. N. Kudin, V. N. Staroverov, T. Keith, R. Kobayashi, J. Normand, 
 K. Raghavachari, A. Rendell, J. C. Burant, S. S. Iyengar, J. Tomasi, 
 M. Cossi, N. Rega, J. M. Millam, M. Klene, J. E. Knox, J. B. Cross, 
 V. Bakken, C. Adamo, J. Jaramillo, R. Gomperts, R. E. Stratmann, 
 O. Yazyev, A. J. Austin, R. Cammi, C. Pomelli, J. W. Ochterski, 
 R. L. Martin, K. Morokuma, V. G. Zakrzewski, G. A. Voth, 
 P. Salvador, J. J. Dannenberg, S. Dapprich, A. D. Daniels, 
 O. Farkas, J. B. Foresman, J. V. Ortiz, J. Cioslowski, 
 and D. J. Fox, Gaussian, Inc., Wallingford CT, 2013.
 
 ******************************************
 Gaussian 09:  ES64L-G09RevE.01 30-Nov-2015
                14-Nov-2019 
 ******************************************
 %chk=NM3_c2_carboxy.M062X_6-311pGd_opt_GD3.chk
 %mem=196608000
 %nproc=8
 Will use up to    8 processors via shared memory.
 ----------------------------------------------------------------------
 # M062X/6-311+G* SCF=Tight INT(grid=ultrafine) OPT IOP(2/17=4) Empiric
 alDispersion=GD3 maxdisk=2684354560
 ----------------------------------------------------------------------
 1/14=-1,18=20,19=15,26=4,38=1/1,3;
 2/9=110,12=2,17=4,18=5,40=1/2;
 3/5=4,6=6,7=11,11=2,16=1,25=1,30=1,71=1,74=-55,75=-5,124=31/1,2,3;
 4//1;
 5/5=2,32=2,38=5/2;
 6/7=2,8=2,9=2,10=2,28=1/1;
 7//1,2,3,16;
 1/14=-1,18=20,19=15,26=4/3(2);
 2/9=110,17=4/2;
 99//99;
 2/9=110,17=4/2;
 3/5=4,6=6,7=11,11=2,16=1,25=1,30=1,71=1,74=-55,75=-5,124=31/1,2,3;
 4/5=5,16=3,69=1/1;
 5/5=2,32=2,38=5/2;
 7//1,2,3,16;
 1/14=-1,18=20,19=15,26=4/3(-5);
 2/9=110,17=4/2;
 6/7=2,8=2,9=2,10=2,19=2,28=1/1;
 99/9=1/99;
 -------------------------------------
 NM3_c2_carboxy.M062X_6-311pGd_opt_GD3
 -------------------------------------
 Symbolic Z-matrix:
 Charge = -1 Multiplicity = 1
 C                    -5.86652   1.36562   0.15996 
 N                    -4.62912   0.77441   0.05661 
 C                    -3.39058   1.40298   0.10497 
 O                    -3.2408    2.61373   0.23445 
 N                    -2.3632    0.53042  -0.0174 
 C                    -0.99747   0.99011   0.09005 
 C                    -0.0462   -0.10153  -0.38418 
 C                     1.41252   0.31878  -0.23586 
 C                    -6.98425   0.50593   0.0921 
 C                    -8.26038   1.02705   0.18339 
 C                    -8.49572   2.39285   0.34784 
 C                    -7.38373   3.21311   0.41304 
 C                    -6.08188   2.74462   0.32314 
 H                    -4.6417   -0.26009  -0.05127 
 H                    -2.53157  -0.48703  -0.01431 
 H                    -0.7605    1.27035   1.12639 
 H                    -0.87639   1.89693  -0.51028 
 H                    -0.27256  -0.33546  -1.42879 
 H                    -0.24169  -1.01915   0.17834 
 H                     1.62255   1.22782  -0.80733 
 H                     2.09154  -0.46072  -0.58897 
 H                     1.65884   0.52409   0.80988 
 H                    -6.81507  -0.55899  -0.03597 
 Cl                   -7.63393   4.93924   0.61406 
 H                    -5.24102   3.419     0.37483 
 C                    -9.44096   0.10377   0.17184 
 H                    -9.49775   2.79522   0.41326 
 F                    -9.85823  -0.19842   1.4193 
 F                    -10.50647   0.65188  -0.44778 
 F                    -9.19227  -1.05952  -0.43904 
 O                    -4.88783  -1.95562  -0.17905 
 O                    -2.68245  -2.27946   0.00882 
 C                    -3.86234  -2.68007  -0.09825 
 C                    -4.11084  -4.19507  -0.13809 
 C                    -2.8489   -5.0396   -0.03099 
 H                    -4.65184  -4.40635  -1.06575 
 H                    -4.81249  -4.42593   0.66947 
 H                    -2.15882  -4.80787  -0.84398 
 H                    -3.08018  -6.10877  -0.06482 
 H                    -2.32076  -4.82849   0.90036 
 
 Add virtual bond connecting atoms O31        and H14        Dist= 3.25D+00.
 Add virtual bond connecting atoms O32        and H15        Dist= 3.40D+00.

 GradGradGradGradGradGradGradGradGradGradGradGradGradGradGradGradGradGrad
 Berny optimization.
 Initialization pass.
                           ----------------------------
                           !    Initial Parameters    !
                           ! (Angstroms and Degrees)  !
 --------------------------                            --------------------------
 ! Name  Definition              Value          Derivative Info.                !
 --------------------------------------------------------------------------------
 ! R1    R(1,2)                  1.3753         estimate D2E/DX2                !
 ! R2    R(1,9)                  1.4117         estimate D2E/DX2                !
 ! R3    R(1,13)                 1.4052         estimate D2E/DX2                !
 ! R4    R(2,3)                  1.3898         estimate D2E/DX2                !
 ! R5    R(2,14)                 1.0402         estimate D2E/DX2                !
 ! R6    R(3,4)                  1.2268         estimate D2E/DX2                !
 ! R7    R(3,5)                  1.3535         estimate D2E/DX2                !
 ! R8    R(5,6)                  1.445          estimate D2E/DX2                !
 ! R9    R(5,15)                 1.0313         estimate D2E/DX2                !
 ! R10   R(6,7)                  1.5236         estimate D2E/DX2                !
 ! R11   R(6,16)                 1.0994         estimate D2E/DX2                !
 ! R12   R(6,17)                 1.0943         estimate D2E/DX2                !
 ! R13   R(7,8)                  1.5253         estimate D2E/DX2                !
 ! R14   R(7,18)                 1.0941         estimate D2E/DX2                !
 ! R15   R(7,19)                 1.0939         estimate D2E/DX2                !
 ! R16   R(8,20)                 1.0941         estimate D2E/DX2                !
 ! R17   R(8,21)                 1.0924         estimate D2E/DX2                !
 ! R18   R(8,22)                 1.0938         estimate D2E/DX2                !
 ! R19   R(9,10)                 1.3815         estimate D2E/DX2                !
 ! R20   R(9,23)                 1.0858         estimate D2E/DX2                !
 ! R21   R(10,11)                1.3956         estimate D2E/DX2                !
 ! R22   R(10,26)                1.4988         estimate D2E/DX2                !
 ! R23   R(11,12)                1.3833         estimate D2E/DX2                !
 ! R24   R(11,27)                1.0818         estimate D2E/DX2                !
 ! R25   R(12,13)                1.3865         estimate D2E/DX2                !
 ! R26   R(12,24)                1.7557         estimate D2E/DX2                !
 ! R27   R(13,25)                1.0791         estimate D2E/DX2                !
 ! R28   R(14,31)                1.7181         estimate D2E/DX2                !
 ! R29   R(15,32)                1.7989         estimate D2E/DX2                !
 ! R30   R(26,28)                1.3497         estimate D2E/DX2                !
 ! R31   R(26,29)                1.349          estimate D2E/DX2                !
 ! R32   R(26,30)                1.3373         estimate D2E/DX2                !
 ! R33   R(31,33)                1.2582         estimate D2E/DX2                !
 ! R34   R(32,33)                1.2506         estimate D2E/DX2                !
 ! R35   R(33,34)                1.5358         estimate D2E/DX2                !
 ! R36   R(34,35)                1.5222         estimate D2E/DX2                !
 ! R37   R(34,36)                1.0945         estimate D2E/DX2                !
 ! R38   R(34,37)                1.0944         estimate D2E/DX2                !
 ! R39   R(35,38)                1.0913         estimate D2E/DX2                !
 ! R40   R(35,39)                1.0944         estimate D2E/DX2                !
 ! R41   R(35,40)                1.0913         estimate D2E/DX2                !
 ! A1    A(2,1,9)              116.5499         estimate D2E/DX2                !
 ! A2    A(2,1,13)             124.6442         estimate D2E/DX2                !
 ! A3    A(9,1,13)             118.8058         estimate D2E/DX2                !
 ! A4    A(1,2,3)              127.2151         estimate D2E/DX2                !
 ! A5    A(1,2,14)             115.1154         estimate D2E/DX2                !
 ! A6    A(3,2,14)             117.6586         estimate D2E/DX2                !
 ! A7    A(2,3,4)              123.9749         estimate D2E/DX2                !
 ! A8    A(2,3,5)              112.4422         estimate D2E/DX2                !
 ! A9    A(4,3,5)              123.581          estimate D2E/DX2                !
 ! A10   A(3,5,6)              120.3721         estimate D2E/DX2                !
 ! A11   A(3,5,15)             120.7869         estimate D2E/DX2                !
 ! A12   A(6,5,15)             117.8998         estimate D2E/DX2                !
 ! A13   A(5,6,7)              109.8171         estimate D2E/DX2                !
 ! A14   A(5,6,16)             110.7869         estimate D2E/DX2                !
 ! A15   A(5,6,17)             109.112          estimate D2E/DX2                !
 ! A16   A(7,6,16)             109.9652         estimate D2E/DX2                !
 ! A17   A(7,6,17)             110.7267         estimate D2E/DX2                !
 ! A18   A(16,6,17)            106.3831         estimate D2E/DX2                !
 ! A19   A(6,7,8)              111.6783         estimate D2E/DX2                !
 ! A20   A(6,7,18)             108.7336         estimate D2E/DX2                !
 ! A21   A(6,7,19)             109.2303         estimate D2E/DX2                !
 ! A22   A(8,7,18)             110.4635         estimate D2E/DX2                !
 ! A23   A(8,7,19)             110.6127         estimate D2E/DX2                !
 ! A24   A(18,7,19)            105.9397         estimate D2E/DX2                !
 ! A25   A(7,8,20)             111.2076         estimate D2E/DX2                !
 ! A26   A(7,8,21)             111.4933         estimate D2E/DX2                !
 ! A27   A(7,8,22)             111.1041         estimate D2E/DX2                !
 ! A28   A(20,8,21)            107.7399         estimate D2E/DX2                !
 ! A29   A(20,8,22)            107.4684         estimate D2E/DX2                !
 ! A30   A(21,8,22)            107.638          estimate D2E/DX2                !
 ! A31   A(1,9,10)             119.9            estimate D2E/DX2                !
 ! A32   A(1,9,23)             118.6552         estimate D2E/DX2                !
 ! A33   A(10,9,23)            121.4443         estimate D2E/DX2                !
 ! A34   A(9,10,11)            122.1888         estimate D2E/DX2                !
 ! A35   A(9,10,26)            119.6534         estimate D2E/DX2                !
 ! A36   A(11,10,26)           118.0947         estimate D2E/DX2                !
 ! A37   A(10,11,12)           116.7621         estimate D2E/DX2                !
 ! A38   A(10,11,27)           121.8245         estimate D2E/DX2                !
 ! A39   A(12,11,27)           121.4116         estimate D2E/DX2                !
 ! A40   A(11,12,13)           123.4603         estimate D2E/DX2                !
 ! A41   A(11,12,24)           118.282          estimate D2E/DX2                !
 ! A42   A(13,12,24)           118.2572         estimate D2E/DX2                !
 ! A43   A(1,13,12)            118.8825         estimate D2E/DX2                !
 ! A44   A(1,13,25)            119.9615         estimate D2E/DX2                !
 ! A45   A(12,13,25)           121.1559         estimate D2E/DX2                !
 ! A46   A(10,26,28)           111.9829         estimate D2E/DX2                !
 ! A47   A(10,26,29)           112.0499         estimate D2E/DX2                !
 ! A48   A(10,26,30)           113.1357         estimate D2E/DX2                !
 ! A49   A(28,26,29)           105.7433         estimate D2E/DX2                !
 ! A50   A(28,26,30)           106.5561         estimate D2E/DX2                !
 ! A51   A(29,26,30)           106.8894         estimate D2E/DX2                !
 ! A52   A(14,31,33)           116.5325         estimate D2E/DX2                !
 ! A53   A(15,32,33)           113.4029         estimate D2E/DX2                !
 ! A54   A(31,33,32)           126.1583         estimate D2E/DX2                !
 ! A55   A(31,33,34)           115.751          estimate D2E/DX2                !
 ! A56   A(32,33,34)           118.0907         estimate D2E/DX2                !
 ! A57   A(33,34,35)           114.2886         estimate D2E/DX2                !
 ! A58   A(33,34,36)           107.002          estimate D2E/DX2                !
 ! A59   A(33,34,37)           107.0187         estimate D2E/DX2                !
 ! A60   A(35,34,36)           111.2424         estimate D2E/DX2                !
 ! A61   A(35,34,37)           111.2562         estimate D2E/DX2                !
 ! A62   A(36,34,37)           105.5332         estimate D2E/DX2                !
 ! A63   A(34,35,38)           110.7324         estimate D2E/DX2                !
 ! A64   A(34,35,39)           111.3853         estimate D2E/DX2                !
 ! A65   A(34,35,40)           110.7276         estimate D2E/DX2                !
 ! A66   A(38,35,39)           108.546          estimate D2E/DX2                !
 ! A67   A(38,35,40)           106.779          estimate D2E/DX2                !
 ! A68   A(39,35,40)           108.5202         estimate D2E/DX2                !
 ! A69   L(2,14,31,7,-1)       187.6453         estimate D2E/DX2                !
 ! A70   L(5,15,32,7,-1)       175.5513         estimate D2E/DX2                !
 ! A71   L(2,14,31,7,-2)       178.9302         estimate D2E/DX2                !
 ! A72   L(5,15,32,7,-2)       178.7083         estimate D2E/DX2                !
 ! D1    D(9,1,2,3)           -179.4529         estimate D2E/DX2                !
 ! D2    D(9,1,2,14)            -0.6903         estimate D2E/DX2                !
 ! D3    D(13,1,2,3)             0.6658         estimate D2E/DX2                !
 ! D4    D(13,1,2,14)          179.4284         estimate D2E/DX2                !
 ! D5    D(2,1,9,10)          -179.7607         estimate D2E/DX2                !
 ! D6    D(2,1,9,23)            -0.0068         estimate D2E/DX2                !
 ! D7    D(13,1,9,10)            0.1279         estimate D2E/DX2                !
 ! D8    D(13,1,9,23)          179.8818         estimate D2E/DX2                !
 ! D9    D(2,1,13,12)          179.9363         estimate D2E/DX2                !
 ! D10   D(2,1,13,25)            0.0317         estimate D2E/DX2                !
 ! D11   D(9,1,13,12)            0.0574         estimate D2E/DX2                !
 ! D12   D(9,1,13,25)         -179.8472         estimate D2E/DX2                !
 ! D13   D(1,2,3,4)             -0.9785         estimate D2E/DX2                !
 ! D14   D(1,2,3,5)            179.5038         estimate D2E/DX2                !
 ! D15   D(14,2,3,4)          -179.7136         estimate D2E/DX2                !
 ! D16   D(14,2,3,5)             0.7688         estimate D2E/DX2                !
 ! D17   D(1,2,31,33)         -170.2066         estimate D2E/DX2                !
 ! D18   D(3,2,31,33)            7.7636         estimate D2E/DX2                !
 ! D19   D(2,3,5,6)           -176.2854         estimate D2E/DX2                !
 ! D20   D(2,3,5,15)            -7.6195         estimate D2E/DX2                !
 ! D21   D(4,3,5,6)              4.1947         estimate D2E/DX2                !
 ! D22   D(4,3,5,15)           172.8607         estimate D2E/DX2                !
 ! D23   D(3,5,6,7)           -167.5402         estimate D2E/DX2                !
 ! D24   D(3,5,6,16)            70.7912         estimate D2E/DX2                !
 ! D25   D(3,5,6,17)           -46.0062         estimate D2E/DX2                !
 ! D26   D(15,5,6,7)            23.4731         estimate D2E/DX2                !
 ! D27   D(15,5,6,16)          -98.1955         estimate D2E/DX2                !
 ! D28   D(15,5,6,17)          145.0072         estimate D2E/DX2                !
 ! D29   D(3,5,32,33)           12.2649         estimate D2E/DX2                !
 ! D30   D(6,5,32,33)         -179.2787         estimate D2E/DX2                !
 ! D31   D(5,6,7,8)           -177.702          estimate D2E/DX2                !
 ! D32   D(5,6,7,18)            60.1522         estimate D2E/DX2                !
 ! D33   D(5,6,7,19)           -55.0255         estimate D2E/DX2                !
 ! D34   D(16,6,7,8)           -55.5432         estimate D2E/DX2                !
 ! D35   D(16,6,7,18)         -177.689          estimate D2E/DX2                !
 ! D36   D(16,6,7,19)           67.1333         estimate D2E/DX2                !
 ! D37   D(17,6,7,8)            61.736          estimate D2E/DX2                !
 ! D38   D(17,6,7,18)          -60.4098         estimate D2E/DX2                !
 ! D39   D(17,6,7,19)         -175.5875         estimate D2E/DX2                !
 ! D40   D(6,7,8,20)           -58.9777         estimate D2E/DX2                !
 ! D41   D(6,7,8,21)          -179.2463         estimate D2E/DX2                !
 ! D42   D(6,7,8,22)            60.6851         estimate D2E/DX2                !
 ! D43   D(18,7,8,20)           62.1687         estimate D2E/DX2                !
 ! D44   D(18,7,8,21)          -58.0999         estimate D2E/DX2                !
 ! D45   D(18,7,8,22)         -178.1686         estimate D2E/DX2                !
 ! D46   D(19,7,8,20)          179.139          estimate D2E/DX2                !
 ! D47   D(19,7,8,21)           58.8704         estimate D2E/DX2                !
 ! D48   D(19,7,8,22)          -61.1983         estimate D2E/DX2                !
 ! D49   D(1,9,10,11)           -0.2413         estimate D2E/DX2                !
 ! D50   D(1,9,10,26)         -177.2967         estimate D2E/DX2                !
 ! D51   D(23,9,10,11)        -179.9882         estimate D2E/DX2                !
 ! D52   D(23,9,10,26)           2.9564         estimate D2E/DX2                !
 ! D53   D(9,10,11,12)           0.1571         estimate D2E/DX2                !
 ! D54   D(9,10,11,27)         179.6611         estimate D2E/DX2                !
 ! D55   D(26,10,11,12)        177.2563         estimate D2E/DX2                !
 ! D56   D(26,10,11,27)         -3.2397         estimate D2E/DX2                !
 ! D57   D(9,10,26,28)          95.4843         estimate D2E/DX2                !
 ! D58   D(9,10,26,29)        -145.8827         estimate D2E/DX2                !
 ! D59   D(9,10,26,30)         -24.9569         estimate D2E/DX2                !
 ! D60   D(11,10,26,28)        -81.691          estimate D2E/DX2                !
 ! D61   D(11,10,26,29)         36.9421         estimate D2E/DX2                !
 ! D62   D(11,10,26,30)        157.8679         estimate D2E/DX2                !
 ! D63   D(10,11,12,13)          0.0386         estimate D2E/DX2                !
 ! D64   D(10,11,12,24)        179.7958         estimate D2E/DX2                !
 ! D65   D(27,11,12,13)       -179.4676         estimate D2E/DX2                !
 ! D66   D(27,11,12,24)          0.2896         estimate D2E/DX2                !
 ! D67   D(11,12,13,1)          -0.1438         estimate D2E/DX2                !
 ! D68   D(11,12,13,25)        179.7597         estimate D2E/DX2                !
 ! D69   D(24,12,13,1)        -179.901          estimate D2E/DX2                !
 ! D70   D(24,12,13,25)          0.0025         estimate D2E/DX2                !
 ! D71   D(14,31,33,32)         -3.233          estimate D2E/DX2                !
 ! D72   D(14,31,33,34)        176.8056         estimate D2E/DX2                !
 ! D73   D(15,32,33,31)         -1.9617         estimate D2E/DX2                !
 ! D74   D(15,32,33,34)        177.9989         estimate D2E/DX2                !
 ! D75   D(31,33,34,35)       -179.7075         estimate D2E/DX2                !
 ! D76   D(31,33,34,36)         56.6746         estimate D2E/DX2                !
 ! D77   D(31,33,34,37)        -56.0593         estimate D2E/DX2                !
 ! D78   D(32,33,34,35)          0.3278         estimate D2E/DX2                !
 ! D79   D(32,33,34,36)       -123.2901         estimate D2E/DX2                !
 ! D80   D(32,33,34,37)        123.976          estimate D2E/DX2                !
 ! D81   D(33,34,35,38)        -59.0749         estimate D2E/DX2                !
 ! D82   D(33,34,35,39)       -179.9695         estimate D2E/DX2                !
 ! D83   D(33,34,35,40)         59.1718         estimate D2E/DX2                !
 ! D84   D(36,34,35,38)         62.2312         estimate D2E/DX2                !
 ! D85   D(36,34,35,39)        -58.6635         estimate D2E/DX2                !
 ! D86   D(36,34,35,40)       -179.5222         estimate D2E/DX2                !
 ! D87   D(37,34,35,38)        179.5865         estimate D2E/DX2                !
 ! D88   D(37,34,35,39)         58.6919         estimate D2E/DX2                !
 ! D89   D(37,34,35,40)        -62.1668         estimate D2E/DX2                !
 --------------------------------------------------------------------------------
 Trust Radius=3.00D-01 FncErr=1.00D-07 GrdErr=1.00D-06
 Number of steps in this run=    212 maximum allowed number of steps=    240.
 GradGradGradGradGradGradGradGradGradGradGradGradGradGradGradGradGradGrad

                          Input orientation:                          
 ---------------------------------------------------------------------
 Center     Atomic      Atomic             Coordinates (Angstroms)
 Number     Number       Type             X           Y           Z
 ---------------------------------------------------------------------
      1          6           0       -5.866525    1.365620    0.159956
      2          7           0       -4.629123    0.774415    0.056611
      3          6           0       -3.390578    1.402984    0.104965
      4          8           0       -3.240803    2.613734    0.234447
      5          7           0       -2.363200    0.530416   -0.017399
      6          6           0       -0.997466    0.990106    0.090045
      7          6           0       -0.046196   -0.101531   -0.384182
      8          6           0        1.412518    0.318776   -0.235857
      9          6           0       -6.984250    0.505930    0.092098
     10          6           0       -8.260381    1.027047    0.183393
     11          6           0       -8.495719    2.392845    0.347844
     12          6           0       -7.383728    3.213110    0.413037
     13          6           0       -6.081881    2.744624    0.323135
     14          1           0       -4.641705   -0.260092   -0.051265
     15          1           0       -2.531566   -0.487034   -0.014311
     16          1           0       -0.760497    1.270345    1.126389
     17          1           0       -0.876388    1.896933   -0.510282
     18          1           0       -0.272558   -0.335464   -1.428786
     19          1           0       -0.241689   -1.019145    0.178343
     20          1           0        1.622552    1.227820   -0.807330
     21          1           0        2.091544   -0.460717   -0.588974
     22          1           0        1.658837    0.524092    0.809879
     23          1           0       -6.815073   -0.558986   -0.035972
     24         17           0       -7.633933    4.939243    0.614059
     25          1           0       -5.241024    3.419002    0.374828
     26          6           0       -9.440961    0.103765    0.171845
     27          1           0       -9.497753    2.795222    0.413263
     28          9           0       -9.858228   -0.198419    1.419301
     29          9           0      -10.506472    0.651883   -0.447782
     30          9           0       -9.192269   -1.059520   -0.439041
     31          8           0       -4.887829   -1.955619   -0.179048
     32          8           0       -2.682447   -2.279459    0.008821
     33          6           0       -3.862339   -2.680067   -0.098251
     34          6           0       -4.110841   -4.195072   -0.138092
     35          6           0       -2.848904   -5.039605   -0.030992
     36          1           0       -4.651844   -4.406353   -1.065750
     37          1           0       -4.812486   -4.425928    0.669466
     38          1           0       -2.158821   -4.807867   -0.843982
     39          1           0       -3.080178   -6.108768   -0.064815
     40          1           0       -2.320757   -4.828489    0.900357
 ---------------------------------------------------------------------
                    Distance matrix (angstroms):
                    1          2          3          4          5
     1  C    0.000000
     2  N    1.375270   0.000000
     3  C    2.476839   1.389759   0.000000
     4  O    2.908222   2.311310   1.226831   0.000000
     5  N    3.605870   2.280223   1.353459   2.274604   0.000000
     6  C    4.884018   3.638210   2.428514   2.773009   1.445023
     7  C    6.027010   4.686662   3.699693   4.238028   2.429485
     8  C    7.364579   6.065853   4.935727   5.209742   3.787950
     9  C    1.411730   2.370647   3.703964   4.298430   4.622412
    10  C    2.417794   3.642243   4.884921   5.264631   5.921461
    11  C    2.828985   4.201750   5.205889   5.260779   6.419488
    12  C    2.403992   3.696231   4.395078   4.189866   5.708574
    13  C    1.405226   2.462370   3.015080   2.845474   4.341344
    14  H    2.046396   1.040192   2.086995   3.209834   2.411977
    15  H    3.818985   2.448679   2.079494   3.190558   1.031292
    16  H    5.197556   4.044334   2.824576   2.958407   2.103427
    17  H    5.062902   3.957832   2.635084   2.580481   2.078680
    18  H    6.058898   4.734753   3.885440   4.502731   2.666936
    19  H    6.109518   4.741439   3.973360   4.711225   2.634438
    20  H    7.552543   6.327354   5.098474   5.163166   4.122692
    21  H    8.199223   6.863650   5.831689   6.210007   4.599325
    22  H    7.600108   6.337864   5.173582   5.357630   4.106241
    23  H    2.154586   2.562208   3.949222   4.786929   4.583265
    24  Cl   4.012571   5.165794   5.547104   4.985147   6.900515
    25  H    2.157267   2.733044   2.749783   2.160798   4.096296
    26  C    3.790648   4.859715   6.188665   6.689231   7.093133
    27  H    3.910722   5.283411   6.271440   6.262135   7.497777
    28  F    4.468317   5.490617   6.791352   7.287139   7.666208
    29  F    4.733696   5.900226   7.176742   7.556735   8.155542
    30  F    4.159408   4.942802   6.326096   7.026118   7.024376
    31  O    3.478993   2.752371   3.688175   4.874695   3.546865
    32  O    4.842292   3.621875   3.751144   4.930112   2.828075
    33  C    4.522279   3.541946   4.115235   5.340535   3.544172
    34  C    5.838882   5.000232   5.649432   6.874269   5.039747
    35  C    7.083036   6.081092   6.466749   7.667961   5.591174
    36  H    6.024406   5.300996   6.058858   7.277579   5.541536
    37  H    5.908690   5.239539   6.026333   7.226082   5.571008
    38  H    7.270963   6.170521   6.402531   7.577193   5.405764
    39  H    7.980020   7.056357   7.520079   8.729112   6.677955
    40  H    7.175489   6.118251   6.372474   7.528386   5.437090
                    6          7          8          9         10
     6  C    0.000000
     7  C    1.523640   0.000000
     8  C    2.522879   1.525288   0.000000
     9  C    6.006332   6.980863   8.405254   0.000000
    10  C    7.263609   8.310756   9.707852   1.381451   0.000000
    11  C    7.632689   8.840375  10.139805   2.431130   1.395648
    12  C    6.769817   8.090846   9.282898   2.755251   2.366459
    13  C    5.383674   6.710469   7.897040   2.424747   2.777671
    14  H    3.855314   4.610280   6.084635   2.468777   3.847936
    15  H    2.132205   2.542142   4.031651   4.563299   5.928815
    16  H    1.099408   2.161966   2.735543   6.355249   7.562850
    17  H    1.094252   2.167713   2.793740   6.293149   7.467344
    18  H    2.142306   1.094149   2.165777   6.933098   8.262014
    19  H    2.148508   1.093924   2.167486   6.913423   8.275647
    20  H    2.779619   2.175074   1.094101   8.683729   9.934496
    21  H    3.479646   2.177357   1.092417   9.152503  10.486770
    22  H    2.791286   2.173551   1.093797   8.672860   9.951700
    23  H    6.021639   6.793248   8.276695   1.085849   2.156974
    24  Cl   7.740347   9.164041  10.193594   4.510964   3.985372
    25  H    4.897798   6.321115   7.365729   3.406577   3.856762
    26  C    8.490283   9.413444  10.863262   2.490687   1.498783
    27  H    8.695850   9.917613  11.206613   3.414924   2.170340
    28  F    9.038397   9.976869  11.403366   3.243042   2.362700
    29  F    9.530208  10.487567  11.925527   3.566346   2.363061
    30  F    8.463788   9.196272  10.695910   2.758277   2.368460
    31  O    4.887191   5.188558   6.698542   3.244646   4.516831
    32  O    3.679105   3.442040   4.855865   5.125509   6.486664
    33  C    4.659734   4.614494   6.069276   4.464654   5.758888
    34  C    6.052373   5.773991   7.133854   5.514425   6.677766
    35  C    6.308716   5.688980   6.849375   6.918757   8.132300
    36  H    6.619072   6.340980   7.732532   5.559789   6.641064
    37  H    6.650078   6.521358   7.879245   5.419699   6.469867
    38  H    5.986456   5.179209   6.277480   7.238609   8.504749
    39  H    7.399709   6.737503   7.843908   7.682489   8.821336
    40  H    6.021940   5.400723   6.459309   7.131443   8.371408
                   11         12         13         14         15
    11  C    0.000000
    12  C    1.383332   0.000000
    13  C    2.439461   1.386494   0.000000
    14  H    4.695827   4.449427   3.352999   0.000000
    15  H    6.632947   6.116958   4.812715   2.122629   0.000000
    16  H    7.854922   6.939049   5.579951   4.335076   2.743404
    17  H    7.683522   6.703008   5.339506   4.363607   2.944300
    18  H    8.844233   8.158028   6.804734   4.581778   2.669612
    19  H    8.933052   8.305166   6.949443   4.470908   2.358769
    20  H   10.250421   9.302890   7.933281   6.482780   4.563585
    21  H   11.005025  10.211847   8.826723   6.757664   4.658763
    22  H   10.335411   9.442261   8.067615   6.407289   4.388752
    23  H    3.418361   3.841053   3.402994   2.193879   4.284166
    24  Cl   2.701423   1.755718   2.703674   6.035658   7.474857
    25  H    3.412736   2.152913   1.079120   3.751863   4.769666
    26  C    2.482810   3.736095   4.275563   4.818197   6.937105
    27  H    1.081785   2.154932   3.417435   5.756035   7.712574
    28  F    3.117548   4.332926   4.911606   5.420192   7.471179
    29  F    2.776166   4.129458   4.954885   5.948481   8.067475
    30  F    3.608767   4.717227   4.972619   4.636496   6.698739
    31  O    5.674824   5.770255   4.875472   1.718056   2.781340
    32  O    7.465889   7.241116   6.074237   2.814275   1.798913
    33  C    6.884885   6.884122   5.876326   2.542813   2.566592
    34  C    7.928678   8.117678   7.228908   3.971576   4.032241
    35  C    9.341914   9.427041   8.436336   5.104732   4.563648
    36  H    7.937425   8.228379   7.423643   4.268578   4.578445
    37  H    7.756630   8.064239   7.290276   4.231171   4.602720
    38  H    9.665764   9.654835   8.590267   5.241696   4.415528
    39  H   10.088400  10.278439   9.356457   6.053558   5.648665
    40  H    9.517515   9.515171   8.475334   5.211779   4.441767
                   16         17         18         19         20
    16  H    0.000000
    17  H    1.756341   0.000000
    18  H    3.057062   2.488344   0.000000
    19  H    2.531742   3.062770   1.746780   0.000000
    20  H    3.069202   2.603969   2.534069   3.081526   0.000000
    21  H    3.751424   3.791217   2.511962   2.518848   1.766009
    22  H    2.551519   3.170944   3.079082   2.528324   1.764061
    23  H    6.430819   6.443950   6.692862   6.592955   8.659168
    24  Cl   7.808163   7.495612   9.283619   9.504604  10.073605
    25  H    5.025604   4.706395   6.483416   6.687982   7.301195
    26  C    8.810364   8.776825   9.317432   9.267554  11.163494
    27  H    8.897946   8.717098   9.914563  10.013955  11.296362
    28  F    9.220183   9.422698  10.000772   9.730950  11.781356
    29  F    9.891640   9.710436  10.328128  10.418740  12.148013
    30  F    8.886711   8.826073   9.003616   8.971938  11.060195
    31  O    5.398692   5.571672   5.048512   4.753033   7.274207
    32  O    4.188551   4.579691   3.413707   2.752167   5.612497
    33  C    5.169809   5.480383   4.489322   3.993027   6.771883
    34  C    6.534103   6.907440   5.594183   5.015673   7.920065
    35  C    6.746588   7.227454   5.542593   4.796404   7.738039
    36  H    7.223085   7.368448   5.990165   5.698281   8.436749
    37  H    7.005350   7.540772   6.461076   5.721849   8.692267
    38  H    6.540821   6.834496   4.889006   4.367489   7.122475
    39  H    7.826315   8.315431   6.563093   5.832702   8.746001
    40  H    6.299309   7.021924   5.459607   4.399424   7.425953
                   21         22         23         24         25
    21  H    0.000000
    22  H    1.764617   0.000000
    23  H    8.924310   8.584619   0.000000
    24  Cl  11.188912  10.290164   5.596749   0.000000
    25  H    8.351508   7.495189   4.297765   2.845062   0.000000
    26  C   11.571350  11.126063   2.716194   5.180999   5.354575
    27  H   12.079629  11.392315   4.318483   2.847976   4.302363
    28  F   12.120191  11.555787   3.392435   5.656101   5.957788
    29  F   12.647839  12.230814   3.906689   5.268818   6.004880
    30  F   11.300685  11.036944   2.462531   6.286700   6.027594
    31  O    7.149435   7.070062   2.384392   7.463861   5.414617
    32  O    5.143556   5.229564   4.476677   8.774576   6.257215
    33  C    6.372994   6.447846   3.636138   8.531482   6.270823
    34  C    7.253846   7.513877   4.532595   9.819043   7.714566
    35  C    6.759112   7.209822   5.983851  11.085576   8.799714
    36  H    7.827429   8.225082   4.532354   9.952626   7.978633
    37  H    8.060534   8.148647   4.411489   9.781107   7.862149
    38  H    6.085093   6.763103   6.355042  11.274258   8.869434
    39  H    7.676063   8.198670   6.689571  11.968964   9.779619
    40  H    6.384665   6.670494   6.269310  11.122967   8.765002
                   26         27         28         29         30
    26  C    0.000000
    27  H    2.702860   0.000000
    28  F    1.349657   3.178670   0.000000
    29  F    1.348957   2.520479   2.151566   0.000000
    30  F    1.337259   3.959645   2.153702   2.157802   0.000000
    31  O    5.009511   6.646257   5.508842   6.200035   4.404406
    32  O    7.168253   8.506725   7.603422   8.367594   6.638269
    33  C    6.240488   7.873902   6.664250   7.441006   5.581260
    34  C    6.854651   8.842343   7.171552   8.030752   5.978559
    35  C    8.363648  10.285381   8.641241   9.550136   7.499724
    36  H    6.693911   8.805282   7.140631   7.761720   5.675342
    37  H    6.495269   8.611758   6.625224   7.710635   5.634180
    38  H    8.842262  10.641784   9.254746   9.982441   7.980193
    39  H    8.894444  10.986122   9.114647  10.050021   7.936788
    40  H    8.692247  10.481770   8.861169   9.942731   7.950899
                   31         32         33         34         35
    31  O    0.000000
    32  O    2.236935   0.000000
    33  C    1.258166   1.250638   0.000000
    34  C    2.370767   2.394048   1.535767   0.000000
    35  C    3.700014   2.765447   2.568851   1.522232   0.000000
    36  H    2.616873   3.091425   2.130595   1.094474   2.173091
    37  H    2.613059   3.095294   2.130774   1.094418   2.173222
    38  H    4.003117   2.719247   2.825885   2.164297   1.091270
    39  H    4.530927   3.850613   3.516943   2.174827   1.094414
    40  H    4.001044   2.724557   2.826555   2.164254   1.091293
                   36         37         38         39         40
    36  H    0.000000
    37  H    1.742747   0.000000
    38  H    2.534869   3.078691   0.000000
    39  H    2.523931   2.524285   1.774357   0.000000
    40  H    3.078595   2.534577   1.751961   1.774089   0.000000
 Stoichiometry    C14H17ClF3N2O3(1-)
 Framework group  C1[X(C14H17ClF3N2O3)]
 Deg. of freedom   114
 Full point group                 C1      NOp   1
 Largest Abelian subgroup         C1      NOp   1
 Largest concise Abelian subgroup C1      NOp   1
                         Standard orientation:                         
 ---------------------------------------------------------------------
 Center     Atomic      Atomic             Coordinates (Angstroms)
 Number     Number       Type             X           Y           Z
 ---------------------------------------------------------------------
      1          6           0        0.895268   -0.685751   -0.033761
      2          7           0       -0.478356   -0.622884   -0.057713
      3          6           0       -1.369589   -1.687867   -0.003456
      4          8           0       -1.028605   -2.864736    0.058379
      5          7           0       -2.660742   -1.283321   -0.036920
      6          6           0       -3.731363   -2.245362    0.090903
      7          6           0       -5.057530   -1.595079   -0.283118
      8          6           0       -6.226682   -2.559042   -0.108869
      9          6           0        1.584338    0.545132   -0.089347
     10          6           0        2.965603    0.562357   -0.074578
     11          6           0        3.722980   -0.607584   -0.000754
     12          6           0        3.023681   -1.799874    0.054337
     13          6           0        1.639345   -1.875606    0.038708
     14          1           0       -0.875638    0.337350   -0.103723
     15          1           0       -2.901951   -0.282323    0.021243
     16          1           0       -3.782129   -2.638681    1.116291
     17          1           0       -3.523165   -3.101431   -0.558085
     18          1           0       -4.998946   -1.248134   -1.319149
     19          1           0       -5.203626   -0.698374    0.326181
     20          1           0       -6.097791   -3.453196   -0.726065
     21          1           0       -7.174235   -2.094009   -0.390405
     22          1           0       -6.314692   -2.887550    0.930712
     23          1           0        1.006980    1.462941   -0.147261
     24         17           0        3.937079   -3.296697    0.142505
     25          1           0        1.131760   -2.827022    0.079510
     26          6           0        3.690849    1.873984   -0.072396
     27          1           0        4.804564   -0.587540    0.005000
     28          9           0        4.026600    2.263567    1.175431
     29          9           0        4.849216    1.813304   -0.761010
     30          9           0        2.975073    2.871041   -0.603248
     31          8           0       -1.316708    1.997466   -0.138187
     32          8           0       -3.459872    1.423292    0.146501
     33          6           0       -2.537084    2.258202    0.022067
     34          6           0       -2.900756    3.749687    0.064419
     35          6           0       -4.383803    4.027070    0.266461
     36          1           0       -2.537536    4.194244   -0.867415
     37          1           0       -2.300391    4.203338    0.859097
     38          1           0       -4.973499    3.577363   -0.534096
     39          1           0       -4.589377    5.101773    0.288684
     40          1           0       -4.735061    3.587549    1.201534
 ---------------------------------------------------------------------
 Rotational constants (GHZ):      0.2632482      0.1215245      0.0847147
 Standard basis: 6-311+G(d) (5D, 7F)
 There are   588 symmetry adapted cartesian basis functions of A   symmetry.
 There are   565 symmetry adapted basis functions of A   symmetry.
   565 basis functions,   930 primitive gaussians,   588 cartesian basis functions
    92 alpha electrons       92 beta electrons
       nuclear repulsion energy      2094.0733743848 Hartrees.
 NAtoms=   40 NActive=   40 NUniq=   40 SFac= 1.00D+00 NAtFMM=   60 NAOKFM=F Big=F
 Integral buffers will be    131072 words long.
 Raffenetti 2 integral format.
 Two-electron integral symmetry is turned on.
 Nuclear repulsion after empirical dispersion term =     2094.0708862369 Hartrees.
 One-electron integrals computed using PRISM.
 NBasis=   565 RedAO= T EigKep=  1.10D-06  NBF=   565
 NBsUse=   563 1.00D-06 EigRej=  4.94D-07 NBFU=   563
 ExpMin= 4.38D-02 ExpMax= 1.06D+05 ExpMxC= 3.62D+03 IAcc=3 IRadAn=         5 AccDes= 0.00D+00
 Harris functional with IExCor= 1009 and IRadAn=       5 diagonalized for initial guess.
 HarFok:  IExCor= 1009 AccDes= 0.00D+00 IRadAn=         5 IDoV= 1 UseB2=F ITyADJ=14
 ICtDFT=  3500011 ScaDFX=  1.000000  1.000000  1.000000  1.000000
 FoFCou: FMM=F IPFlag=           0 FMFlag=      100000 FMFlg1=           0
         NFxFlg=           0 DoJE=T BraDBF=F KetDBF=T FulRan=T
         wScrn=  0.000000 ICntrl=     500 IOpCl=  0 I1Cent=   200000004 NGrid=           0
         NMat0=    1 NMatS0=      1 NMatT0=    0 NMatD0=    1 NMtDS0=    0 NMtDT0=    0
 Petite list used in FoFCou.
 Requested convergence on RMS density matrix=1.00D-08 within 128 cycles.
 Requested convergence on MAX density matrix=1.00D-06.
 Requested convergence on             energy=1.00D-06.
 No special actions if energy rises.
 SCF Done:  E(RM062X) =  -1638.67839665     A.U. after   17 cycles
            NFock= 17  Conv=0.28D-08     -V/T= 2.0029

 **********************************************************************

            Population analysis using the SCF density.

 **********************************************************************

 Orbital symmetries:
       Occupied  (A) (A) (A) (A) (A) (A) (A) (A) (A) (A) (A) (A)
                 (A) (A) (A) (A) (A) (A) (A) (A) (A) (A) (A) (A)
                 (A) (A) (A) (A) (A) (A) (A) (A) (A) (A) (A) (A)
                 (A) (A) (A) (A) (A) (A) (A) (A) (A) (A) (A) (A)
                 (A) (A) (A) (A) (A) (A) (A) (A) (A) (A) (A) (A)
                 (A) (A) (A) (A) (A) (A) (A) (A) (A) (A) (A) (A)
                 (A) (A) (A) (A) (A) (A) (A) (A) (A) (A) (A) (A)
                 (A) (A) (A) (A) (A) (A) (A) (A)
       Virtual   (A) (A) (A) (A) (A) (A) (A) (A) (A) (A) (A) (A)
                 (A) (A) (A) (A) (A) (A) (A) (A) (A) (A) (A) (A)
                 (A) (A) (A) (A) (A) (A) (A) (A) (A) (A) (A) (A)
                 (A) (A) (A) (A) (A) (A) (A) (A) (A) (A) (A) (A)
                 (A) (A) (A) (A) (A) (A) (A) (A) (A) (A) (A) (A)
                 (A) (A) (A) (A) (A) (A) (A) (A) (A) (A) (A) (A)
                 (A) (A) (A) (A) (A) (A) (A) (A) (A) (A) (A) (A)
                 (A) (A) (A) (A) (A) (A) (A) (A) (A) (A) (A) (A)
                 (A) (A) (A) (A) (A) (A) (A) (A) (A) (A) (A) (A)
                 (A) (A) (A) (A) (A) (A) (A) (A) (A) (A) (A) (A)
                 (A) (A) (A) (A) (A) (A) (A) (A) (A) (A) (A) (A)
                 (A) (A) (A) (A) (A) (A) (A) (A) (A) (A) (A) (A)
                 (A) (A) (A) (A) (A) (A) (A) (A) (A) (A) (A) (A)
                 (A) (A) (A) (A) (A) (A) (A) (A) (A) (A) (A) (A)
                 (A) (A) (A) (A) (A) (A) (A) (A) (A) (A) (A) (A)
                 (A) (A) (A) (A) (A) (A) (A) (A) (A) (A) (A) (A)
                 (A) (A) (A) (A) (A) (A) (A) (A) (A) (A) (A) (A)
                 (A) (A) (A) (A) (A) (A) (A) (A) (A) (A) (A) (A)
                 (A) (A) (A) (A) (A) (A) (A) (A) (A) (A) (A) (A)
                 (A) (A) (A) (A) (A) (A) (A) (A) (A) (A) (A) (A)
                 (A) (A) (A) (A) (A) (A) (A) (A) (A) (A) (A) (A)
                 (A) (A) (A) (A) (A) (A) (A) (A) (A) (A) (A) (A)
                 (A) (A) (A) (A) (A) (A) (A) (A) (A) (A) (A) (A)
                 (A) (A) (A) (A) (A) (A) (A) (A) (A) (A) (A) (A)
                 (A) (A) (A) (A) (A) (A) (A) (A) (A) (A) (A) (A)
                 (A) (A) (A) (A) (A) (A) (A) (A) (A) (A) (A) (A)
                 (A) (A) (A) (A) (A) (A) (A) (A) (A) (A) (A) (A)
                 (A) (A) (A) (A) (A) (A) (A) (A) (A) (A) (A) (A)
                 (A) (A) (A) (A) (A) (A) (A) (A) (A) (A) (A) (A)
                 (A) (A) (A) (A) (A) (A) (A) (A) (A) (A) (A) (A)
                 (A) (A) (A) (A) (A) (A) (A) (A) (A) (A) (A) (A)
                 (A) (A) (A) (A) (A) (A) (A) (A) (A) (A) (A) (A)
                 (A) (A) (A) (A) (A) (A) (A) (A) (A) (A) (A) (A)
                 (A) (A) (A) (A) (A) (A) (A) (A) (A) (A) (A) (A)
                 (A) (A) (A) (A) (A) (A) (A) (A) (A) (A) (A) (A)
                 (A) (A) (A) (A) (A) (A) (A) (A) (A) (A) (A) (A)
                 (A) (A) (A) (A) (A) (A) (A) (A) (A) (A) (A) (A)
                 (A) (A) (A) (A) (A) (A) (A) (A) (A) (A) (A) (A)
                 (A) (A) (A) (A) (A) (A) (A) (A) (A) (A) (A) (A)
                 (A) (A) (A)
 The electronic state is 1-A.
 Alpha  occ. eigenvalues -- -102.58697 -25.18819 -25.18745 -25.18376 -19.46916
 Alpha  occ. eigenvalues --  -19.44487 -19.44224 -14.65271 -14.63383 -10.71108
 Alpha  occ. eigenvalues --  -10.55267 -10.51815 -10.50690 -10.50309 -10.48062
 Alpha  occ. eigenvalues --  -10.46341 -10.46164 -10.45409 -10.45070 -10.44203
 Alpha  occ. eigenvalues --  -10.43562 -10.41694 -10.41652  -9.72971  -7.45470
 Alpha  occ. eigenvalues --   -7.44821  -7.44813  -1.37970  -1.28708  -1.28214
 Alpha  occ. eigenvalues --   -1.05754  -1.03550  -0.94441  -0.93691  -0.91378
 Alpha  occ. eigenvalues --   -0.89748  -0.85315  -0.79154  -0.77663  -0.74998
 Alpha  occ. eigenvalues --   -0.74186  -0.71638  -0.68179  -0.64055  -0.61874
 Alpha  occ. eigenvalues --   -0.61372  -0.60315  -0.59660  -0.58051  -0.57249
 Alpha  occ. eigenvalues --   -0.53651  -0.51481  -0.49333  -0.48698  -0.48371
 Alpha  occ. eigenvalues --   -0.47982  -0.46146  -0.45248  -0.44839  -0.44256
 Alpha  occ. eigenvalues --   -0.43107  -0.42996  -0.42360  -0.41628  -0.41293
 Alpha  occ. eigenvalues --   -0.41062  -0.40578  -0.39789  -0.38827  -0.38366
 Alpha  occ. eigenvalues --   -0.37814  -0.36826  -0.35887  -0.35434  -0.34332
 Alpha  occ. eigenvalues --   -0.33822  -0.33044  -0.32724  -0.32057  -0.31008
 Alpha  occ. eigenvalues --   -0.30661  -0.29863  -0.29190  -0.28826  -0.27175
 Alpha  occ. eigenvalues --   -0.23241  -0.21843  -0.20393  -0.19921  -0.19472
 Alpha  occ. eigenvalues --   -0.19269  -0.16152
 Alpha virt. eigenvalues --    0.09326   0.09582   0.09788   0.10438   0.10824
 Alpha virt. eigenvalues --    0.11149   0.11682   0.11926   0.12263   0.12553
 Alpha virt. eigenvalues --    0.13286   0.13375   0.13895   0.14039   0.14662
 Alpha virt. eigenvalues --    0.14959   0.15028   0.15769   0.16057   0.16260
 Alpha virt. eigenvalues --    0.16618   0.16863   0.17418   0.17603   0.18233
 Alpha virt. eigenvalues --    0.18737   0.19096   0.19352   0.20101   0.20210
 Alpha virt. eigenvalues --    0.20519   0.20785   0.21059   0.21703   0.22143
 Alpha virt. eigenvalues --    0.22227   0.22434   0.22746   0.23433   0.24054
 Alpha virt. eigenvalues --    0.24286   0.24908   0.25315   0.25587   0.26205
 Alpha virt. eigenvalues --    0.26796   0.27366   0.27634   0.27864   0.28096
 Alpha virt. eigenvalues --    0.28927   0.29158   0.29408   0.29779   0.30188
 Alpha virt. eigenvalues --    0.30742   0.30855   0.31093   0.31440   0.31857
 Alpha virt. eigenvalues --    0.31896   0.32283   0.32859   0.32920   0.33380
 Alpha virt. eigenvalues --    0.33714   0.33944   0.34122   0.34925   0.35165
 Alpha virt. eigenvalues --    0.35471   0.35555   0.35865   0.36128   0.36509
 Alpha virt. eigenvalues --    0.36711   0.36890   0.37156   0.37459   0.38139
 Alpha virt. eigenvalues --    0.38285   0.38418   0.38940   0.39177   0.39539
 Alpha virt. eigenvalues --    0.39650   0.40176   0.40572   0.40784   0.41173
 Alpha virt. eigenvalues --    0.41808   0.42386   0.42586   0.43007   0.43395
 Alpha virt. eigenvalues --    0.43777   0.43973   0.44423   0.44788   0.45041
 Alpha virt. eigenvalues --    0.45617   0.46106   0.46627   0.47127   0.47376
 Alpha virt. eigenvalues --    0.47620   0.47968   0.48746   0.49337   0.49579
 Alpha virt. eigenvalues --    0.49724   0.50038   0.50584   0.51291   0.51955
 Alpha virt. eigenvalues --    0.52567   0.53202   0.53353   0.54297   0.54326
 Alpha virt. eigenvalues --    0.55129   0.55659   0.56405   0.56992   0.57681
 Alpha virt. eigenvalues --    0.58030   0.58262   0.58543   0.59118   0.60324
 Alpha virt. eigenvalues --    0.60475   0.61161   0.61631   0.62787   0.63180
 Alpha virt. eigenvalues --    0.63834   0.64527   0.65512   0.65731   0.66956
 Alpha virt. eigenvalues --    0.67409   0.67752   0.68160   0.68931   0.69841
 Alpha virt. eigenvalues --    0.70086   0.71442   0.71698   0.72752   0.73605
 Alpha virt. eigenvalues --    0.74106   0.75640   0.75851   0.76487   0.76772
 Alpha virt. eigenvalues --    0.76976   0.77906   0.78391   0.78847   0.79426
 Alpha virt. eigenvalues --    0.79548   0.80284   0.81002   0.81134   0.81530
 Alpha virt. eigenvalues --    0.82514   0.82826   0.83607   0.83998   0.84546
 Alpha virt. eigenvalues --    0.84690   0.85503   0.86207   0.86880   0.87640
 Alpha virt. eigenvalues --    0.88326   0.88549   0.89127   0.89498   0.89866
 Alpha virt. eigenvalues --    0.90250   0.90683   0.91219   0.92398   0.93045
 Alpha virt. eigenvalues --    0.93774   0.94418   0.98557   0.99303   0.99811
 Alpha virt. eigenvalues --    1.00732   1.01324   1.02902   1.03074   1.03341
 Alpha virt. eigenvalues --    1.04845   1.05358   1.06814   1.08025   1.08843
 Alpha virt. eigenvalues --    1.09159   1.09683   1.10436   1.11566   1.12487
 Alpha virt. eigenvalues --    1.12785   1.14350   1.15782   1.16741   1.17319
 Alpha virt. eigenvalues --    1.18334   1.19558   1.20106   1.21037   1.23147
 Alpha virt. eigenvalues --    1.24792   1.25955   1.27166   1.28528   1.28969
 Alpha virt. eigenvalues --    1.29891   1.30198   1.33080   1.33695   1.34483
 Alpha virt. eigenvalues --    1.35138   1.35704   1.36500   1.37600   1.38676
 Alpha virt. eigenvalues --    1.39166   1.40102   1.41725   1.42752   1.44493
 Alpha virt. eigenvalues --    1.44995   1.45774   1.47642   1.49178   1.50700
 Alpha virt. eigenvalues --    1.52122   1.53122   1.55624   1.56338   1.56581
 Alpha virt. eigenvalues --    1.56656   1.57140   1.57599   1.58240   1.59783
 Alpha virt. eigenvalues --    1.60535   1.61624   1.63144   1.63824   1.63994
 Alpha virt. eigenvalues --    1.64674   1.66232   1.67366   1.67681   1.69354
 Alpha virt. eigenvalues --    1.69763   1.70283   1.71026   1.72013   1.72985
 Alpha virt. eigenvalues --    1.73160   1.73992   1.75200   1.75500   1.76883
 Alpha virt. eigenvalues --    1.78889   1.79752   1.81738   1.83071   1.85983
 Alpha virt. eigenvalues --    1.86296   1.88077   1.88596   1.89175   1.89365
 Alpha virt. eigenvalues --    1.90513   1.91539   1.92095   1.93485   1.93802
 Alpha virt. eigenvalues --    1.94469   1.96644   1.97414   1.98790   2.00648
 Alpha virt. eigenvalues --    2.01592   2.02102   2.04488   2.05291   2.05903
 Alpha virt. eigenvalues --    2.08804   2.09605   2.10808   2.12359   2.14270
 Alpha virt. eigenvalues --    2.15240   2.16794   2.19404   2.20904   2.22258
 Alpha virt. eigenvalues --    2.24132   2.27494   2.27638   2.29610   2.30352
 Alpha virt. eigenvalues --    2.32294   2.35434   2.38214   2.39646   2.41180
 Alpha virt. eigenvalues --    2.41916   2.44615   2.45528   2.47782   2.49930
 Alpha virt. eigenvalues --    2.51645   2.57501   2.58425   2.59899   2.63409
 Alpha virt. eigenvalues --    2.64165   2.64648   2.64976   2.66158   2.67960
 Alpha virt. eigenvalues --    2.69296   2.69827   2.71133   2.72754   2.73453
 Alpha virt. eigenvalues --    2.75065   2.77220   2.77969   2.78920   2.81498
 Alpha virt. eigenvalues --    2.82165   2.87807   2.88317   2.89815   2.93229
 Alpha virt. eigenvalues --    2.95274   2.96874   2.98374   3.02851   3.03066
 Alpha virt. eigenvalues --    3.03949   3.06676   3.08524   3.09194   3.10921
 Alpha virt. eigenvalues --    3.11700   3.12410   3.13847   3.14299   3.15163
 Alpha virt. eigenvalues --    3.17338   3.17365   3.19708   3.22710   3.23235
 Alpha virt. eigenvalues --    3.25512   3.27021   3.28648   3.31565   3.34592
 Alpha virt. eigenvalues --    3.36188   3.36665   3.37383   3.37972   3.40933
 Alpha virt. eigenvalues --    3.44113   3.44701   3.47537   3.48860   3.50650
 Alpha virt. eigenvalues --    3.52368   3.53871   3.55111   3.55160   3.55800
 Alpha virt. eigenvalues --    3.58405   3.60240   3.62169   3.72019   3.75912
 Alpha virt. eigenvalues --    3.77843   3.83840   3.84399   3.86714   3.90248
 Alpha virt. eigenvalues --    3.90315   3.91209   3.93589   3.94206   3.95587
 Alpha virt. eigenvalues --    3.96196   3.97064   3.97640   4.01361   4.07957
 Alpha virt. eigenvalues --    4.10413   4.12248   4.12715   4.13484   4.17806
 Alpha virt. eigenvalues --    4.18590   4.19087   4.22973   4.31325   4.33076
 Alpha virt. eigenvalues --    4.35210   4.36786   4.39544   4.76433   4.81547
 Alpha virt. eigenvalues --    4.85969   4.91257   5.05624   5.07714   5.11282
 Alpha virt. eigenvalues --    5.30930   5.33079   5.33910   5.36158   5.53428
 Alpha virt. eigenvalues --    5.56212   5.58098   5.90377   6.03741   6.16440
 Alpha virt. eigenvalues --    6.56113   6.58388   6.60621   6.62136   6.63746
 Alpha virt. eigenvalues --    6.65577   6.70869   6.96028   6.99509  10.06230
 Alpha virt. eigenvalues --   23.57305  23.69492  23.73692  23.75316  23.85990
 Alpha virt. eigenvalues --   23.91566  23.92377  24.02475  24.07107  24.09649
 Alpha virt. eigenvalues --   24.10649  24.19033  24.23230  24.30531  26.03106
 Alpha virt. eigenvalues --   26.34344  26.80956  35.76902  35.86693  50.21284
 Alpha virt. eigenvalues --   50.28527  50.29700  66.98670  67.00240  67.05239
 Alpha virt. eigenvalues --  216.16418
          Condensed to atoms (all electrons):
               1          2          3          4          5          6
     1  C   46.650299  -0.242874  -0.255067  -0.421005  -0.273243  -0.789423
     2  N   -0.242874   8.341452   0.219199  -0.061947  -0.685688  -0.741475
     3  C   -0.255067   0.219199  10.194017   0.728117   0.208740  -1.759100
     4  O   -0.421005  -0.061947   0.728117   8.114086  -0.198176  -0.136442
     5  N   -0.273243  -0.685688   0.208740  -0.198176   8.149928   0.782881
     6  C   -0.789423  -0.741475  -1.759100  -0.136442   0.782881   9.553995
     7  C    0.015678   0.070939   0.474532   0.024052  -0.090265  -1.196888
     8  C   -0.021130  -0.025565  -0.364853  -0.001546  -0.034597   0.575053
     9  C   -6.139691   0.630255  -2.206739  -0.194647  -0.731198  -0.716591
    10  C   -8.749468   0.376107  -2.221562  -0.018017  -0.173181  -0.272708
    11  C  -17.588117  -0.003348  -0.074842  -0.049299  -0.016590   0.005614
    12  C   -3.630440  -0.059938   0.678841   0.189448   0.200751   0.189449
    13  C    3.309323  -0.371875   0.578171   0.431354   0.302176   0.218342
    14  H   -0.119500   0.076483  -0.015256  -0.003886   0.011387   0.030595
    15  H   -0.022689   0.025110  -0.027488  -0.007341   0.096751   0.020399
    16  H    0.017613   0.007021   0.075347  -0.003675  -0.072215   0.394678
    17  H    0.004450   0.012636   0.063025   0.004048  -0.077316   0.329015
    18  H    0.004794   0.000609   0.033732  -0.000231   0.003808  -0.071533
    19  H   -0.004392  -0.001441  -0.020980  -0.000279   0.008881  -0.066255
    20  H   -0.000400  -0.000054  -0.009668  -0.000079   0.000504  -0.054442
    21  H    0.000122  -0.000018   0.004850   0.000014  -0.002024   0.078544
    22  H    0.000300   0.000067   0.008143  -0.000010   0.000573  -0.024945
    23  H    0.213941  -0.032344   0.005673   0.000026  -0.000610   0.000096
    24  Cl  -0.136471  -0.001648   0.030699   0.000126   0.003065   0.004748
    25  H    0.027210  -0.033848   0.143966   0.005038   0.009531   0.017326
    26  C   -5.130931   0.024893  -0.429031  -0.002843  -0.012529  -0.021780
    27  H    0.029414   0.000731   0.000845   0.000013  -0.000003   0.000004
    28  F   -0.031586   0.000883  -0.001714   0.000000   0.000001  -0.000015
    29  F    0.041396   0.000758  -0.000750   0.000002   0.000014  -0.000004
    30  F    0.256666   0.001255   0.001368  -0.000000  -0.000021   0.000001
    31  O   -0.152267   0.027117  -0.003687  -0.000569  -0.048984  -0.010467
    32  O    0.023599  -0.046498  -0.061447   0.000458  -0.000113   0.082265
    33  C    0.300579   0.001423   0.023354  -0.001620   0.037312   0.003356
    34  C   -0.267590  -0.049193  -0.082022  -0.001338  -0.081128   0.073407
    35  C   -0.018047   0.003956   0.005697   0.000056   0.012783  -0.018253
    36  H    0.003115   0.000435   0.000703   0.000001  -0.000078  -0.000429
    37  H    0.001806   0.000162  -0.000368  -0.000000   0.000289   0.000175
    38  H    0.000190  -0.000035  -0.000520  -0.000000   0.000164   0.000908
    39  H    0.000187   0.000021   0.000219   0.000000  -0.000085  -0.000103
    40  H    0.000208  -0.000036  -0.000223   0.000000   0.000196  -0.000061
               7          8          9         10         11         12
     1  C    0.015678  -0.021130  -6.139691  -8.749468 -17.588117  -3.630440
     2  N    0.070939  -0.025565   0.630255   0.376107  -0.003348  -0.059938
     3  C    0.474532  -0.364853  -2.206739  -2.221562  -0.074842   0.678841
     4  O    0.024052  -0.001546  -0.194647  -0.018017  -0.049299   0.189448
     5  N   -0.090265  -0.034597  -0.731198  -0.173181  -0.016590   0.200751
     6  C   -1.196888   0.575053  -0.716591  -0.272708   0.005614   0.189449
     7  C    6.732136  -0.572710   0.054996   0.008368   0.000399  -0.014903
     8  C   -0.572710   6.553054  -0.017936  -0.003352   0.000200   0.003093
     9  C    0.054996  -0.017936  26.575541   5.322821   1.665794  -8.274394
    10  C    0.008368  -0.003352   5.322821  33.713376 -16.303221   1.349933
    11  C    0.000399   0.000200   1.665794 -16.303221  61.891140 -19.080419
    12  C   -0.014903   0.003093  -8.274394   1.349933 -19.080419  31.496625
    13  C   -0.031284   0.003449  -8.229727  -3.164240  -9.834561   5.494563
    14  H   -0.006894   0.000294   0.005307  -0.019546   0.001829   0.016324
    15  H   -0.041949   0.010225   0.023275  -0.002283   0.001008  -0.006364
    16  H   -0.078875  -0.027031   0.001735   0.000773  -0.000085  -0.000188
    17  H    0.022790  -0.014620   0.005296  -0.000100   0.000320  -0.001449
    18  H    0.435063  -0.078558   0.000455   0.000151  -0.000011  -0.000047
    19  H    0.470326  -0.056211   0.000905  -0.000068   0.000022  -0.000026
    20  H   -0.003365   0.411954   0.000045  -0.000003   0.000001  -0.000003
    21  H   -0.139438   0.408549  -0.000015   0.000001  -0.000000   0.000001
    22  H    0.042651   0.319923   0.000020   0.000004  -0.000001  -0.000006
    23  H    0.000014   0.000008   0.252111  -0.191091  -0.030934   0.004146
    24  Cl  -0.000243   0.000027   0.080765  -0.391873   0.586828  -1.215773
    25  H   -0.000648   0.000163  -0.063585  -0.066312   0.111942  -0.085261
    26  C    0.000389  -0.000143  -1.779103  -2.844785   5.625771  -2.690046
    27  H    0.000000  -0.000000  -0.054096   0.166210  -0.168237   0.262314
    28  F   -0.000000  -0.000000  -0.038819   0.349646  -0.213333  -0.003881
    29  F    0.000000  -0.000000   0.107750  -0.027447  -0.359473   0.218131
    30  F    0.000001  -0.000000   0.113510  -0.335698  -0.114021   0.068566
    31  O   -0.003063  -0.000035   0.187967   0.017077  -0.013408   0.007483
    32  O   -0.022771   0.008830  -0.021365  -0.001521  -0.001209   0.000177
    33  C    0.008921  -0.011346  -0.175131  -0.128431   0.023471  -0.021522
    34  C   -0.040696   0.008848   0.228584   0.108444   0.011365  -0.018065
    35  C    0.012922  -0.004445   0.010141   0.009298   0.002233  -0.000070
    36  H    0.000510   0.000024  -0.002433  -0.001524  -0.000094   0.000020
    37  H   -0.000240  -0.000024  -0.000322  -0.000759  -0.000140   0.000024
    38  H   -0.000518  -0.000007  -0.000029  -0.000020  -0.000005   0.000000
    39  H   -0.000027  -0.000009  -0.000207  -0.000035   0.000000   0.000001
    40  H    0.000324   0.000184  -0.000174  -0.000060  -0.000007   0.000001
              13         14         15         16         17         18
     1  C    3.309323  -0.119500  -0.022689   0.017613   0.004450   0.004794
     2  N   -0.371875   0.076483   0.025110   0.007021   0.012636   0.000609
     3  C    0.578171  -0.015256  -0.027488   0.075347   0.063025   0.033732
     4  O    0.431354  -0.003886  -0.007341  -0.003675   0.004048  -0.000231
     5  N    0.302176   0.011387   0.096751  -0.072215  -0.077316   0.003808
     6  C    0.218342   0.030595   0.020399   0.394678   0.329015  -0.071533
     7  C   -0.031284  -0.006894  -0.041949  -0.078875   0.022790   0.435063
     8  C    0.003449   0.000294   0.010225  -0.027031  -0.014620  -0.078558
     9  C   -8.229727   0.005307   0.023275   0.001735   0.005296   0.000455
    10  C   -3.164240  -0.019546  -0.002283   0.000773  -0.000100   0.000151
    11  C   -9.834561   0.001829   0.001008  -0.000085   0.000320  -0.000011
    12  C    5.494563   0.016324  -0.006364  -0.000188  -0.001449  -0.000047
    13  C   17.945157   0.062768  -0.029462   0.001119  -0.012511  -0.000154
    14  H    0.062768   0.317526   0.030196  -0.000093  -0.000081   0.000052
    15  H   -0.029462   0.030196   0.343044   0.002261   0.001878   0.001258
    16  H    0.001119  -0.000093   0.002261   0.492631  -0.051729   0.006816
    17  H   -0.012511  -0.000081   0.001878  -0.051729   0.484327  -0.010213
    18  H   -0.000154   0.000052   0.001258   0.006816  -0.010213   0.453265
    19  H   -0.000948   0.000056   0.006708  -0.008602   0.005451  -0.035736
    20  H   -0.000084  -0.000000   0.000045  -0.001021   0.003499  -0.008981
    21  H    0.000033   0.000000  -0.000078  -0.000125  -0.000284  -0.004154
    22  H   -0.000014   0.000001  -0.000054   0.003524  -0.000550   0.006772
    23  H    0.035889   0.013086  -0.000085  -0.000000  -0.000000   0.000000
    24  Cl   0.294201   0.000654  -0.000052   0.000005  -0.000015   0.000000
    25  H    0.267914  -0.000475   0.000054  -0.000032  -0.000021   0.000000
    26  C   -0.531716   0.004473  -0.000408   0.000026  -0.000007   0.000006
    27  H    0.059036  -0.000004   0.000000   0.000000  -0.000000   0.000000
    28  F    0.001583   0.000020   0.000000   0.000000   0.000000   0.000000
    29  F    0.029593  -0.000004  -0.000000  -0.000000   0.000000  -0.000000
    30  F    0.010130  -0.000123  -0.000000   0.000000  -0.000000   0.000000
    31  O    0.004514   0.082852   0.013500  -0.000021   0.000000  -0.000040
    32  O   -0.009127   0.010526   0.074954   0.000829  -0.001306  -0.000711
    33  C   -0.054505  -0.021847  -0.009734   0.000791  -0.001113   0.001258
    34  C   -0.077422   0.051839   0.057716   0.000332  -0.000683   0.001616
    35  C   -0.002710  -0.003959  -0.007426  -0.000025   0.000122   0.000031
    36  H    0.000371  -0.000324  -0.000023   0.000000   0.000000  -0.000002
    37  H    0.000229  -0.000379  -0.000122  -0.000000   0.000000   0.000001
    38  H   -0.000003  -0.000017  -0.000380  -0.000000  -0.000000   0.000003
    39  H    0.000022  -0.000002   0.000061   0.000000  -0.000000   0.000000
    40  H    0.000017  -0.000015  -0.000347   0.000000  -0.000000  -0.000006
              19         20         21         22         23         24
     1  C   -0.004392  -0.000400   0.000122   0.000300   0.213941  -0.136471
     2  N   -0.001441  -0.000054  -0.000018   0.000067  -0.032344  -0.001648
     3  C   -0.020980  -0.009668   0.004850   0.008143   0.005673   0.030699
     4  O   -0.000279  -0.000079   0.000014  -0.000010   0.000026   0.000126
     5  N    0.008881   0.000504  -0.002024   0.000573  -0.000610   0.003065
     6  C   -0.066255  -0.054442   0.078544  -0.024945   0.000096   0.004748
     7  C    0.470326  -0.003365  -0.139438   0.042651   0.000014  -0.000243
     8  C   -0.056211   0.411954   0.408549   0.319923   0.000008   0.000027
     9  C    0.000905   0.000045  -0.000015   0.000020   0.252111   0.080765
    10  C   -0.000068  -0.000003   0.000001   0.000004  -0.191091  -0.391873
    11  C    0.000022   0.000001  -0.000000  -0.000001  -0.030934   0.586828
    12  C   -0.000026  -0.000003   0.000001  -0.000006   0.004146  -1.215773
    13  C   -0.000948  -0.000084   0.000033  -0.000014   0.035889   0.294201
    14  H    0.000056  -0.000000   0.000000   0.000001   0.013086   0.000654
    15  H    0.006708   0.000045  -0.000078  -0.000054  -0.000085  -0.000052
    16  H   -0.008602  -0.001021  -0.000125   0.003524  -0.000000   0.000005
    17  H    0.005451   0.003499  -0.000284  -0.000550  -0.000000  -0.000015
    18  H   -0.035736  -0.008981  -0.004154   0.006772   0.000000   0.000000
    19  H    0.425704   0.006688  -0.003674  -0.007903  -0.000001   0.000000
    20  H    0.006688   0.477749  -0.027803  -0.039620  -0.000000  -0.000000
    21  H   -0.003674  -0.027803   0.460969  -0.028142   0.000000   0.000000
    22  H   -0.007903  -0.039620  -0.028142   0.470873   0.000000   0.000000
    23  H   -0.000001  -0.000000   0.000000   0.000000   0.319975   0.000613
    24  Cl   0.000000  -0.000000   0.000000   0.000000   0.000613  17.582950
    25  H    0.000000  -0.000000   0.000000   0.000000   0.000025  -0.015696
    26  C   -0.000006  -0.000000   0.000000   0.000000   0.006061  -0.163114
    27  H   -0.000000  -0.000000   0.000000   0.000000  -0.000278  -0.026673
    28  F    0.000000   0.000000  -0.000000  -0.000000  -0.001155  -0.000590
    29  F    0.000000   0.000000   0.000000   0.000000   0.000008  -0.000248
    30  F    0.000000   0.000000  -0.000000   0.000000   0.006371  -0.000410
    31  O   -0.000082  -0.000003   0.000001   0.000002   0.009384   0.000044
    32  O   -0.006876  -0.000148   0.000086   0.000159   0.001007   0.000003
    33  C    0.003553  -0.000072  -0.000100   0.000301   0.008342  -0.000441
    34  C   -0.001659  -0.000054   0.000120   0.000025  -0.002563  -0.000107
    35  C    0.002554   0.000029  -0.000061   0.000006   0.000253   0.000005
    36  H    0.000003   0.000000  -0.000000   0.000000   0.000005  -0.000000
    37  H    0.000005   0.000000  -0.000000   0.000000  -0.000115   0.000000
    38  H   -0.000045  -0.000000   0.000001   0.000000  -0.000000  -0.000000
    39  H   -0.000003  -0.000000   0.000000  -0.000000  -0.000001   0.000000
    40  H   -0.000057  -0.000000   0.000000  -0.000000   0.000000  -0.000000
              25         26         27         28         29         30
     1  C    0.027210  -5.130931   0.029414  -0.031586   0.041396   0.256666
     2  N   -0.033848   0.024893   0.000731   0.000883   0.000758   0.001255
     3  C    0.143966  -0.429031   0.000845  -0.001714  -0.000750   0.001368
     4  O    0.005038  -0.002843   0.000013   0.000000   0.000002  -0.000000
     5  N    0.009531  -0.012529  -0.000003   0.000001   0.000014  -0.000021
     6  C    0.017326  -0.021780   0.000004  -0.000015  -0.000004   0.000001
     7  C   -0.000648   0.000389   0.000000  -0.000000   0.000000   0.000001
     8  C    0.000163  -0.000143  -0.000000  -0.000000  -0.000000  -0.000000
     9  C   -0.063585  -1.779103  -0.054096  -0.038819   0.107750   0.113510
    10  C   -0.066312  -2.844785   0.166210   0.349646  -0.027447  -0.335698
    11  C    0.111942   5.625771  -0.168237  -0.213333  -0.359473  -0.114021
    12  C   -0.085261  -2.690046   0.262314  -0.003881   0.218131   0.068566
    13  C    0.267914  -0.531716   0.059036   0.001583   0.029593   0.010130
    14  H   -0.000475   0.004473  -0.000004   0.000020  -0.000004  -0.000123
    15  H    0.000054  -0.000408   0.000000   0.000000  -0.000000  -0.000000
    16  H   -0.000032   0.000026   0.000000   0.000000  -0.000000   0.000000
    17  H   -0.000021  -0.000007  -0.000000   0.000000   0.000000  -0.000000
    18  H    0.000000   0.000006   0.000000   0.000000  -0.000000   0.000000
    19  H    0.000000  -0.000006  -0.000000   0.000000   0.000000   0.000000
    20  H   -0.000000  -0.000000  -0.000000   0.000000   0.000000   0.000000
    21  H    0.000000   0.000000   0.000000  -0.000000   0.000000  -0.000000
    22  H    0.000000   0.000000   0.000000  -0.000000   0.000000   0.000000
    23  H    0.000025   0.006061  -0.000278  -0.001155   0.000008   0.006371
    24  Cl  -0.015696  -0.163114  -0.026673  -0.000590  -0.000248  -0.000410
    25  H    0.358178  -0.004604  -0.000346  -0.000001  -0.000008  -0.000005
    26  C   -0.004604  12.724801   0.034748   0.117194   0.138671   0.157269
    27  H   -0.000346   0.034748   0.412549  -0.000878   0.004360   0.000653
    28  F   -0.000001   0.117194  -0.000878   8.987305  -0.050385  -0.046969
    29  F   -0.000008   0.138671   0.004360  -0.050385   9.029922  -0.019611
    30  F   -0.000005   0.157269   0.000653  -0.046969  -0.019611   9.012305
    31  O    0.000067   0.001833  -0.000002   0.000019   0.000046   0.000249
    32  O   -0.000002  -0.000016   0.000000   0.000000  -0.000000  -0.000003
    33  C    0.000490  -0.033497  -0.000007   0.000194   0.000149   0.001831
    34  C    0.000046   0.015637   0.000002   0.000005  -0.000073  -0.001425
    35  C   -0.000001  -0.001056  -0.000000   0.000001  -0.000001  -0.000051
    36  H    0.000000  -0.000159   0.000000   0.000000   0.000000   0.000000
    37  H    0.000000   0.000256   0.000000   0.000000   0.000000   0.000004
    38  H    0.000000   0.000006   0.000000   0.000000   0.000000  -0.000000
    39  H   -0.000000  -0.000006  -0.000000   0.000000   0.000000  -0.000000
    40  H    0.000000   0.000004   0.000000   0.000000   0.000000  -0.000000
              31         32         33         34         35         36
     1  C   -0.152267   0.023599   0.300579  -0.267590  -0.018047   0.003115
     2  N    0.027117  -0.046498   0.001423  -0.049193   0.003956   0.000435
     3  C   -0.003687  -0.061447   0.023354  -0.082022   0.005697   0.000703
     4  O   -0.000569   0.000458  -0.001620  -0.001338   0.000056   0.000001
     5  N   -0.048984  -0.000113   0.037312  -0.081128   0.012783  -0.000078
     6  C   -0.010467   0.082265   0.003356   0.073407  -0.018253  -0.000429
     7  C   -0.003063  -0.022771   0.008921  -0.040696   0.012922   0.000510
     8  C   -0.000035   0.008830  -0.011346   0.008848  -0.004445   0.000024
     9  C    0.187967  -0.021365  -0.175131   0.228584   0.010141  -0.002433
    10  C    0.017077  -0.001521  -0.128431   0.108444   0.009298  -0.001524
    11  C   -0.013408  -0.001209   0.023471   0.011365   0.002233  -0.000094
    12  C    0.007483   0.000177  -0.021522  -0.018065  -0.000070   0.000020
    13  C    0.004514  -0.009127  -0.054505  -0.077422  -0.002710   0.000371
    14  H    0.082852   0.010526  -0.021847   0.051839  -0.003959  -0.000324
    15  H    0.013500   0.074954  -0.009734   0.057716  -0.007426  -0.000023
    16  H   -0.000021   0.000829   0.000791   0.000332  -0.000025   0.000000
    17  H    0.000000  -0.001306  -0.001113  -0.000683   0.000122   0.000000
    18  H   -0.000040  -0.000711   0.001258   0.001616   0.000031  -0.000002
    19  H   -0.000082  -0.006876   0.003553  -0.001659   0.002554   0.000003
    20  H   -0.000003  -0.000148  -0.000072  -0.000054   0.000029   0.000000
    21  H    0.000001   0.000086  -0.000100   0.000120  -0.000061  -0.000000
    22  H    0.000002   0.000159   0.000301   0.000025   0.000006   0.000000
    23  H    0.009384   0.001007   0.008342  -0.002563   0.000253   0.000005
    24  Cl   0.000044   0.000003  -0.000441  -0.000107   0.000005  -0.000000
    25  H    0.000067  -0.000002   0.000490   0.000046  -0.000001   0.000000
    26  C    0.001833  -0.000016  -0.033497   0.015637  -0.001056  -0.000159
    27  H   -0.000002   0.000000  -0.000007   0.000002  -0.000000   0.000000
    28  F    0.000019   0.000000   0.000194   0.000005   0.000001   0.000000
    29  F    0.000046  -0.000000   0.000149  -0.000073  -0.000001   0.000000
    30  F    0.000249  -0.000003   0.001831  -0.001425  -0.000051   0.000000
    31  O    8.436152  -0.136676   0.285433  -0.227329   0.022045  -0.006119
    32  O   -0.136676   8.307314   0.379871  -0.151297   0.009408   0.001760
    33  C    0.285433   0.379871   6.656777  -1.716347   0.387106  -0.015805
    34  C   -0.227329  -0.151297  -1.716347   8.332521  -0.608880   0.402525
    35  C    0.022045   0.009408   0.387106  -0.608880   6.112501  -0.046865
    36  H   -0.006119   0.001760  -0.015805   0.402525  -0.046865   0.457098
    37  H   -0.005536   0.001158  -0.018025   0.398450  -0.043740  -0.034371
    38  H   -0.000355  -0.008848  -0.007435  -0.028115   0.392862  -0.007121
    39  H   -0.000719   0.004420   0.068184  -0.129327   0.403346  -0.003113
    40  H    0.000128  -0.009107  -0.009480  -0.023035   0.390868   0.005907
              37         38         39         40
     1  C    0.001806   0.000190   0.000187   0.000208
     2  N    0.000162  -0.000035   0.000021  -0.000036
     3  C   -0.000368  -0.000520   0.000219  -0.000223
     4  O   -0.000000  -0.000000   0.000000   0.000000
     5  N    0.000289   0.000164  -0.000085   0.000196
     6  C    0.000175   0.000908  -0.000103  -0.000061
     7  C   -0.000240  -0.000518  -0.000027   0.000324
     8  C   -0.000024  -0.000007  -0.000009   0.000184
     9  C   -0.000322  -0.000029  -0.000207  -0.000174
    10  C   -0.000759  -0.000020  -0.000035  -0.000060
    11  C   -0.000140  -0.000005   0.000000  -0.000007
    12  C    0.000024   0.000000   0.000001   0.000001
    13  C    0.000229  -0.000003   0.000022   0.000017
    14  H   -0.000379  -0.000017  -0.000002  -0.000015
    15  H   -0.000122  -0.000380   0.000061  -0.000347
    16  H   -0.000000  -0.000000   0.000000   0.000000
    17  H    0.000000  -0.000000  -0.000000  -0.000000
    18  H    0.000001   0.000003   0.000000  -0.000006
    19  H    0.000005  -0.000045  -0.000003  -0.000057
    20  H    0.000000  -0.000000  -0.000000  -0.000000
    21  H   -0.000000   0.000001   0.000000   0.000000
    22  H    0.000000   0.000000  -0.000000  -0.000000
    23  H   -0.000115  -0.000000  -0.000001   0.000000
    24  Cl   0.000000  -0.000000   0.000000  -0.000000
    25  H    0.000000   0.000000  -0.000000   0.000000
    26  C    0.000256   0.000006  -0.000006   0.000004
    27  H    0.000000   0.000000  -0.000000   0.000000
    28  F    0.000000   0.000000   0.000000   0.000000
    29  F    0.000000   0.000000   0.000000   0.000000
    30  F    0.000004  -0.000000  -0.000000  -0.000000
    31  O   -0.005536  -0.000355  -0.000719   0.000128
    32  O    0.001158  -0.008848   0.004420  -0.009107
    33  C   -0.018025  -0.007435   0.068184  -0.009480
    34  C    0.398450  -0.028115  -0.129327  -0.023035
    35  C   -0.043740   0.392862   0.403346   0.390868
    36  H   -0.034371  -0.007121  -0.003113   0.005907
    37  H    0.460165   0.006006  -0.003168  -0.007269
    38  H    0.006006   0.461321  -0.033584  -0.031960
    39  H   -0.003168  -0.033584   0.497133  -0.033545
    40  H   -0.007269  -0.031960  -0.033545   0.461069
 Mulliken charges:
               1
     1  C   -0.906557
     2  N   -0.463687
     3  C    0.056078
     4  O   -0.393888
     5  N   -0.331691
     6  C   -0.479940
     7  C   -0.130231
     8  C   -1.069760
     9  C   -0.621070
    10  C   -0.504903
    11  C   -0.076584
    12  C    0.922902
    13  C   -0.699611
    14  H    0.476140
    15  H    0.447839
    16  H    0.238214
    17  H    0.235141
    18  H    0.260687
    19  H    0.284389
    20  H    0.245283
    21  H    0.252625
    22  H    0.247901
    23  H    0.382143
    24  Cl   0.368619
    25  H    0.328895
    26  C    0.793744
    27  H    0.279646
    28  F   -0.067523
    29  F   -0.112794
    30  F   -0.111842
    31  O   -0.486552
    32  O   -0.427783
    33  C    0.033764
    34  C   -0.183134
    35  C   -1.022634
    36  H    0.245983
    37  H    0.245848
    38  H    0.257534
    39  H    0.230337
    40  H    0.256473
 Sum of Mulliken charges =  -1.00000
 Mulliken charges with hydrogens summed into heavy atoms:
               1
     1  C   -0.906557
     2  N    0.012452
     3  C    0.056078
     4  O   -0.393888
     5  N    0.116148
     6  C   -0.006586
     7  C    0.414844
     8  C   -0.323952
     9  C   -0.238926
    10  C   -0.504903
    11  C    0.203062
    12  C    0.922902
    13  C   -0.370716
    24  Cl   0.368619
    26  C    0.793744
    28  F   -0.067523
    29  F   -0.112794
    30  F   -0.111842
    31  O   -0.486552
    32  O   -0.427783
    33  C    0.033764
    34  C    0.308697
    35  C   -0.278290
 Electronic spatial extent (au):  <R**2>=          11833.5340
 Charge=             -1.0000 electrons
 Dipole moment (field-independent basis, Debye):
    X=              1.5430    Y=             -0.3581    Z=             -0.1413  Tot=              1.5903
 Quadrupole moment (field-independent basis, Debye-Ang):
[...]
 100,-0.00000841,0.00004421,-0.00000519,0.00002967,-0.00001116,-0.00000
 906,0.00000035,-0.00001243,0.00000507,0.00000311,-0.00000371,-0.000003
 82,-0.00000511,-0.00003286,-0.00000606,-0.00003048,0.00000444,-0.00000
 498,-0.00000060,-0.00001172,0.00000723,-0.00000099,-0.00001139,-0.0000
 9766,-0.00007069,0.00000031,-0.00000015,-0.00000126,0.00000159,0.00001
 235,0.00002207,0.00000501,0.00001680,0.00000916,-0.00000531,0.00006371
 ,0.00003768,0.00124446,-0.00001027,0.00423003,-0.00265731,-0.00574533,
 0.00377718,-0.01536827,-0.00346289,-0.03281929,-0.02420610,-0.05629288
 ,-0.04898840,0.01007185,0.00331482,0.01813658,0.02485384,0.06169679,-0
 .00019440,0.00008607,0.00001098,0.00018363,-0.00008957,0.00000057,-0.0
 0024360,0.00011568,0.00000231,0.00004993,-0.00010620,-0.00000579,0.000
 08275,-0.00021810,0.00001156,0.00002364,-0.00000020,0.00000570,-0.0000
 0011,0.00002301,-0.00001833,0.00000628,-0.00000860,0.00000333,0.000056
 21,0.00001227,0.00000994,-0.00000777,0.00002135,0.00001801,0.00003919,
 -0.00000557,-0.00000067,-0.00003147,0.00001065,0.00000267,0.00004524,-
 0.00004382,-0.00000546,-0.00001241,0.00011388,0.00000727,0.00003071,0.
 00027160,-0.00003417,0.00000077,0.00000087,-0.00000373,-0.00000712,-0.
 00001332,0.00000298,0.00000136,0.00000345,-0.00000335,0.00001720,-0.00
 000288,0.00001496,-0.00000677,-0.00001000,0.00000360,-0.00000109,0.000
 00432,-0.00000097,-0.00000131,0.00000093,-0.00000305,-0.00003106,-0.00
 003122,-0.00003079,0.00000574,-0.00000140,0.00000061,-0.00001157,0.000
 00759,-0.00000178,-0.00003112,-0.00021639,-0.00010654,-0.00000070,-0.0
 0000173,-0.00000233,0.00001184,0.00003462,0.00003061,0.00000679,0.0000
 4070,0.00001041,0.00000017,0.00013504,0.00006000,0.00152852,-0.0005739
 9,0.00141752,0.00079155,-0.00077711,-0.00012553,-0.00159901,0.00256427
 ,-0.00091216,-0.10952766,-0.04586513,-0.23833811,0.00038622,0.00041063
 ,0.00023305,0.12066332,0.04864898,0.25760253,-0.00000201,0.00001186,0.
 00000548,0.00010585,0.00007695,0.00002771,-0.00029540,0.00005379,0.000
 02918,0.00007242,-0.00004909,-0.00002340,0.00009383,-0.00027443,-0.000
 01216,-0.00000421,-0.00000815,0.00002728,0.00000186,0.00002309,-0.0000
 1383,0.00000615,-0.00000727,0.00000843,-0.00000328,-0.00000964,0.00000
 318,0.00000978,-0.00000151,-0.00001386,0.00000083,0.00001085,0.0000048
 2,-0.00000551,-0.00000786,-0.00000140,0.00000198,-0.00000908,-0.000006
 10,-0.00003317,-0.00018646,-0.00007918,-0.00000180,0.00034969,-0.00004
 305,0.00000228,-0.00000644,-0.00000899,-0.00000474,-0.00001091,-0.0000
 0292,-0.00000109,0.00001232,-0.00001485,0.00001157,0.00000845,0.000031
 24,-0.00000612,-0.00000849,0.00000151,0.00000923,0.00000179,-0.0000015
 7,-0.00000469,-0.00000289,-0.00000755,0.00002765,-0.00000202,0.0000057
 9,-0.00000150,0.00000631,-0.00000038,-0.00000507,0.00000176,0.00000361
 ,0.00000277,0.00003491,0.00003767,0.00000069,0.00000112,0.00000225,0.0
 0000171,-0.00000249,-0.00001690,-0.00000298,-0.00000496,-0.00000570,0.
 00000079,-0.00002655,-0.00001298,0.00084103,0.00177103,-0.00130595,0.0
 0023900,-0.00270065,-0.00130116,-0.00745350,-0.00155093,0.00602009,-0.
 15146458,-0.03523805,0.12635171,-0.01707355,-0.00588195,0.02027937,0.0
 1047788,0.00418254,-0.01185911,0.16676321,-0.00019543,0.00010396,0.000
 01763,0.00021869,0.00000271,0.00007144,-0.00043668,0.00018702,0.000073
 32,0.00008696,-0.00018434,-0.00005507,0.00013344,-0.00056547,0.0000539
 3,0.00010589,0.00001332,0.00003176,-0.00001580,0.00003450,-0.00002192,
 0.00001031,-0.00001370,0.00001043,0.00006575,0.00001083,-0.00002695,0.
 00000277,0.00000495,-0.00000043,0.00003965,-0.00000022,-0.00000165,-0.
 00003715,0.00001076,0.00000027,0.00004263,-0.00005189,-0.00001338,-0.0
 0001574,0.00008337,-0.00014392,0.00005454,0.00083632,-0.00021074,-0.00
 001256,-0.00000532,-0.00001547,-0.00002458,-0.00002395,0.00000232,0.00
 000880,-0.00000146,-0.00000263,0.00004636,-0.00000804,0.00001217,-0.00
 001005,-0.00000785,0.00000028,-0.00001231,0.00000465,0.00000283,-0.000
 00429,-0.00000318,-0.00000597,-0.00003956,-0.00002909,0.00004351,0.000
 00402,0.00000104,-0.00000064,-0.00001364,0.00000780,0.00000418,-0.0000
 0371,-0.00012433,0.00005580,0.00000028,-0.00000063,0.00000236,0.000010
 22,0.00003643,-0.00003873,-0.00001253,0.00002661,-0.00001709,-0.000004
 72,0.00005366,-0.00000395,0.00198478,0.00009998,-0.00394824,-0.0019757
 7,-0.00572794,-0.00424747,-0.02112798,-0.00410972,0.02931305,-0.035616
 90,-0.05836888,0.04700833,0.01325895,0.00370493,-0.01594589,0.00505020
 ,0.00105908,-0.00575428,0.03658644,0.06391791,0.00021473,-0.00009051,-
 0.00001328,-0.00018146,0.00011131,0.00002372,0.00020814,-0.00010577,-0
 .00002194,-0.00004157,0.00009767,0.00001384,-0.00007831,0.00016644,0.0
 0005306,-0.00001797,-0.00000134,-0.00001386,0.00000044,-0.00001537,-0.
 00000334,-0.00000701,0.00000783,0.00000115,-0.00006276,-0.00001651,0.0
 0000664,0.00000609,-0.00002255,-0.00000631,-0.00004086,0.00000206,0.00
 000219,0.00003381,-0.00000547,0.00000052,-0.00004941,0.00004617,0.0000
 0425,0.00000643,-0.00015840,-0.00002937,-0.00002443,-0.00019644,-0.000
 05539,0.00000100,0.00000395,0.00000887,0.00000479,0.00000843,-0.000002
 30,-0.00000526,-0.00000845,0.00001266,-0.00001254,0.00000021,-0.000015
 93,0.00000553,0.00000678,-0.00000325,-0.00000036,-0.00000292,-0.000001
 11,0.00000403,0.00000177,0.00000615,0.00003549,0.00004322,-0.00002226,
 -0.00000550,-0.00000128,0.00000062,0.00001157,-0.00000711,-0.00000231,
 0.00003379,0.00024111,0.00000395,0.00000016,0.00000239,-0.00000171,-0.
 00002338,-0.00005583,0.00002015,0.00000592,-0.00004872,0.00001197,-0.0
 0000135,-0.00012986,-0.00002687,-0.00160353,0.00085052,0.00084124,-0.0
 0079549,0.00014355,-0.00058058,-0.00009407,-0.00296606,0.00111204,0.12
 501882,0.04403118,-0.19230215,-0.00334474,-0.00145705,0.00362017,0.018
 04602,0.00713663,-0.02214427,-0.13678916,-0.04685259,0.20741302,0.0000
 0175,0.00001185,0.00001445,0.00004136,0.00010294,-0.00001180,-0.000107
 55,-0.00001419,0.00001238,0.00002908,0.00002388,-0.00000421,0.00003468
 ,-0.00000935,-0.00003939,-0.00000796,0.00000017,-0.00000100,-0.0000044
 9,-0.00000911,0.00003945,0.00000180,-0.00000169,-0.00001082,-0.0000070
 5,-0.00001210,-0.00002102,0.00001405,0.00000052,0.00000209,0.00000332,
 0.00001765,-0.00000215,-0.00000847,-0.00002078,-0.00000107,0.00000449,
 0.00000254,-0.00000452,-0.00001288,-0.00014575,0.00000247,-0.00000997,
 -0.00001134,0.00003645,0.00000349,-0.00000142,-0.00000208,0.00000052,0
 .00000607,0.00000161,0.00000559,0.00000617,-0.00000860,0.00000526,0.00
 000311,-0.00001237,0.00000075,0.00000607,0.00000003,-0.00000113,-0.000
 00268,0.00000408,-0.00000319,-0.00000185,-0.00000238,0.00001040,-0.000
 02538,0.00001443,-0.00000250,0.00001915,0.00000144,-0.00000231,0.00000
 088,0.00000256,0.00003258,-0.00007647,0.00002190,-0.00000127,0.0000011
 0,0.00000206,-0.00000286,0.00001741,-0.00001143,-0.00002423,0.00001888
 ,-0.00001508,-0.00001005,0.00003820,0.00000235,0.00070642,0.00043742,-
 0.00024476,0.00172115,0.00003110,-0.00056882,-0.00167918,-0.00183473,0
 .00013293,-0.01875946,-0.00550857,0.02228675,-0.15223133,-0.03681514,0
 .12736369,0.00061425,-0.00087244,-0.00037233,-0.00394762,0.00373099,-0
 .00131114,0.16778641,0.00014077,-0.00005721,-0.00002055,-0.00014156,0.
 00006665,0.00001200,0.00020407,-0.00013757,-0.00001972,-0.00003761,0.0
 0011848,0.00001745,-0.00006226,0.00022200,0.00002912,-0.00001276,-0.00
 000279,-0.00002363,-0.00000739,-0.00003403,0.00000689,-0.00002012,0.00
 002193,0.00000200,-0.00004635,-0.00001603,0.00001213,0.00001098,-0.000
 01102,-0.00001149,-0.00002414,0.00001465,0.00000561,0.00001955,-0.0000
 2608,-0.00000487,-0.00002807,0.00003781,0.00000830,0.00001553,-0.00011
 786,-0.00001151,-0.00004084,-0.00030296,-0.00000596,-0.00000034,0.0000
 0763,0.00001649,0.00000292,0.00001652,-0.00000131,-0.00000787,-0.00002
 261,0.00003179,-0.00002405,-0.00000668,-0.00004923,0.00001352,0.000013
 14,-0.00000304,0.00000320,-0.00000852,-0.00000376,0.00000988,0.0000060
 3,0.00001066,0.00002298,-0.00000178,-0.00000440,-0.00000586,0.00001724
 ,0.00000210,0.00000841,-0.00000517,-0.00000130,0.00004842,0.00005274,0
 .00000038,-0.00000092,0.00000133,-0.00000018,-0.00001650,-0.00001534,0
 .00001155,-0.00001796,-0.00000787,-0.00000344,-0.00000931,-0.00002521,
 -0.00000566,-0.00087996,0.00021551,0.00015489,-0.00098419,-0.00038218,
 0.00042679,0.00189518,0.00052129,-0.00084576,0.01197345,0.00421083,-0.
 01553116,-0.03830655,-0.05985529,0.04583125,-0.00084901,0.00077631,0.0
 0021828,0.00341000,-0.00215023,0.00023794,0.03809017,0.06220926,0.0000
 4781,-0.00003270,-0.00000901,-0.00012079,-0.00006518,0.00000460,0.0002
 0633,-0.00004284,-0.00001647,-0.00005673,0.00002354,0.00000881,-0.0000
 9600,0.00008468,0.00003842,0.00007089,0.00001387,-0.00003301,-0.000019
 64,-0.00003452,0.00003997,-0.00000691,0.00000711,-0.00001383,-0.000009
 03,0.00000045,0.00000719,-0.00000683,-0.00000413,-0.00000373,-0.000015
 01,-0.00000319,0.00000363,0.00001546,0.00000157,-0.00000035,-0.0000132
 4,0.00001550,0.00000324,0.00002313,0.00007996,-0.00000280,0.00000046,-
 0.00006806,-0.00002765,-0.00001042,0.00000592,0.00000678,-0.00001100,0
 .00001051,0.00000485,0.00000579,-0.00001861,0.00001884,0.00000995,-0.0
 0002717,-0.00006036,0.00000768,0.00001703,-0.00000373,-0.00002438,-0.0
 0000453,0.00000737,0.00000481,0.00000165,0.00000920,0.00000093,0.00000
 575,-0.00000344,-0.00000123,-0.00000614,-0.00000029,0.00000650,-0.0000
 0247,-0.00000191,0.00000392,0.00005709,-0.00001185,0.00000071,0.000000
 25,-0.00000087,-0.00000517,-0.00001478,0.00001145,0.00000437,-0.000012
 53,0.00000583,0.00000044,-0.00002693,-0.00000404,-0.00065902,-0.000480
 15,-0.00017383,-0.00182296,0.00038105,0.00041725,0.00222231,0.00134591
 ,0.00025748,-0.00263436,-0.00161391,0.00297158,0.12771860,0.04376835,-
 0.20138839,0.00030716,-0.00058830,0.00069932,-0.00088635,0.00057605,0.
 00139270,-0.13904378,-0.05004023,0.21517365,0.00008594,-0.00000026,-0.
 00000090,0.00009691,0.00033100,0.00003754,-0.00026964,0.00002648,0.000
 00340,0.00007849,0.00002462,0.00000274,0.00008459,-0.00008231,-0.00001
 343,-0.00005508,-0.00001750,0.00000914,0.00001581,0.00003491,-0.000016
 06,0.00001024,-0.00001297,0.00000249,-0.00003102,-0.00003350,-0.000003
 86,0.00001411,-0.00000418,-0.00000094,-0.00001084,0.00001688,0.0000024
 3,-0.00000007,-0.00001146,-0.00000025,-0.00001628,0.00001260,0.0000005
 1,-0.00008657,-0.00047847,-0.00005134,-0.00000577,0.00007198,-0.000004
 74,0.00001228,0.00000218,-0.00000130,0.00000798,-0.00000658,0.00000079
 ,-0.00000248,0.00000836,-0.00000950,-0.00000014,0.00001242,0.00002509,
 -0.00000726,-0.00001005,0.00000368,0.00001036,0.00000426,-0.00000191,-
 0.00000227,0.00000077,-0.00000470,0.00003817,-0.00000844,-0.00000415,-
 0.00000379,0.00001375,0.00000166,-0.00000248,0.00000068,-0.00000005,0.
 00003423,0.00003837,-0.00000361,-0.00000035,0.00000310,0.00000010,-0.0
 0001177,-0.00001210,0.00000998,-0.00001116,-0.00000627,-0.00000159,-0.
 00000830,-0.00001925,-0.00000366,-0.00021578,0.00333090,0.00003827,0.0
 0233183,-0.00072629,0.00016015,-0.00728719,-0.00167982,-0.00075280,0.0
 0801540,0.03061891,0.00121866,-0.06063061,-0.05688700,-0.00160277,0.00
 108563,-0.00096925,-0.00033452,0.00102813,-0.00090835,0.00051645,-0.00
 468289,-0.01924755,-0.00325845,0.06472055,-0.00040521,0.00011459,0.000
 02344,0.00017918,-0.00054520,-0.00005384,-0.00004631,0.00031165,0.0000
 4076,-0.00003242,-0.00031835,-0.00003693,-0.00000786,-0.00036019,-0.00
 001877,0.00012111,0.00003008,0.00003046,-0.00000446,0.00003797,-0.0000
 3078,0.00001701,-0.00001536,0.00000969,0.00014197,0.00008646,0.0000097
 2,-0.00005708,0.00004016,0.00001408,0.00006373,-0.00007964,-0.00001492
 ,-0.00003755,0.00010910,0.00001165,0.00007562,-0.00010430,-0.00001546,
 0.00003904,0.00089609,0.00007335,0.00012366,0.00057337,0.00000621,-0.0
 0001979,-0.00001036,-0.00002597,-0.00001880,-0.00003121,0.00000466,0.0
 0001031,0.00001182,-0.00001699,0.00004598,0.00000391,0.00003671,-0.000
 01539,-0.00001997,0.00000472,-0.00001402,0.00001349,0.00000443,-0.0000
 0640,-0.00000547,-0.00001316,-0.00009893,0.00004919,0.00000485,0.00002
 158,-0.00008287,-0.00000962,-0.00001430,0.00001009,0.00000141,-0.00021
 595,-0.00006670,0.00002225,0.00000256,-0.00000828,-0.00000031,0.000066
 46,0.00003464,-0.00004755,0.00009066,0.00000147,0.00002163,0.00005125,
 0.00002086,-0.00000130,0.00164321,-0.00330884,0.00006900,0.00051620,-0
 .00105888,0.00003868,0.00194245,0.00261946,0.00020950,-0.00613797,-0.0
 1636256,-0.00073869,-0.05676109,-0.29598334,-0.00808326,0.00010832,0.0
 0039190,0.00067637,0.00023871,0.00040852,-0.00062838,-0.00131453,-0.00
 588301,-0.00014933,0.06092106,0.32373533,0.00000098,0.00000025,0.00000
 694,0.00001077,0.00002285,0.00000195,-0.00002203,0.00000403,-0.0000041
 9,0.00000585,0.00000033,-0.00000025,0.00000505,-0.00001140,0.00002793,
 0.00000351,-0.00000077,-0.00000178,-0.00000035,0.00001205,-0.00001430,
 -0.00000100,-0.00000198,0.00000554,-0.00000062,-0.00000047,-0.00000950
 ,0.00000147,0.00000126,-0.00000029,-0.00000014,0.00000117,-0.00000139,
 -0.00000097,-0.00000009,0.00000087,-0.00000045,-0.00000037,-0.00000175
 ,-0.00000772,-0.00003325,-0.00000897,0.00000172,0.00001643,-0.00002954
 ,-0.00000026,0.00000517,0.00000255,0.00000023,-0.00000109,0.00000093,-
 0.00000233,-0.00001265,0.00001482,0.00000312,-0.00000200,-0.00001687,-
 0.00000059,-0.00000063,0.00000060,-0.00000205,-0.00000007,-0.00000161,
 0.00000347,0.00000359,0.00000204,0.00000180,-0.00000143,0.00000344,-0.
 00000014,0.00000060,-0.00000019,-0.00000039,0.00000028,0.00000039,-0.0
 0000142,-0.00000124,0.00001991,-0.00000009,0.00000002,0.00000089,0.000
 00266,0.00000325,-0.00000984,-0.00000197,0.00000088,-0.00000430,0.0000
 0016,-0.00000289,-0.00000601,-0.00001146,0.00026789,0.00006550,0.00014
 887,-0.00007733,0.00064815,-0.00069030,-0.00011723,0.00056576,0.000797
 49,0.00264979,-0.00121130,-0.00162577,-0.00810144,-0.05057760,0.000298
 30,0.00023384,-0.00002790,-0.00009173,-0.00039297,-0.00001074,0.003708
 28,0.02503639,0.00201929,0.00234909,0.00883805,0.04752290,0.00002310,0
 .00000468,-0.00001005,0.00000338,0.00008821,0.00002850,-0.00003869,-0.
 00002519,-0.00001802,0.00001282,0.00003229,0.00001225,0.00000346,0.000
 01294,0.00003002,0.00000490,0.00000089,-0.00002322,-0.00000591,-0.0000
 1798,0.00002371,-0.00000218,0.00000075,-0.00000666,-0.00001241,-0.0000
 1746,0.00001025,0.00000819,-0.00000181,0.00000404,-0.00000233,0.000014
 43,0.00000441,-0.00000120,-0.00001875,-0.00000147,-0.00000085,0.000008
 98,0.00000468,-0.00000945,-0.00013792,-0.00002941,-0.00000708,-0.00002
 415,-0.00002917,0.00000441,0.00000503,0.00000588,-0.00000257,0.0000052
 9,0.00000383,-0.00000047,0.00000169,0.00000116,0.00000939,-0.00000473,
 -0.00001566,0.00000208,0.00000676,-0.00000168,-0.00000557,-0.00000210,
 0.00000489,0.00000176,-0.00000056,0.00000207,0.00001107,-0.00001859,-0
 .00001946,-0.00000277,0.00001555,0.00000259,-0.00000023,0.00000037,-0.
 00000272,0.00003487,-0.00005207,-0.00006147,-0.00000088,0.00000159,-0.
 00000192,-0.00001239,0.,0.00003136,-0.00001321,0.00001093,0.00000415,-
 0.00001098,0.00004062,0.00002578,0.00049758,0.00033196,0.00038525,0.00
 122647,0.00011989,0.00068646,-0.00115467,-0.00155732,-0.00040172,-0.01
 449144,-0.00514354,-0.02570468,-0.10757076,-0.02574724,-0.11029446,-0.
 00418758,0.00376902,0.00034209,0.00061219,-0.00097395,0.00033705,0.010
 48904,0.00490215,0.01804404,-0.00432892,-0.00121201,-0.00488105,0.1189
 1779,0.00014028,-0.00005708,-0.00000767,-0.00013721,0.00006230,-0.0000
 0014,0.00019420,-0.00013390,-0.00001946,-0.00003543,0.00011463,0.00001
 162,-0.00005130,0.00022190,-0.00000212,-0.00002820,-0.00000250,-0.0000
 1195,-0.00000315,-0.00004898,0.00004084,-0.00001231,0.00001962,-0.0000
 1128,-0.00004550,-0.00001436,-0.00000729,0.00001104,-0.00001432,-0.000
 00340,-0.00002577,0.00001732,0.00000350,0.00002128,-0.00003001,-0.0000
 0290,-0.00002789,0.00003842,0.00000587,0.00001786,-0.00011316,0.000003
 26,-0.00004496,-0.00030488,0.00002046,0.00000071,-0.00000226,0.0000078
 7,0.00000396,0.00001805,-0.00000322,-0.00000100,0.00000177,-0.00000472
 ,-0.00003302,-0.00000438,-0.00001584,0.00001321,0.00001231,-0.00000383
 ,0.00000544,-0.00000723,-0.00000167,0.00000039,-0.00000042,0.00000569,
 0.00002224,-0.00000343,0.00000551,-0.00000607,0.00001815,0.00000187,0.
 00000847,-0.00000520,0.00000033,0.00005008,0.00005492,0.00000440,-0.00
 000069,0.00000166,-0.00000026,-0.00001684,-0.00001524,0.00000996,-0.00
 001891,-0.00000808,-0.00000410,-0.00000997,-0.00002709,-0.00000809,-0.
 00084551,0.00020479,-0.00029613,-0.00093662,-0.00025681,-0.00065767,0.
 00176158,0.00055743,0.00118080,0.00887080,0.00377824,0.01753390,-0.026
 79290,-0.05765714,-0.04789167,0.00340256,-0.00213918,0.00031899,-0.000
 79180,0.00076787,-0.00036850,0.00411125,0.00054008,0.00683946,-0.01435
 161,-0.00525565,-0.02833883,0.02558134,0.05967187,-0.00003567,0.000031
 11,-0.00000348,0.00010917,0.00008212,0.00002268,-0.00019221,0.00003049
 ,-0.00000517,0.00005418,-0.00001081,0.00000463,0.00008350,-0.00007506,
 0.00001358,-0.00005641,-0.00001546,0.00001301,0.00001437,0.00005111,-0
 .00006549,0.00000454,-0.00001225,0.00001648,0.00000506,-0.00000699,0.0
 0000683,0.00000756,0.00000142,0.00000423,0.00001186,0.00000736,0.00000
 146,-0.00001322,-0.00000735,-0.00000077,0.00001074,-0.00001061,0.00000
 101,-0.00002469,-0.00011127,-0.00002806,0.00000188,0.00006003,-0.00002
 908,0.00000953,0.00000887,0.00000620,0.00000941,-0.00001126,-0.0000014
 2,-0.00000499,-0.00001049,0.00001551,-0.00000557,0.00001919,0.00001501
 ,-0.00000642,-0.00001691,0.00000578,0.00001275,0.00000474,-0.00001302,
 0.00000281,0.00001030,0.00000275,0.00000193,-0.00000889,-0.00000728,0.
 00000012,0.00001005,0.00000165,-0.00000573,0.00000273,-0.00000128,0.00
 000536,-0.00006313,-0.00002866,-0.00000056,0.00000036,-0.00000121,-0.0
 0000086,0.00001027,0.00000909,-0.00000428,0.00001277,0.00000122,-0.000
 00370,0.00003811,0.00001666,0.00076263,0.00056688,0.00002464,0.0019511
 0,-0.00036094,0.00087701,-0.00245065,-0.00165560,-0.00023397,-0.000411
 54,0.00065247,-0.00090563,-0.11066050,-0.04560083,-0.24812941,-0.00007
 655,0.00004198,0.00161698,-0.00034106,0.00042030,0.00070804,-0.0119606
 4,-0.00548481,-0.02134588,0.00168838,-0.00026635,0.00102792,0.12150837
 ,0.05166640,0.26638743\\0.00000076,-0.00000018,-0.00000161,-0.00000293
 ,0.00000314,0.00000167,-0.00000107,-0.00000260,-0.00000374,0.00000320,
 -0.00000027,-0.00000117,-0.00000103,0.00000006,0.00000101,-0.00000097,
 0.00000211,-0.00000260,-0.00000029,0.00000046,0.00000179,-0.00000024,0
 .00000188,-0.00000064,0.00000076,0.00000030,-0.00000088,0.00000036,-0.
 00000183,-0.00000135,0.00000046,-0.00000091,-0.00000128,-0.00000146,-0
 .00000030,-0.00000211,-0.00000087,-0.00000123,-0.00000121,0.00000097,0
 .00000111,-0.00000155,0.00000036,-0.00000042,-0.00000019,0.00000025,0.
 00000194,0.00000009,0.00000013,0.00000041,-0.00000109,0.00000012,-0.00
 000042,-0.00000005,0.00000023,0.00000067,-0.00000053,-0.00000026,0.000
 00067,-0.00000097,-0.00000022,0.00000053,0.00000015,-0.00000004,0.0000
 0137,-0.00000034,-0.00000018,-0.00000040,0.,-0.00000115,-0.00000021,-0
 .00000286,-0.00000126,0.00000010,-0.00000223,-0.00000058,-0.00000112,-
 0.00000099,-0.00000089,-0.00000074,-0.00000181,-0.00000063,-0.00000037
 ,-0.00000003,0.00000031,-0.00000147,-0.00000025,0.00000012,-0.00000041
 ,0.00000142,0.00000722,-0.00000624,0.00000423,-0.00000842,0.00000074,0
 .00000266,0.00000145,0.00000648,-0.00000125,0.00000163,-0.00000511,0.0
 0000170,-0.00000049,0.00000108,0.00000228,0.00000103,-0.00000058,0.000
 00262,0.00000136,0.00000063,0.00000204,0.00000019,-0.00000034,0.000002
 92,0.00000126,0.00000066,0.00000362,0.00000078,0.00000079,0.00000253\\
 \@


 BRING ME INTO THE COMPANY OF THOSE WHO SEEK TRUTH,
 AND DELIVER ME FROM THOSE WHO HAVE FOUND IT.
 Job cpu time:       0 days 11 hours 53 minutes 25.7 seconds.
 File lengths (MBytes):  RWF=   1249 Int=      0 D2E=      0 Chk=     23 Scr=      1
 Normal termination of Gaussian 09 at Thu Nov 14 23:36:39 2019.
pbs_rusage has been removed.
Please contact help@nci.org.au if you require this functionality.
