 Entering Gaussian System, Link 0=/apps/gaussian/g16c01/g16/g16
 Initial command:
 /apps/gaussian/g16c01/g16/l1.exe "/jobfs/13186144.gadi-pbs/Gau-9712.inp" -scrdir="/jobfs/13186144.gadi-pbs/"
 Entering Link 1 = /apps/gaussian/g16c01/g16/l1.exe PID=      9713.
  
 Copyright (c) 1988-2019, Gaussian, Inc.  All Rights Reserved.
  
 This is part of the Gaussian(R) 16 program.  It is based on
 the Gaussian(R) 09 system (copyright 2009, Gaussian, Inc.),
 the Gaussian(R) 03 system (copyright 2003, Gaussian, Inc.),
 the Gaussian(R) 98 system (copyright 1998, Gaussian, Inc.),
 the Gaussian(R) 94 system (copyright 1995, Gaussian, Inc.),
 the Gaussian 92(TM) system (copyright 1992, Gaussian, Inc.),
 the Gaussian 90(TM) system (copyright 1990, Gaussian, Inc.),
 the Gaussian 88(TM) system (copyright 1988, Gaussian, Inc.),
 the Gaussian 86(TM) system (copyright 1986, Carnegie Mellon
 University), and the Gaussian 82(TM) system (copyright 1983,
 Carnegie Mellon University). Gaussian is a federally registered
 trademark of Gaussian, Inc.
  
 This software contains proprietary and confidential information,
 including trade secrets, belonging to Gaussian, Inc.
  
 This software is provided under written license and may be
 used, copied, transmitted, or stored only in accord with that
 written license.
  
 The following legend is applicable only to US Government
 contracts under FAR:
  
                    RESTRICTED RIGHTS LEGEND
  
 Use, reproduction and disclosure by the US Government is
 subject to restrictions as set forth in subparagraphs (a)
 and (c) of the Commercial Computer Software - Restricted
 Rights clause in FAR 52.227-19.
  
 Gaussian, Inc.
 340 Quinnipiac St., Bldg. 40, Wallingford CT 06492
  
  
 ---------------------------------------------------------------
 Warning -- This program may not be used in any manner that
 competes with the business of Gaussian, Inc. or will provide
 assistance to any competitor of Gaussian, Inc.  The licensee
 of this program is prohibited from giving any competitor of
 Gaussian, Inc. access to this program.  By using this program,
 the user acknowledges that Gaussian, Inc. is engaged in the
 business of creating and licensing software in the field of
 computational chemistry and represents and warrants to the
 licensee that it is not a competitor of Gaussian, Inc. and that
 it will not use this program in any manner prohibited above.
 ---------------------------------------------------------------
  

 Cite this work as:
 Gaussian 16, Revision C.01,
 M. J. Frisch, G. W. Trucks, H. B. Schlegel, G. E. Scuseria, 
 M. A. Robb, J. R. Cheeseman, G. Scalmani, V. Barone, 
 G. A. Petersson, H. Nakatsuji, X. Li, M. Caricato, A. V. Marenich, 
 J. Bloino, B. G. Janesko, R. Gomperts, B. Mennucci, H. P. Hratchian, 
 J. V. Ortiz, A. F. Izmaylov, J. L. Sonnenberg, D. Williams-Young, 
 F. Ding, F. Lipparini, F. Egidi, J. Goings, B. Peng, A. Petrone, 
 T. Henderson, D. Ranasinghe, V. G. Zakrzewski, J. Gao, N. Rega, 
 G. Zheng, W. Liang, M. Hada, M. Ehara, K. Toyota, R. Fukuda, 
 J. Hasegawa, M. Ishida, T. Nakajima, Y. Honda, O. Kitao, H. Nakai, 
 T. Vreven, K. Throssell, J. A. Montgomery, Jr., J. E. Peralta, 
 F. Ogliaro, M. J. Bearpark, J. J. Heyd, E. N. Brothers, K. N. Kudin, 
 V. N. Staroverov, T. A. Keith, R. Kobayashi, J. Normand, 
 K. Raghavachari, A. P. Rendell, J. C. Burant, S. S. Iyengar, 
 J. Tomasi, M. Cossi, J. M. Millam, M. Klene, C. Adamo, R. Cammi, 
 J. W. Ochterski, R. L. Martin, K. Morokuma, O. Farkas, 
 J. B. Foresman, and D. J. Fox, Gaussian, Inc., Wallingford CT, 2019.
 
 ******************************************
 Gaussian 16:  ES64L-G16RevC.01  3-Jul-2019
                 4-Nov-2020 
 ******************************************
 %NprocShared=32
 Will use up to   32 processors via shared memory.
 %Mem=1194000MB
 %chk=NM3_c2_carboxy.DSDPBEP86_AUG-cc-PVTZ.chk
 ----------------------------------------------------------------------
 # DSDPBEP86/AUG-cc-PVTZ SCF=Tight INT(grid=ultrafine) Pop=NBO MaxDisk=
 1400000MB
 ----------------------------------------------------------------------
 1/38=1,172=1/1;
 2/12=2,17=6,18=5,40=1/2;
 3/5=16,6=1,7=10,11=9,25=1,30=1,74=-77,75=-5/1,2,3;
 4//1;
 5/5=2,32=2,38=5/2;
 8/10=1/1;
 9/16=-3/6;
 6/7=2,8=2,9=2,10=2,40=1/1,7;
 99/5=1,9=1/99;
 ------------------------------------
 NM3_c2_carboxy.DSDPBEP86_AUG-cc-PVTZ
 ------------------------------------
 Symbolic Z-matrix:
 Charge = -1 Multiplicity = 1
 C                    -5.86652   1.36562   0.15996 
 N                    -4.62912   0.77441   0.05661 
 C                    -3.39058   1.40298   0.10497 
 O                    -3.2408    2.61373   0.23445 
 N                    -2.3632    0.53042  -0.0174 
 C                    -0.99747   0.99011   0.09005 
 C                    -0.0462   -0.10153  -0.38418 
 C                     1.41252   0.31878  -0.23586 
 C                    -6.98425   0.50593   0.0921 
 C                    -8.26038   1.02705   0.18339 
 C                    -8.49572   2.39285   0.34784 
 C                    -7.38373   3.21311   0.41304 
 C                    -6.08188   2.74462   0.32314 
 H                    -4.6417   -0.26009  -0.05127 
 H                    -2.53157  -0.48703  -0.01431 
 H                    -0.7605    1.27035   1.12639 
 H                    -0.87639   1.89693  -0.51028 
 H                    -0.27256  -0.33546  -1.42879 
 H                    -0.24169  -1.01915   0.17834 
 H                     1.62255   1.22782  -0.80733 
 H                     2.09154  -0.46072  -0.58897 
 H                     1.65884   0.52409   0.80988 
 H                    -6.81507  -0.55899  -0.03597 
 Cl                   -7.63393   4.93924   0.61406 
 H                    -5.24102   3.419     0.37483 
 C                    -9.44096   0.10377   0.17184 
 H                    -9.49775   2.79522   0.41326 
 F                    -9.85823  -0.19842   1.4193 
 F                    -10.50647   0.65188  -0.44778 
 F                    -9.19227  -1.05952  -0.43904 
 O                    -4.88783  -1.95562  -0.17905 
 O                    -2.68245  -2.27946   0.00882 
 C                    -3.86234  -2.68007  -0.09825 
 C                    -4.11084  -4.19507  -0.13809 
 C                    -2.8489   -5.0396   -0.03099 
 H                    -4.65184  -4.40635  -1.06575 
 H                    -4.81249  -4.42593   0.66947 
 H                    -2.15882  -4.80787  -0.84398 
 H                    -3.08018  -6.10877  -0.06482 
 H                    -2.32076  -4.82849   0.90036 
 
                          Input orientation:                          
 ---------------------------------------------------------------------
 Center     Atomic      Atomic             Coordinates (Angstroms)
 Number     Number       Type             X           Y           Z
 ---------------------------------------------------------------------
      1          6           0       -5.866525    1.365620    0.159956
      2          7           0       -4.629123    0.774415    0.056611
      3          6           0       -3.390578    1.402984    0.104965
      4          8           0       -3.240803    2.613734    0.234447
      5          7           0       -2.363200    0.530416   -0.017399
      6          6           0       -0.997466    0.990106    0.090045
      7          6           0       -0.046196   -0.101531   -0.384182
      8          6           0        1.412518    0.318776   -0.235857
      9          6           0       -6.984250    0.505930    0.092098
     10          6           0       -8.260381    1.027047    0.183393
     11          6           0       -8.495719    2.392845    0.347844
     12          6           0       -7.383728    3.213110    0.413037
     13          6           0       -6.081881    2.744624    0.323135
     14          1           0       -4.641705   -0.260092   -0.051265
     15          1           0       -2.531566   -0.487034   -0.014311
     16          1           0       -0.760497    1.270345    1.126389
     17          1           0       -0.876388    1.896933   -0.510282
     18          1           0       -0.272558   -0.335464   -1.428786
     19          1           0       -0.241689   -1.019145    0.178343
     20          1           0        1.622552    1.227820   -0.807330
     21          1           0        2.091544   -0.460717   -0.588974
     22          1           0        1.658837    0.524092    0.809879
     23          1           0       -6.815073   -0.558986   -0.035972
     24         17           0       -7.633933    4.939243    0.614059
     25          1           0       -5.241024    3.419002    0.374828
     26          6           0       -9.440961    0.103765    0.171845
     27          1           0       -9.497753    2.795222    0.413263
     28          9           0       -9.858228   -0.198419    1.419301
     29          9           0      -10.506472    0.651883   -0.447782
     30          9           0       -9.192269   -1.059520   -0.439041
     31          8           0       -4.887829   -1.955619   -0.179048
     32          8           0       -2.682447   -2.279459    0.008821
     33          6           0       -3.862339   -2.680067   -0.098251
     34          6           0       -4.110841   -4.195072   -0.138092
     35          6           0       -2.848904   -5.039605   -0.030992
     36          1           0       -4.651844   -4.406353   -1.065750
     37          1           0       -4.812486   -4.425928    0.669466
     38          1           0       -2.158821   -4.807867   -0.843982
     39          1           0       -3.080178   -6.108768   -0.064815
     40          1           0       -2.320757   -4.828489    0.900357
 ---------------------------------------------------------------------
                    Distance matrix (angstroms):
                    1          2          3          4          5
     1  C    0.000000
     2  N    1.375270   0.000000
     3  C    2.476839   1.389759   0.000000
     4  O    2.908222   2.311310   1.226831   0.000000
     5  N    3.605870   2.280223   1.353459   2.274604   0.000000
     6  C    4.884018   3.638210   2.428514   2.773009   1.445023
     7  C    6.027010   4.686662   3.699693   4.238028   2.429485
     8  C    7.364579   6.065853   4.935727   5.209742   3.787950
     9  C    1.411730   2.370647   3.703964   4.298430   4.622412
    10  C    2.417794   3.642243   4.884921   5.264631   5.921461
    11  C    2.828985   4.201750   5.205889   5.260779   6.419488
    12  C    2.403992   3.696231   4.395078   4.189866   5.708574
    13  C    1.405226   2.462370   3.015080   2.845474   4.341344
    14  H    2.046396   1.040192   2.086995   3.209834   2.411977
    15  H    3.818985   2.448679   2.079494   3.190558   1.031292
    16  H    5.197556   4.044334   2.824576   2.958407   2.103427
    17  H    5.062902   3.957832   2.635084   2.580481   2.078680
    18  H    6.058898   4.734753   3.885440   4.502731   2.666936
    19  H    6.109518   4.741439   3.973360   4.711225   2.634438
    20  H    7.552543   6.327354   5.098474   5.163166   4.122692
    21  H    8.199223   6.863650   5.831689   6.210007   4.599325
    22  H    7.600108   6.337864   5.173582   5.357630   4.106241
    23  H    2.154586   2.562208   3.949222   4.786929   4.583265
    24  Cl   4.012571   5.165794   5.547104   4.985147   6.900515
    25  H    2.157267   2.733044   2.749783   2.160798   4.096296
    26  C    3.790648   4.859715   6.188665   6.689231   7.093133
    27  H    3.910722   5.283411   6.271440   6.262135   7.497777
    28  F    4.468317   5.490617   6.791352   7.287139   7.666208
    29  F    4.733696   5.900226   7.176742   7.556735   8.155542
    30  F    4.159408   4.942802   6.326096   7.026118   7.024376
    31  O    3.478993   2.752371   3.688175   4.874695   3.546865
    32  O    4.842292   3.621875   3.751144   4.930112   2.828075
    33  C    4.522279   3.541946   4.115235   5.340535   3.544172
    34  C    5.838882   5.000232   5.649432   6.874269   5.039747
    35  C    7.083036   6.081092   6.466749   7.667961   5.591174
    36  H    6.024406   5.300996   6.058858   7.277579   5.541536
    37  H    5.908690   5.239539   6.026333   7.226082   5.571008
    38  H    7.270963   6.170521   6.402531   7.577193   5.405764
    39  H    7.980020   7.056357   7.520079   8.729112   6.677955
    40  H    7.175489   6.118251   6.372474   7.528386   5.437090
                    6          7          8          9         10
     6  C    0.000000
     7  C    1.523640   0.000000
     8  C    2.522879   1.525288   0.000000
     9  C    6.006332   6.980863   8.405254   0.000000
    10  C    7.263609   8.310756   9.707852   1.381451   0.000000
    11  C    7.632689   8.840375  10.139805   2.431130   1.395648
    12  C    6.769817   8.090846   9.282898   2.755251   2.366459
    13  C    5.383674   6.710469   7.897040   2.424747   2.777671
    14  H    3.855314   4.610280   6.084635   2.468777   3.847936
    15  H    2.132205   2.542142   4.031651   4.563299   5.928815
    16  H    1.099408   2.161966   2.735543   6.355249   7.562850
    17  H    1.094252   2.167713   2.793740   6.293149   7.467344
    18  H    2.142306   1.094149   2.165777   6.933098   8.262014
    19  H    2.148508   1.093924   2.167486   6.913423   8.275647
    20  H    2.779619   2.175074   1.094101   8.683729   9.934496
    21  H    3.479646   2.177357   1.092417   9.152503  10.486770
    22  H    2.791286   2.173551   1.093797   8.672860   9.951700
    23  H    6.021639   6.793248   8.276695   1.085849   2.156974
    24  Cl   7.740347   9.164041  10.193594   4.510964   3.985372
    25  H    4.897798   6.321115   7.365729   3.406577   3.856762
    26  C    8.490283   9.413444  10.863262   2.490687   1.498783
    27  H    8.695850   9.917613  11.206613   3.414924   2.170340
    28  F    9.038397   9.976869  11.403366   3.243042   2.362700
    29  F    9.530208  10.487567  11.925527   3.566346   2.363061
    30  F    8.463788   9.196272  10.695910   2.758277   2.368460
    31  O    4.887191   5.188558   6.698542   3.244646   4.516831
    32  O    3.679105   3.442040   4.855865   5.125509   6.486664
    33  C    4.659734   4.614494   6.069276   4.464654   5.758888
    34  C    6.052373   5.773991   7.133854   5.514425   6.677766
    35  C    6.308716   5.688980   6.849375   6.918757   8.132300
    36  H    6.619072   6.340980   7.732532   5.559789   6.641064
    37  H    6.650078   6.521358   7.879245   5.419699   6.469867
    38  H    5.986456   5.179209   6.277480   7.238609   8.504749
    39  H    7.399709   6.737503   7.843908   7.682489   8.821336
    40  H    6.021940   5.400723   6.459309   7.131443   8.371408
                   11         12         13         14         15
    11  C    0.000000
    12  C    1.383332   0.000000
    13  C    2.439461   1.386494   0.000000
    14  H    4.695827   4.449427   3.352999   0.000000
    15  H    6.632947   6.116958   4.812715   2.122629   0.000000
    16  H    7.854922   6.939049   5.579951   4.335076   2.743404
    17  H    7.683522   6.703008   5.339506   4.363607   2.944300
    18  H    8.844233   8.158028   6.804734   4.581778   2.669612
    19  H    8.933052   8.305166   6.949443   4.470908   2.358769
    20  H   10.250421   9.302890   7.933281   6.482780   4.563585
    21  H   11.005025  10.211847   8.826723   6.757664   4.658763
    22  H   10.335411   9.442261   8.067615   6.407289   4.388752
    23  H    3.418361   3.841053   3.402994   2.193879   4.284166
    24  Cl   2.701423   1.755718   2.703674   6.035658   7.474857
    25  H    3.412736   2.152913   1.079120   3.751863   4.769666
    26  C    2.482810   3.736095   4.275563   4.818197   6.937105
    27  H    1.081785   2.154932   3.417435   5.756035   7.712574
    28  F    3.117548   4.332926   4.911606   5.420192   7.471179
    29  F    2.776166   4.129458   4.954885   5.948481   8.067475
    30  F    3.608767   4.717227   4.972619   4.636496   6.698739
    31  O    5.674824   5.770255   4.875472   1.718056   2.781340
    32  O    7.465889   7.241116   6.074237   2.814275   1.798913
    33  C    6.884885   6.884122   5.876326   2.542813   2.566592
    34  C    7.928678   8.117678   7.228908   3.971576   4.032241
    35  C    9.341914   9.427041   8.436336   5.104732   4.563648
    36  H    7.937425   8.228379   7.423643   4.268578   4.578445
    37  H    7.756630   8.064239   7.290276   4.231171   4.602720
    38  H    9.665764   9.654835   8.590267   5.241696   4.415528
    39  H   10.088400  10.278439   9.356457   6.053558   5.648665
    40  H    9.517515   9.515171   8.475334   5.211779   4.441767
                   16         17         18         19         20
    16  H    0.000000
    17  H    1.756341   0.000000
    18  H    3.057062   2.488344   0.000000
    19  H    2.531742   3.062770   1.746780   0.000000
    20  H    3.069202   2.603969   2.534069   3.081526   0.000000
    21  H    3.751424   3.791217   2.511962   2.518848   1.766009
    22  H    2.551519   3.170944   3.079082   2.528324   1.764061
    23  H    6.430819   6.443950   6.692862   6.592955   8.659168
    24  Cl   7.808163   7.495612   9.283619   9.504604  10.073605
    25  H    5.025604   4.706395   6.483416   6.687982   7.301195
    26  C    8.810364   8.776825   9.317432   9.267554  11.163494
    27  H    8.897946   8.717098   9.914563  10.013955  11.296362
    28  F    9.220183   9.422698  10.000772   9.730950  11.781356
    29  F    9.891640   9.710436  10.328128  10.418740  12.148013
    30  F    8.886711   8.826073   9.003616   8.971938  11.060195
    31  O    5.398692   5.571672   5.048512   4.753033   7.274207
    32  O    4.188551   4.579691   3.413707   2.752167   5.612497
    33  C    5.169809   5.480383   4.489322   3.993027   6.771883
    34  C    6.534103   6.907440   5.594183   5.015673   7.920065
    35  C    6.746588   7.227454   5.542593   4.796404   7.738039
    36  H    7.223085   7.368448   5.990165   5.698281   8.436749
    37  H    7.005350   7.540772   6.461076   5.721849   8.692267
    38  H    6.540821   6.834496   4.889006   4.367489   7.122475
    39  H    7.826315   8.315431   6.563093   5.832702   8.746001
    40  H    6.299309   7.021924   5.459607   4.399424   7.425953
                   21         22         23         24         25
    21  H    0.000000
    22  H    1.764617   0.000000
    23  H    8.924310   8.584619   0.000000
    24  Cl  11.188912  10.290164   5.596749   0.000000
    25  H    8.351508   7.495189   4.297765   2.845062   0.000000
    26  C   11.571350  11.126063   2.716194   5.180999   5.354575
    27  H   12.079629  11.392315   4.318483   2.847976   4.302363
    28  F   12.120191  11.555787   3.392435   5.656101   5.957788
    29  F   12.647839  12.230814   3.906689   5.268818   6.004880
    30  F   11.300685  11.036944   2.462531   6.286700   6.027594
    31  O    7.149435   7.070062   2.384392   7.463861   5.414617
    32  O    5.143556   5.229564   4.476677   8.774576   6.257215
    33  C    6.372994   6.447846   3.636138   8.531482   6.270823
    34  C    7.253846   7.513877   4.532595   9.819043   7.714566
    35  C    6.759112   7.209822   5.983851  11.085576   8.799714
    36  H    7.827429   8.225082   4.532354   9.952626   7.978633
    37  H    8.060534   8.148647   4.411489   9.781107   7.862149
    38  H    6.085093   6.763103   6.355042  11.274258   8.869434
    39  H    7.676063   8.198670   6.689571  11.968964   9.779619
    40  H    6.384665   6.670494   6.269310  11.122967   8.765002
                   26         27         28         29         30
    26  C    0.000000
    27  H    2.702860   0.000000
    28  F    1.349657   3.178670   0.000000
    29  F    1.348957   2.520479   2.151566   0.000000
    30  F    1.337259   3.959645   2.153702   2.157802   0.000000
    31  O    5.009511   6.646257   5.508842   6.200035   4.404406
    32  O    7.168253   8.506725   7.603422   8.367594   6.638269
    33  C    6.240488   7.873902   6.664250   7.441006   5.581260
    34  C    6.854651   8.842343   7.171552   8.030752   5.978559
    35  C    8.363648  10.285381   8.641241   9.550136   7.499724
    36  H    6.693911   8.805282   7.140631   7.761720   5.675342
    37  H    6.495269   8.611758   6.625224   7.710635   5.634180
    38  H    8.842262  10.641784   9.254746   9.982441   7.980193
    39  H    8.894444  10.986122   9.114647  10.050021   7.936788
    40  H    8.692247  10.481770   8.861169   9.942731   7.950899
                   31         32         33         34         35
    31  O    0.000000
    32  O    2.236935   0.000000
    33  C    1.258166   1.250638   0.000000
    34  C    2.370767   2.394048   1.535767   0.000000
    35  C    3.700014   2.765447   2.568851   1.522232   0.000000
    36  H    2.616873   3.091425   2.130595   1.094474   2.173091
    37  H    2.613059   3.095294   2.130774   1.094418   2.173222
    38  H    4.003117   2.719247   2.825885   2.164297   1.091270
    39  H    4.530927   3.850613   3.516943   2.174827   1.094414
    40  H    4.001044   2.724557   2.826555   2.164254   1.091293
                   36         37         38         39         40
    36  H    0.000000
    37  H    1.742747   0.000000
    38  H    2.534869   3.078691   0.000000
    39  H    2.523931   2.524285   1.774357   0.000000
    40  H    3.078595   2.534577   1.751961   1.774089   0.000000
 Stoichiometry    C14H17ClF3N2O3(1-)
 Framework group  C1[X(C14H17ClF3N2O3)]
 Deg. of freedom   114
 Full point group                 C1      NOp   1
 Largest Abelian subgroup         C1      NOp   1
 Largest concise Abelian subgroup C1      NOp   1
                         Standard orientation:                         
 ---------------------------------------------------------------------
 Center     Atomic      Atomic             Coordinates (Angstroms)
 Number     Number       Type             X           Y           Z
 ---------------------------------------------------------------------
      1          6           0        0.895268   -0.685751   -0.033761
      2          7           0       -0.478356   -0.622884   -0.057713
      3          6           0       -1.369589   -1.687867   -0.003456
      4          8           0       -1.028605   -2.864736    0.058379
      5          7           0       -2.660742   -1.283321   -0.036920
      6          6           0       -3.731363   -2.245362    0.090903
      7          6           0       -5.057530   -1.595079   -0.283118
      8          6           0       -6.226682   -2.559042   -0.108869
      9          6           0        1.584338    0.545132   -0.089347
     10          6           0        2.965603    0.562357   -0.074578
     11          6           0        3.722980   -0.607584   -0.000754
     12          6           0        3.023681   -1.799874    0.054337
     13          6           0        1.639345   -1.875606    0.038708
     14          1           0       -0.875638    0.337350   -0.103723
     15          1           0       -2.901951   -0.282323    0.021243
     16          1           0       -3.782129   -2.638681    1.116291
     17          1           0       -3.523165   -3.101431   -0.558085
     18          1           0       -4.998946   -1.248134   -1.319149
     19          1           0       -5.203626   -0.698374    0.326181
     20          1           0       -6.097791   -3.453196   -0.726065
     21          1           0       -7.174235   -2.094009   -0.390405
     22          1           0       -6.314692   -2.887550    0.930712
     23          1           0        1.006980    1.462941   -0.147261
     24         17           0        3.937079   -3.296697    0.142505
     25          1           0        1.131760   -2.827022    0.079510
     26          6           0        3.690849    1.873984   -0.072396
     27          1           0        4.804564   -0.587540    0.005000
     28          9           0        4.026600    2.263567    1.175431
     29          9           0        4.849216    1.813304   -0.761010
     30          9           0        2.975073    2.871041   -0.603248
     31          8           0       -1.316708    1.997466   -0.138187
     32          8           0       -3.459872    1.423292    0.146501
     33          6           0       -2.537084    2.258202    0.022067
     34          6           0       -2.900756    3.749687    0.064419
     35          6           0       -4.383803    4.027070    0.266461
     36          1           0       -2.537536    4.194244   -0.867415
     37          1           0       -2.300391    4.203338    0.859097
     38          1           0       -4.973499    3.577363   -0.534096
     39          1           0       -4.589377    5.101773    0.288684
     40          1           0       -4.735061    3.587549    1.201534
 ---------------------------------------------------------------------
 Rotational constants (GHZ):           0.2632482           0.1215245           0.0847147
 Standard basis: Aug-CC-pVTZ (5D, 7F)
 There are  1694 symmetry adapted cartesian basis functions of A   symmetry.
 There are  1453 symmetry adapted basis functions of A   symmetry.
  1453 basis functions,  2157 primitive gaussians,  1694 cartesian basis functions
    92 alpha electrons       92 beta electrons
       nuclear repulsion energy      2094.0733836052 Hartrees.
 NAtoms=   40 NActive=   40 NUniq=   40 SFac= 1.00D+00 NAtFMM=   60 NAOKFM=F Big=F
 Integral buffers will be    131072 words long.
 Regular integral format.
 Two-electron integral symmetry is turned on.
 Nuclear repulsion after empirical dispersion term =     2094.0440369588 Hartrees.
 One-electron integrals computed using PRISM.
 NBasis=  1453 RedAO= T EigKep=  1.26D-06  NBF=  1453
 NBsUse=  1449 1.00D-06 EigRej=  7.73D-07 NBFU=  1449
 ExpMin= 2.53D-02 ExpMax= 4.56D+05 ExpMxC= 1.44D+03 IAcc=3 IRadAn=         5 AccDes= 0.00D+00
 Harris functional with IExCor= 1004 and IRadAn=       5 diagonalized for initial guess.
 HarFok:  IExCor= 1004 AccDes= 0.00D+00 IRadAn=         5 IDoV= 1 UseB2=F ITyADJ=14
 ICtDFT=  3500011 ScaDFX=  1.000000  1.000000  1.000000  1.000000
 FoFCou: FMM=F IPFlag=           0 FMFlag=      100000 FMFlg1=           0
         NFxFlg=           0 DoJE=T BraDBF=F KetDBF=T FulRan=T
         wScrn=  0.000000 ICntrl=       500 IOpCl=  0 I1Cent=   200000004 NGrid=           0
         NMat0=    1 NMatS0=      1 NMatT0=    0 NMatD0=    1 NMtDS0=    0 NMtDT0=    0
 Petite list used in FoFCou.
 Requested convergence on RMS density matrix=1.00D-08 within 128 cycles.
 Requested convergence on MAX density matrix=1.00D-06.
 Requested convergence on             energy=1.00D-06.
 No special actions if energy rises.
 SCF Done:  E(RDSDPBEP86) =  -1634.82868255     A.U. after   14 cycles
            NFock= 14  Conv=0.29D-08     -V/T= 2.0027
 DoSCS=T DFT=T ScalE2(SS,OS)=  0.220000  0.520000
 ExpMin= 2.53D-02 ExpMax= 4.56D+05 ExpMxC= 1.44D+03 IAcc=3 IRadAn=         5 AccDes= 0.00D+00
 HarFok:  IExCor=  205 AccDes= 0.00D+00 IRadAn=         5 IDoV=-2 UseB2=F ITyADJ=14
 ICtDFT= 12500011 ScaDFX=  1.000000  1.000000  1.000000  1.000000
 GSVD:  LWork=        -945 too small for GESVD, short by        4050 words or        4050 for optimal perf.
 Range of M.O.s used for correlation:    28  1449
 NBasis=  1453 NAE=    92 NBE=    92 NFC=    27 NFV=     0
 NROrb=   1422 NOA=    65 NOB=    65 NVA=  1357 NVB=  1357

 **** Warning!!: The largest alpha MO coefficient is  0.10123174D+03

 DoSCS=T DFT=T ScalE2(SS,OS)=  0.220000  0.520000
 Fully direct method using O(OVN) memory.
 JobTyp=1 Pass  1:  I=   1 to  52 NPSUse= 32 ParTrn=T ParDer=T DoDerP=F.
 JobTyp=1 Pass  2:  I=  53 to  65 NPSUse= 32 ParTrn=T ParDer=T DoDerP=F.
 Spin components of T(2) and E(2):
     alpha-alpha T2 =       0.2274651197D+00 E2=     -0.1424273818D+00
     alpha-beta  T2 =       0.1186919052D+01 E2=     -0.1924160040D+01
     beta-beta   T2 =       0.2274651197D+00 E2=     -0.1424273818D+00
 E2(DSDPBEP86) =    -0.2209014804D+01 E(DSDPBEP86) =    -0.16370376973517D+04

 **********************************************************************

            Population analysis using the SCF Density.

 **********************************************************************

 Orbital symmetries:
       Occupied  (A) (A) (A) (A) (A) (A) (A) (A) (A) (A) (A) (A)
                 (A) (A) (A) (A) (A) (A) (A) (A) (A) (A) (A) (A)
                 (A) (A) (A) (A) (A) (A) (A) (A) (A) (A) (A) (A)
                 (A) (A) (A) (A) (A) (A) (A) (A) (A) (A) (A) (A)
                 (A) (A) (A) (A) (A) (A) (A) (A) (A) (A) (A) (A)
                 (A) (A) (A) (A) (A) (A) (A) (A) (A) (A) (A) (A)
                 (A) (A) (A) (A) (A) (A) (A) (A) (A) (A) (A) (A)
                 (A) (A) (A) (A) (A) (A) (A) (A)
       Virtual   (A) (A) (A) (A) (A) (A) (A) (A) (A) (A) (A) (A)
                 (A) (A) (A) (A) (A) (A) (A) (A) (A) (A) (A) (A)
                 (A) (A) (A) (A) (A) (A) (A) (A) (A) (A) (A) (A)
                 (A) (A) (A) (A) (A) (A) (A) (A) (A) (A) (A) (A)
                 (A) (A) (A) (A) (A) (A) (A) (A) (A) (A) (A) (A)
                 (A) (A) (A) (A) (A) (A) (A) (A) (A) (A) (A) (A)
                 (A) (A) (A) (A) (A) (A) (A) (A) (A) (A) (A) (A)
                 (A) (A) (A) (A) (A) (A) (A) (A) (A) (A) (A) (A)
                 (A) (A) (A) (A) (A) (A) (A) (A) (A) (A) (A) (A)
                 (A) (A) (A) (A) (A) (A) (A) (A) (A) (A) (A) (A)
                 (A) (A) (A) (A) (A) (A) (A) (A) (A) (A) (A) (A)
                 (A) (A) (A) (A) (A) (A) (A) (A) (A) (A) (A) (A)
                 (A) (A) (A) (A) (A) (A) (A) (A) (A) (A) (A) (A)
                 (A) (A) (A) (A) (A) (A) (A) (A) (A) (A) (A) (A)
                 (A) (A) (A) (A) (A) (A) (A) (A) (A) (A) (A) (A)
                 (A) (A) (A) (A) (A) (A) (A) (A) (A) (A) (A) (A)
                 (A) (A) (A) (A) (A) (A) (A) (A) (A) (A) (A) (A)
                 (A) (A) (A) (A) (A) (A) (A) (A) (A) (A) (A) (A)
                 (A) (A) (A) (A) (A) (A) (A) (A) (A) (A) (A) (A)
                 (A) (A) (A) (A) (A) (A) (A) (A) (A) (A) (A) (A)
                 (A) (A) (A) (A) (A) (A) (A) (A) (A) (A) (A) (A)
                 (A) (A) (A) (A) (A) (A) (A) (A) (A) (A) (A) (A)
                 (A) (A) (A) (A) (A) (A) (A) (A) (A) (A) (A) (A)
                 (A) (A) (A) (A) (A) (A) (A) (A) (A) (A) (A) (A)
                 (A) (A) (A) (A) (A) (A) (A) (A) (A) (A) (A) (A)
                 (A) (A) (A) (A) (A) (A) (A) (A) (A) (A) (A) (A)
                 (A) (A) (A) (A) (A) (A) (A) (A) (A) (A) (A) (A)
                 (A) (A) (A) (A) (A) (A) (A) (A) (A) (A) (A) (A)
                 (A) (A) (A) (A) (A) (A) (A) (A) (A) (A) (A) (A)
                 (A) (A) (A) (A) (A) (A) (A) (A) (A) (A) (A) (A)
                 (A) (A) (A) (A) (A) (A) (A) (A) (A) (A) (A) (A)
                 (A) (A) (A) (A) (A) (A) (A) (A) (A) (A) (A) (A)
                 (A) (A) (A) (A) (A) (A) (A) (A) (A) (A) (A) (A)
                 (A) (A) (A) (A) (A) (A) (A) (A) (A) (A) (A) (A)
                 (A) (A) (A) (A) (A) (A) (A) (A) (A) (A) (A) (A)
                 (A) (A) (A) (A) (A) (A) (A) (A) (A) (A) (A) (A)
                 (A) (A) (A) (A) (A) (A) (A) (A) (A) (A) (A) (A)
                 (A) (A) (A) (A) (A) (A) (A) (A) (A) (A) (A) (A)
                 (A) (A) (A) (A) (A) (A) (A) (A) (A) (A) (A) (A)
                 (A) (A) (A) (A) (A) (A) (A) (A) (A) (A) (A) (A)
                 (A) (A) (A) (A) (A) (A) (A) (A) (A) (A) (A) (A)
                 (A) (A) (A) (A) (A) (A) (A) (A) (A) (A) (A) (A)
                 (A) (A) (A) (A) (A) (A) (A) (A) (A) (A) (A) (A)
                 (A) (A) (A) (A) (A) (A) (A) (A) (A) (A) (A) (A)
                 (A) (A) (A) (A) (A) (A) (A) (A) (A) (A) (A) (A)
                 (A) (A) (A) (A) (A) (A) (A) (A) (A) (A) (A) (A)
                 (A) (A) (A) (A) (A) (A) (A) (A) (A) (A) (A) (A)
                 (A) (A) (A) (A) (A) (A) (A) (A) (A) (A) (A) (A)
                 (A) (A) (A) (A) (A) (A) (A) (A) (A) (A) (A) (A)
                 (A) (A) (A) (A) (A) (A) (A) (A) (A) (A) (A) (A)
                 (A) (A) (A) (A) (A) (A) (A) (A) (A) (A) (A) (A)
                 (A) (A) (A) (A) (A) (A) (A) (A) (A) (A) (A) (A)
                 (A) (A) (A) (A) (A) (A) (A) (A) (A) (A) (A) (A)
                 (A) (A) (A) (A) (A) (A) (A) (A) (A) (A) (A) (A)
                 (A) (A) (A) (A) (A) (A) (A) (A) (A) (A) (A) (A)
                 (A) (A) (A) (A) (A) (A) (A) (A) (A) (A) (A) (A)
                 (A) (A) (A) (A) (A) (A) (A) (A) (A) (A) (A) (A)
                 (A) (A) (A) (A) (A) (A) (A) (A) (A) (A) (A) (A)
                 (A) (A) (A) (A) (A) (A) (A) (A) (A) (A) (A) (A)
                 (A) (A) (A) (A) (A) (A) (A) (A) (A) (A) (A) (A)
                 (A) (A) (A) (A) (A) (A) (A) (A) (A) (A) (A) (A)
                 (A) (A) (A) (A) (A) (A) (A) (A) (A) (A) (A) (A)
                 (A) (A) (A) (A) (A) (A) (A) (A) (A) (A) (A) (A)
                 (A) (A) (A) (A) (A) (A) (A) (A) (A) (A) (A) (A)
                 (A) (A) (A) (A) (A) (A) (A) (A) (A) (A) (A) (A)
                 (A) (A) (A) (A) (A) (A) (A) (A) (A) (A) (A) (A)
                 (A) (A) (A) (A) (A) (A) (A) (A) (A) (A) (A) (A)
                 (A) (A) (A) (A) (A) (A) (A) (A) (A) (A) (A) (A)
                 (A) (A) (A) (A) (A) (A) (A) (A) (A) (A) (A) (A)
                 (A) (A) (A) (A) (A) (A) (A) (A) (A) (A) (A) (A)
                 (A) (A) (A) (A) (A) (A) (A) (A) (A) (A) (A) (A)
                 (A) (A) (A) (A) (A) (A) (A) (A) (A) (A) (A) (A)
                 (A) (A) (A) (A) (A) (A) (A) (A) (A) (A) (A) (A)
                 (A) (A) (A) (A) (A) (A) (A) (A) (A) (A) (A) (A)
                 (A) (A) (A) (A) (A) (A) (A) (A) (A) (A) (A) (A)
                 (A) (A) (A) (A) (A) (A) (A) (A) (A) (A) (A) (A)
                 (A) (A) (A) (A) (A) (A) (A) (A) (A) (A) (A) (A)
                 (A) (A) (A) (A) (A) (A) (A) (A) (A) (A) (A) (A)
                 (A) (A) (A) (A) (A) (A) (A) (A) (A) (A) (A) (A)
                 (A) (A) (A) (A) (A) (A) (A) (A) (A) (A) (A) (A)
                 (A) (A) (A) (A) (A) (A) (A) (A) (A) (A) (A) (A)
                 (A) (A) (A) (A) (A) (A) (A) (A) (A) (A) (A) (A)
                 (A) (A) (A) (A) (A) (A) (A) (A) (A) (A) (A) (A)
                 (A) (A) (A) (A) (A) (A) (A) (A) (A) (A) (A) (A)
                 (A) (A) (A) (A) (A) (A) (A) (A) (A) (A) (A) (A)
                 (A) (A) (A) (A) (A) (A) (A) (A) (A) (A) (A) (A)
                 (A) (A) (A) (A) (A) (A) (A) (A) (A) (A) (A) (A)
                 (A) (A) (A) (A) (A) (A) (A) (A) (A) (A) (A) (A)
                 (A) (A) (A) (A) (A) (A) (A) (A) (A) (A) (A) (A)
                 (A) (A) (A) (A) (A) (A) (A) (A) (A) (A) (A) (A)
                 (A) (A) (A) (A) (A) (A) (A) (A) (A) (A) (A) (A)
                 (A) (A) (A) (A) (A) (A) (A) (A) (A) (A) (A) (A)
                 (A) (A) (A) (A) (A) (A) (A) (A) (A) (A) (A) (A)
                 (A) (A) (A) (A) (A) (A) (A) (A) (A) (A) (A) (A)
                 (A) (A) (A) (A) (A) (A) (A) (A) (A) (A) (A) (A)
                 (A) (A) (A) (A) (A) (A) (A) (A) (A) (A) (A) (A)
                 (A) (A) (A) (A) (A) (A) (A) (A) (A) (A) (A) (A)
                 (A) (A) (A) (A) (A) (A) (A) (A) (A) (A) (A) (A)
                 (A) (A) (A) (A) (A) (A) (A) (A) (A) (A) (A) (A)
                 (A) (A) (A) (A) (A) (A) (A) (A) (A) (A) (A) (A)
                 (A) (A) (A) (A) (A) (A) (A) (A) (A) (A) (A) (A)
                 (A) (A) (A) (A) (A) (A) (A) (A) (A) (A) (A) (A)
                 (A) (A) (A) (A) (A) (A) (A) (A) (A) (A) (A) (A)
                 (A) (A) (A) (A) (A) (A) (A) (A) (A) (A) (A) (A)
                 (A) (A) (A) (A) (A) (A) (A) (A) (A) (A) (A) (A)
                 (A) (A) (A) (A) (A) (A) (A) (A) (A) (A) (A) (A)
                 (A) (A) (A) (A) (A) (A) (A) (A) (A) (A) (A) (A)
                 (A) (A) (A) (A) (A) (A) (A) (A) (A) (A) (A) (A)
                 (A) (A) (A) (A) (A) (A) (A) (A) (A) (A) (A) (A)
                 (A) (A) (A) (A) (A) (A) (A) (A) (A) (A) (A) (A)
                 (A) (A) (A) (A) (A) (A) (A) (A) (A) (A) (A) (A)
                 (A) (A) (A) (A) (A) (A) (A) (A) (A) (A) (A) (A)
                 (A) (A) (A) (A) (A) (A) (A) (A) (A) (A) (A) (A)
                 (A)
 The electronic state is 1-A.
 Alpha  occ. eigenvalues -- -103.48074 -25.62020 -25.61949 -25.61608 -19.84411
 Alpha  occ. eigenvalues --  -19.82048 -19.81769 -14.98124 -14.96162 -10.99319
 Alpha  occ. eigenvalues --  -10.83382 -10.79772 -10.78812 -10.78173 -10.75755
 Alpha  occ. eigenvalues --  -10.73897 -10.73662 -10.72973 -10.72589 -10.71870
 Alpha  occ. eigenvalues --  -10.71104 -10.69585 -10.69519 -10.05574  -7.63240
 Alpha  occ. eigenvalues --   -7.62794  -7.62783  -1.48357  -1.39103  -1.38632
 Alpha  occ. eigenvalues --   -1.14714  -1.12558  -1.02905  -1.02317  -0.99426
 Alpha  occ. eigenvalues --   -0.97544  -0.92704  -0.86096  -0.84484  -0.82179
 Alpha  occ. eigenvalues --   -0.80896  -0.77518  -0.74104  -0.69203  -0.67310
 Alpha  occ. eigenvalues --   -0.66757  -0.64499  -0.64258  -0.62872  -0.61879
 Alpha  occ. eigenvalues --   -0.58158  -0.55489  -0.53505  -0.52981  -0.52457
 Alpha  occ. eigenvalues --   -0.52047  -0.50364  -0.49020  -0.48506  -0.48452
 Alpha  occ. eigenvalues --   -0.47049  -0.46747  -0.46402  -0.44859  -0.44690
 Alpha  occ. eigenvalues --   -0.44060  -0.43885  -0.43290  -0.42120  -0.41362
 Alpha  occ. eigenvalues --   -0.40929  -0.39799  -0.38713  -0.38462  -0.36948
 Alpha  occ. eigenvalues --   -0.36909  -0.36028  -0.35587  -0.34228  -0.33986
 Alpha  occ. eigenvalues --   -0.33193  -0.32402  -0.31626  -0.31571  -0.28852
 Alpha  occ. eigenvalues --   -0.26091  -0.22750  -0.22573  -0.22354  -0.21964
 Alpha  occ. eigenvalues --   -0.21728  -0.16939
 Alpha virt. eigenvalues --    0.08197   0.09011   0.09490   0.10054   0.10234
 Alpha virt. eigenvalues --    0.11027   0.11130   0.11320   0.11727   0.12574
 Alpha virt. eigenvalues --    0.12759   0.12998   0.13389   0.13412   0.13840
 Alpha virt. eigenvalues --    0.14115   0.14290   0.14607   0.15048   0.15483
 Alpha virt. eigenvalues --    0.15673   0.16204   0.16817   0.17031   0.17417
 Alpha virt. eigenvalues --    0.17512   0.18056   0.18150   0.18537   0.18693
 Alpha virt. eigenvalues --    0.18812   0.19146   0.19315   0.19631   0.19829
 Alpha virt. eigenvalues --    0.20270   0.20482   0.21024   0.21083   0.21288
 Alpha virt. eigenvalues --    0.21459   0.21758   0.21996   0.22111   0.22309
 Alpha virt. eigenvalues --    0.22563   0.22683   0.23082   0.23418   0.23485
 Alpha virt. eigenvalues --    0.23800   0.23940   0.24389   0.24580   0.24863
 Alpha virt. eigenvalues --    0.25106   0.25536   0.26041   0.26295   0.26720
 Alpha virt. eigenvalues --    0.26782   0.26951   0.27470   0.28023   0.28370
 Alpha virt. eigenvalues --    0.28485   0.28606   0.28967   0.28991   0.29537
 Alpha virt. eigenvalues --    0.29707   0.30419   0.30499   0.30811   0.30873
 Alpha virt. eigenvalues --    0.31106   0.31750   0.32196   0.32362   0.32728
 Alpha virt. eigenvalues --    0.32951   0.33290   0.33306   0.33560   0.33617
 Alpha virt. eigenvalues --    0.34132   0.34489   0.34664   0.34765   0.35232
 Alpha virt. eigenvalues --    0.35385   0.35783   0.35891   0.36069   0.36558
 Alpha virt. eigenvalues --    0.36738   0.36974   0.37155   0.37326   0.37428
 Alpha virt. eigenvalues --    0.37719   0.37779   0.38330   0.38402   0.38537
 Alpha virt. eigenvalues --    0.38718   0.38798   0.39290   0.39499   0.39547
 Alpha virt. eigenvalues --    0.39735   0.40205   0.40278   0.40469   0.40639
 Alpha virt. eigenvalues --    0.40848   0.41074   0.41385   0.41673   0.41977
 Alpha virt. eigenvalues --    0.42175   0.42476   0.42684   0.42706   0.43126
 Alpha virt. eigenvalues --    0.43387   0.43758   0.43877   0.44118   0.44356
 Alpha virt. eigenvalues --    0.44474   0.44759   0.45122   0.45379   0.45498
 Alpha virt. eigenvalues --    0.45710   0.45925   0.46171   0.46285   0.46476
 Alpha virt. eigenvalues --    0.46741   0.47208   0.47645   0.47799   0.48142
 Alpha virt. eigenvalues --    0.48246   0.48384   0.48882   0.48987   0.49182
 Alpha virt. eigenvalues --    0.49355   0.49457   0.49835   0.50031   0.50403
 Alpha virt. eigenvalues --    0.50593   0.50717   0.51105   0.51209   0.51525
 Alpha virt. eigenvalues --    0.51684   0.52012   0.52470   0.52688   0.52928
 Alpha virt. eigenvalues --    0.52981   0.53323   0.53627   0.53850   0.53987
 Alpha virt. eigenvalues --    0.54234   0.54371   0.54572   0.54619   0.54923
 Alpha virt. eigenvalues --    0.55014   0.55119   0.55394   0.55807   0.55902
 Alpha virt. eigenvalues --    0.56093   0.56297   0.56755   0.56814   0.57357
 Alpha virt. eigenvalues --    0.57451   0.57668   0.57972   0.58136   0.58217
 Alpha virt. eigenvalues --    0.58485   0.58614   0.58905   0.59255   0.59338
 Alpha virt. eigenvalues --    0.59748   0.59893   0.60145   0.60429   0.60914
 Alpha virt. eigenvalues --    0.61240   0.61679   0.62117   0.62256   0.62326
 Alpha virt. eigenvalues --    0.62607   0.62917   0.63342   0.63428   0.63709
 Alpha virt. eigenvalues --    0.64085   0.64574   0.64704   0.64970   0.65217
 Alpha virt. eigenvalues --    0.65383   0.65557   0.66015   0.66058   0.66814
 Alpha virt. eigenvalues --    0.66940   0.67069   0.67748   0.68218   0.68316
 Alpha virt. eigenvalues --    0.68397   0.68819   0.68924   0.69271   0.69631
 Alpha virt. eigenvalues --    0.70031   0.70888   0.71096   0.71417   0.71657
 Alpha virt. eigenvalues --    0.72163   0.72327   0.72617   0.72955   0.73486
 Alpha virt. eigenvalues --    0.73504   0.73874   0.74342   0.74604   0.75227
 Alpha virt. eigenvalues --    0.75593   0.75634   0.75881   0.76119   0.76434
 Alpha virt. eigenvalues --    0.76761   0.77307   0.77549   0.78102   0.78278
 Alpha virt. eigenvalues --    0.78725   0.79196   0.79357   0.79700   0.80697
 Alpha virt. eigenvalues --    0.81299   0.81375   0.81696   0.81770   0.81986
 Alpha virt. eigenvalues --    0.82672   0.82924   0.83168   0.83694   0.83882
 Alpha virt. eigenvalues --    0.84103   0.84680   0.84877   0.85440   0.85952
 Alpha virt. eigenvalues --    0.86046   0.86323   0.86745   0.86820   0.87556
 Alpha virt. eigenvalues --    0.87705   0.88112   0.88224   0.88906   0.89137
 Alpha virt. eigenvalues --    0.89671   0.89751   0.90185   0.90518   0.90730
 Alpha virt. eigenvalues --    0.90962   0.91387   0.91759   0.91982   0.92366
 Alpha virt. eigenvalues --    0.92686   0.92854   0.93307   0.93568   0.93813
 Alpha virt. eigenvalues --    0.94115   0.94428   0.94746   0.94815   0.94941
 Alpha virt. eigenvalues --    0.95457   0.95593   0.95711   0.96079   0.96545
 Alpha virt. eigenvalues --    0.96679   0.96757   0.96788   0.97212   0.97466
 Alpha virt. eigenvalues --    0.97526   0.97717   0.98107   0.98164   0.98596
 Alpha virt. eigenvalues --    0.99063   0.99183   0.99464   1.00032   1.00632
 Alpha virt. eigenvalues --    1.00665   1.00964   1.01144   1.01616   1.01677
 Alpha virt. eigenvalues --    1.02035   1.02479   1.02756   1.03231   1.03581
 Alpha virt. eigenvalues --    1.03749   1.04104   1.04529   1.04738   1.04945
 Alpha virt. eigenvalues --    1.05323   1.05707   1.05720   1.06048   1.06181
 Alpha virt. eigenvalues --    1.06363   1.06543   1.07312   1.07470   1.07642
 Alpha virt. eigenvalues --    1.08124   1.08498   1.08640   1.09100   1.09353
 Alpha virt. eigenvalues --    1.09549   1.09805   1.10129   1.10272   1.10709
 Alpha virt. eigenvalues --    1.11380   1.11529   1.11988   1.12138   1.12344
 Alpha virt. eigenvalues --    1.12612   1.12660   1.13127   1.13317   1.13576
 Alpha virt. eigenvalues --    1.14221   1.14521   1.14779   1.14854   1.15144
 Alpha virt. eigenvalues --    1.15592   1.16028   1.16099   1.16262   1.16708
 Alpha virt. eigenvalues --    1.17184   1.17357   1.17495   1.17678   1.18040
 Alpha virt. eigenvalues --    1.18235   1.18454   1.18496   1.19027   1.19136
 Alpha virt. eigenvalues --    1.19491   1.19853   1.20050   1.20426   1.20547
 Alpha virt. eigenvalues --    1.20877   1.21563   1.21744   1.21855   1.22190
 Alpha virt. eigenvalues --    1.22649   1.23003   1.23270   1.23538   1.23899
 Alpha virt. eigenvalues --    1.24171   1.24543   1.24751   1.25257   1.25726
 Alpha virt. eigenvalues --    1.26031   1.26136   1.26747   1.26865   1.27397
 Alpha virt. eigenvalues --    1.27645   1.27751   1.28059   1.28637   1.29010
 Alpha virt. eigenvalues --    1.29308   1.29381   1.29612   1.29866   1.30264
 Alpha virt. eigenvalues --    1.30554   1.30806   1.30990   1.31479   1.31740
 Alpha virt. eigenvalues --    1.32559   1.32691   1.32943   1.33340   1.33412
 Alpha virt. eigenvalues --    1.33968   1.34165   1.34720   1.35054   1.35220
 Alpha virt. eigenvalues --    1.35412   1.36204   1.36588   1.36825   1.37357
 Alpha virt. eigenvalues --    1.37538   1.37754   1.37823   1.38572   1.38611
 Alpha virt. eigenvalues --    1.39146   1.39385   1.39885   1.40279   1.40418
 Alpha virt. eigenvalues --    1.41119   1.41250   1.41728   1.41963   1.42727
 Alpha virt. eigenvalues --    1.42980   1.43277   1.43953   1.44345   1.44763
 Alpha virt. eigenvalues --    1.45389   1.45474   1.45894   1.46110   1.46957
 Alpha virt. eigenvalues --    1.47049   1.47472   1.47791   1.48016   1.48418
 Alpha virt. eigenvalues --    1.49347   1.49415   1.49816   1.50533   1.51172
 Alpha virt. eigenvalues --    1.51318   1.51615   1.51735   1.52323   1.52625
 Alpha virt. eigenvalues --    1.53251   1.53469   1.53995   1.54248   1.54485
 Alpha virt. eigenvalues --    1.55619   1.55690   1.55851   1.56454   1.56641
 Alpha virt. eigenvalues --    1.57108   1.57211   1.57740   1.58218   1.58488
 Alpha virt. eigenvalues --    1.58956   1.59881   1.60042   1.60331   1.60487
 Alpha virt. eigenvalues --    1.60918   1.61074   1.61317   1.62187   1.63140
 Alpha virt. eigenvalues --    1.63177   1.63401   1.63919   1.64087   1.64438
 Alpha virt. eigenvalues --    1.64869   1.65327   1.65879   1.66291   1.66925
 Alpha virt. eigenvalues --    1.66956   1.67455   1.67592   1.67941   1.68726
 Alpha virt. eigenvalues --    1.68817   1.69047   1.69378   1.69754   1.70393
 Alpha virt. eigenvalues --    1.70554   1.70911   1.71045   1.71677   1.72090
 Alpha virt. eigenvalues --    1.72177   1.72773   1.73079   1.73356   1.73974
 Alpha virt. eigenvalues --    1.74353   1.74614   1.74676   1.75197   1.75553
 Alpha virt. eigenvalues --    1.75834   1.75868   1.76629   1.76959   1.77118
 Alpha virt. eigenvalues --    1.77468   1.77676   1.78502   1.78847   1.79268
 Alpha virt. eigenvalues --    1.79777   1.80076   1.80512   1.80876   1.81000
 Alpha virt. eigenvalues --    1.81017   1.81413   1.81788   1.82283   1.82695
 Alpha virt. eigenvalues --    1.82963   1.83437   1.83586   1.83957   1.84127
 Alpha virt. eigenvalues --    1.84470   1.84741   1.85487   1.85760   1.85994
 Alpha virt. eigenvalues --    1.86661   1.87369   1.87653   1.87810   1.88541
 Alpha virt. eigenvalues --    1.88770   1.89185   1.89560   1.90034   1.90102
 Alpha virt. eigenvalues --    1.90475   1.91278   1.91888   1.92111   1.92303
 Alpha virt. eigenvalues --    1.92514   1.93549   1.93592   1.94225   1.94439
 Alpha virt. eigenvalues --    1.94544   1.95132   1.95985   1.96199   1.96478
 Alpha virt. eigenvalues --    1.96815   1.97290   1.97677   1.98157   1.98676
 Alpha virt. eigenvalues --    1.98993   1.99413   1.99646   2.00233   2.00589
 Alpha virt. eigenvalues --    2.00951   2.01761   2.01971   2.02438   2.02610
 Alpha virt. eigenvalues --    2.04023   2.04532   2.04632   2.04989   2.05415
 Alpha virt. eigenvalues --    2.05747   2.06167   2.06291   2.06544   2.07390
 Alpha virt. eigenvalues --    2.08270   2.08695   2.08756   2.09249   2.09617
 Alpha virt. eigenvalues --    2.09980   2.10821   2.11020   2.11592   2.11688
 Alpha virt. eigenvalues --    2.12594   2.12700   2.13425   2.13895   2.14475
 Alpha virt. eigenvalues --    2.15075   2.15402   2.15532   2.16548   2.16683
 Alpha virt. eigenvalues --    2.17102   2.17502   2.18400   2.19127   2.19626
 Alpha virt. eigenvalues --    2.20638   2.20802   2.21398   2.21885   2.22103
 Alpha virt. eigenvalues --    2.22855   2.23807   2.24179   2.24790   2.25402
 Alpha virt. eigenvalues --    2.26891   2.27074   2.27585   2.28380   2.28497
 Alpha virt. eigenvalues --    2.29283   2.29722   2.30260   2.30924   2.31348
 Alpha virt. eigenvalues --    2.31755   2.31955   2.32487   2.33865   2.34085
 Alpha virt. eigenvalues --    2.34906   2.35110   2.35689   2.36490   2.37327
 Alpha virt. eigenvalues --    2.37473   2.38563   2.39184   2.39428   2.39878
 Alpha virt. eigenvalues --    2.40785   2.41483   2.41937   2.42322   2.43532
 Alpha virt. eigenvalues --    2.43955   2.44753   2.45133   2.45722   2.46770
 Alpha virt. eigenvalues --    2.47332   2.48367   2.48571   2.48920   2.49152
 Alpha virt. eigenvalues --    2.50086   2.50434   2.50912   2.51991   2.52851
 Alpha virt. eigenvalues --    2.53309   2.54039   2.54714   2.54973   2.55547
 Alpha virt. eigenvalues --    2.56139   2.56964   2.57320   2.57952   2.58851
 Alpha virt. eigenvalues --    2.59445   2.60058   2.60674   2.61061   2.61541
 Alpha virt. eigenvalues --    2.61995   2.62924   2.63395   2.64956   2.66289
 Alpha virt. eigenvalues --    2.66593   2.67283   2.68400   2.68807   2.69400
 Alpha virt. eigenvalues --    2.70083   2.70586   2.70945   2.72624   2.72878
 Alpha virt. eigenvalues --    2.73281   2.73751   2.74637   2.75356   2.76382
 Alpha virt. eigenvalues --    2.76587   2.77392   2.77622   2.78775   2.79343
 Alpha virt. eigenvalues --    2.80078   2.81007   2.81961   2.82392   2.82754
 Alpha virt. eigenvalues --    2.83026   2.83889   2.84453   2.85565   2.86086
 Alpha virt. eigenvalues --    2.86747   2.86986   2.87412   2.89246   2.89636
 Alpha virt. eigenvalues --    2.90163   2.90783   2.92420   2.92721   2.93996
 Alpha virt. eigenvalues --    2.94436   2.95318   2.95472   2.96886   2.98086
 Alpha virt. eigenvalues --    2.98597   2.98941   2.99392   3.00346   3.01127
 Alpha virt. eigenvalues --    3.02256   3.02651   3.02987   3.03582   3.04508
 Alpha virt. eigenvalues --    3.04799   3.05835   3.06080   3.07179   3.07851
 Alpha virt. eigenvalues --    3.08462   3.09001   3.09635   3.10188   3.11070
 Alpha virt. eigenvalues --    3.11146   3.12191   3.12999   3.13645   3.14583
 Alpha virt. eigenvalues --    3.15155   3.16541   3.16830   3.17475   3.18279
 Alpha virt. eigenvalues --    3.18804   3.19644   3.19980   3.20448   3.20779
 Alpha virt. eigenvalues --    3.21018   3.21331   3.22237   3.23390   3.23646
 Alpha virt. eigenvalues --    3.24016   3.25653   3.26043   3.26907   3.28072
 Alpha virt. eigenvalues --    3.28527   3.29089   3.29822   3.30680   3.31374
 Alpha virt. eigenvalues --    3.31953   3.33749   3.34182   3.34811   3.35533
 Alpha virt. eigenvalues --    3.36213   3.36554   3.37836   3.37991   3.38329
 Alpha virt. eigenvalues --    3.40175   3.40448   3.40782   3.40932   3.41726
 Alpha virt. eigenvalues --    3.42537   3.43044   3.43334   3.43835   3.44864
 Alpha virt. eigenvalues --    3.45494   3.46109   3.46510   3.46755   3.48018
 Alpha virt. eigenvalues --    3.48107   3.48967   3.49368   3.49804   3.50166
 Alpha virt. eigenvalues --    3.50452   3.51354   3.52556   3.53305   3.53484
 Alpha virt. eigenvalues --    3.53526   3.54541   3.55236   3.55726   3.56418
 Alpha virt. eigenvalues --    3.57334   3.57837   3.58381   3.58721   3.59328
 Alpha virt. eigenvalues --    3.59729   3.60768   3.61032   3.61376   3.62131
 Alpha virt. eigenvalues --    3.63243   3.63400   3.64046   3.64387   3.65051
 Alpha virt. eigenvalues --    3.65402   3.66475   3.66770   3.67282   3.67469
 Alpha virt. eigenvalues --    3.68296   3.68624   3.69292   3.70813   3.70924
 Alpha virt. eigenvalues --    3.71419   3.71606   3.72367   3.72788   3.73229
 Alpha virt. eigenvalues --    3.73283   3.74075   3.74323   3.74636   3.74992
 Alpha virt. eigenvalues --    3.75245   3.75365   3.75826   3.77093   3.77422
 Alpha virt. eigenvalues --    3.77998   3.78810   3.79178   3.79945   3.80571
 Alpha virt. eigenvalues --    3.81404   3.82073   3.82498   3.83404   3.83504
 Alpha virt. eigenvalues --    3.84340   3.84632   3.85648   3.85943   3.86092
 Alpha virt. eigenvalues --    3.86238   3.86475   3.87134   3.87665   3.88103
 Alpha virt. eigenvalues --    3.88665   3.89292   3.89675   3.90900   3.91174
 Alpha virt. eigenvalues --    3.91734   3.92342   3.92507   3.92614   3.93183
 Alpha virt. eigenvalues --    3.93821   3.94415   3.95477   3.95734   3.96406
 Alpha virt. eigenvalues --    3.96693   3.97183   3.97692   3.98251   3.98618
 Alpha virt. eigenvalues --    3.99109   3.99844   4.00147   4.00735   4.00873
 Alpha virt. eigenvalues --    4.01822   4.02495   4.02679   4.03280   4.04506
 Alpha virt. eigenvalues --    4.04613   4.04716   4.05499   4.06308   4.06684
 Alpha virt. eigenvalues --    4.07221   4.07381   4.08499   4.08984   4.10105
 Alpha virt. eigenvalues --    4.10877   4.11329   4.11913   4.13091   4.13459
 Alpha virt. eigenvalues --    4.13711   4.14029   4.14852   4.16025   4.16283
 Alpha virt. eigenvalues --    4.16865   4.17346   4.18071   4.18432   4.19065
 Alpha virt. eigenvalues --    4.19299   4.20121   4.20303   4.20704   4.21336
 Alpha virt. eigenvalues --    4.21677   4.21976   4.23195   4.23563   4.24043
 Alpha virt. eigenvalues --    4.24177   4.25470   4.25914   4.26021   4.26812
 Alpha virt. eigenvalues --    4.26950   4.27592   4.28045   4.29588   4.29704
 Alpha virt. eigenvalues --    4.30160   4.30517   4.30939   4.31663   4.32212
 Alpha virt. eigenvalues --    4.32737   4.33469   4.34073   4.35076   4.35750
 Alpha virt. eigenvalues --    4.36045   4.36690   4.37331   4.37749   4.39070
 Alpha virt. eigenvalues --    4.39501   4.40080   4.40374   4.41056   4.41561
 Alpha virt. eigenvalues --    4.42704   4.43580   4.43762   4.44722   4.45787
 Alpha virt. eigenvalues --    4.46571   4.47739   4.48139   4.48373   4.49280
 Alpha virt. eigenvalues --    4.49944   4.50125   4.50338   4.51274   4.52043
 Alpha virt. eigenvalues --    4.52405   4.53187   4.54991   4.55137   4.56534
 Alpha virt. eigenvalues --    4.56776   4.58047   4.58497   4.59027   4.59387
 Alpha virt. eigenvalues --    4.60663   4.60930   4.62014   4.62728   4.63832
 Alpha virt. eigenvalues --    4.64762   4.64946   4.65481   4.66447   4.66792
 Alpha virt. eigenvalues --    4.67910   4.68293   4.69343   4.69762   4.69875
 Alpha virt. eigenvalues --    4.70451   4.71603   4.72462   4.73227   4.73605
 Alpha virt. eigenvalues --    4.74359   4.74513   4.75475   4.76265   4.77553
 Alpha virt. eigenvalues --    4.78426   4.79247   4.79450   4.79870   4.80715
 Alpha virt. eigenvalues --    4.81019   4.81644   4.81907   4.82594   4.83209
 Alpha virt. eigenvalues --    4.83628   4.83880   4.84641   4.85572   4.86401
 Alpha virt. eigenvalues --    4.86858   4.88225   4.88949   4.91129   4.91812
 Alpha virt. eigenvalues --    4.91986   4.92344   4.93780   4.94713   4.94978
 Alpha virt. eigenvalues --    4.95767   4.96909   4.97558   4.98012   4.99267
 Alpha virt. eigenvalues --    5.00305   5.01277   5.02790   5.03506   5.04168
 Alpha virt. eigenvalues --    5.04880   5.06750   5.07324   5.08009   5.09137
 Alpha virt. eigenvalues --    5.10001   5.10359   5.10645   5.11128   5.12158
 Alpha virt. eigenvalues --    5.12934   5.13059   5.13620   5.14022   5.15320
 Alpha virt. eigenvalues --    5.16639   5.16987   5.17497   5.18548   5.18883
 Alpha virt. eigenvalues --    5.19923   5.20042   5.20803   5.21839   5.22758
 Alpha virt. eigenvalues --    5.23526   5.23899   5.24735   5.25604   5.25813
 Alpha virt. eigenvalues --    5.26577   5.26913   5.27876   5.28320   5.29103
 Alpha virt. eigenvalues --    5.29392   5.30341   5.30357   5.31374   5.32263
 Alpha virt. eigenvalues --    5.34179   5.34643   5.35759   5.36173   5.37495
 Alpha virt. eigenvalues --    5.38756   5.41066   5.41556   5.43110   5.43720
 Alpha virt. eigenvalues --    5.44852   5.46461   5.47363   5.48947   5.49902
 Alpha virt. eigenvalues --    5.51025   5.52350   5.52922   5.56012   5.56574
 Alpha virt. eigenvalues --    5.57142   5.58169   5.58713   5.59768   5.60775
 Alpha virt. eigenvalues --    5.61044   5.62323   5.62701   5.64000   5.64527
 Alpha virt. eigenvalues --    5.65837   5.67652   5.68019   5.69020   5.69325
 Alpha virt. eigenvalues --    5.70118   5.70907   5.72772   5.74323   5.74601
 Alpha virt. eigenvalues --    5.76756   5.77662   5.78352   5.79854   5.81013
 Alpha virt. eigenvalues --    5.81977   5.82634   5.83353   5.83601   5.84573
 Alpha virt. eigenvalues --    5.85617   5.86150   5.87126   5.88997   5.90597
 Alpha virt. eigenvalues --    5.92180   5.94744   5.95990   5.96340   5.98188
 Alpha virt. eigenvalues --    5.99500   5.99769   6.01682   6.02041   6.05504
 Alpha virt. eigenvalues --    6.05953   6.08540   6.09180   6.11167   6.12334
 Alpha virt. eigenvalues --    6.13611   6.14018   6.15849   6.16668   6.17747
 Alpha virt. eigenvalues --    6.18475   6.19736   6.21096   6.22951   6.23964
 Alpha virt. eigenvalues --    6.25127   6.26496   6.30111   6.31055   6.34375
 Alpha virt. eigenvalues --    6.34822   6.36464   6.37167   6.39620   6.41365
 Alpha virt. eigenvalues --    6.43555   6.46019   6.46918   6.53362   6.60091
 Alpha virt. eigenvalues --    6.63876   6.66612   6.67365   6.70483   6.71694
 Alpha virt. eigenvalues --    6.72176   6.74503   6.76118   6.77855   6.78619
 Alpha virt. eigenvalues --    6.79604   6.80907   6.82814   6.84084   6.87089
 Alpha virt. eigenvalues --    6.90640   6.90928   6.92855   6.93296   6.95979
 Alpha virt. eigenvalues --    6.98215   7.00655   7.00978   7.04921   7.06200
 Alpha virt. eigenvalues --    7.06769   7.07708   7.10525   7.10897   7.13449
 Alpha virt. eigenvalues --    7.16879   7.18135   7.19113   7.22521   7.24117
 Alpha virt. eigenvalues --    7.25020   7.29490   7.34132   7.36692   7.37075
 Alpha virt. eigenvalues --    7.38633   7.38890   7.40204   7.44488   7.47816
 Alpha virt. eigenvalues --    7.49004   7.51795   7.65333   7.66223   7.68681
 Alpha virt. eigenvalues --    7.70447   7.72383   7.76445   7.79696   7.88601
 Alpha virt. eigenvalues --    7.95560   7.98935   8.01227   8.08500   8.10872
 Alpha virt. eigenvalues --    8.13546   8.31793   8.43118   8.51741   8.83310
 Alpha virt. eigenvalues --    8.85301   8.87901   8.89013   8.90495   8.94709
 Alpha virt. eigenvalues --    9.03915   9.05213   9.17689   9.19051   9.19347
 Alpha virt. eigenvalues --    9.23500   9.24023   9.25704   9.28052   9.32049
 Alpha virt. eigenvalues --    9.32808   9.33775   9.36781   9.37711   9.38169
 Alpha virt. eigenvalues --    9.39388   9.42384   9.45160   9.48722   9.50172
 Alpha virt. eigenvalues --    9.53073   9.58109   9.59069   9.60570   9.66930
 Alpha virt. eigenvalues --    9.79167   9.81388   9.88302  10.04456  10.06310
 Alpha virt. eigenvalues --   15.29741  15.77006  15.95020  16.05994  16.27185
 Alpha virt. eigenvalues --   16.33048  16.69832  17.01045  17.42820  17.77844
 Alpha virt. eigenvalues --   18.18621  18.39821  18.53192  18.64043  18.90261
 Alpha virt. eigenvalues --   19.54294  19.73679  20.05833  20.98125  21.25614
 Alpha virt. eigenvalues --   21.66696  22.19337
          Condensed to atoms (all electrons):
               1          2          3          4          5          6
     1  C   10.600989  -0.332860  -0.979916   0.133020   0.010173  -0.011015
     2  N   -0.332860   9.434077   0.588082  -0.146047  -0.934429  -0.202073
     3  C   -0.979916   0.588082   7.350657   0.271713  -0.016104  -0.572089
     4  O    0.133020  -0.146047   0.271713   9.172078  -0.179333   0.029573
     5  N    0.010173  -0.934429  -0.016104  -0.179333   8.638758   0.510685
     6  C   -0.011015  -0.202073  -0.572089   0.029573   0.510685   6.539836
     7  C   -0.005823  -0.009181   0.046629  -0.006944   0.000733  -0.054726
     8  C   -0.001040   0.006279  -0.005433   0.001596  -0.023220  -0.010965
     9  C   -1.512653   0.197327  -0.007433   0.022009  -0.050659  -0.007595
    10  C    0.063543   0.003008  -0.121575   0.001193   0.023129  -0.004964
    11  C   -0.210858  -0.008546   0.063332   0.003523  -0.006493   0.001181
    12  C   -0.215971   0.081040  -0.063351   0.027695   0.024405  -0.000185
    13  C   -0.500345  -0.516410   0.094055  -0.103804  -0.092854  -0.017266
    14  H   -0.244127  -0.771779  -0.348158  -0.007487   0.316034  -0.008960
    15  H   -0.084256   0.262506  -0.216738  -0.071674  -0.772790  -0.415221
    16  H   -0.001743  -0.004647  -0.054612   0.015958  -0.007311   0.424824
    17  H    0.002560   0.002336  -0.057437  -0.021322  -0.105744   0.368776
    18  H   -0.002623   0.002038   0.010287   0.003269  -0.028674  -0.019306
    19  H    0.000497   0.000863   0.006884  -0.003311  -0.037937   0.001312
    20  H    0.000097   0.000344   0.003422   0.000604   0.005717  -0.014447
    21  H   -0.000039   0.000043   0.000356   0.000127  -0.001644  -0.001269
    22  H    0.000128   0.000457   0.002087  -0.000592   0.005795  -0.015404
    23  H   -0.971307   0.153557  -0.064633   0.000556   0.043147   0.004428
    24  Cl   0.032547  -0.022449   0.017546  -0.005935  -0.002480  -0.001404
    25  H   -0.370089  -0.134256   0.158105  -0.159374   0.003145  -0.002516
    26  C    0.056918  -0.019556  -0.003868  -0.000168  -0.001283  -0.000014
    27  H    0.000964  -0.007756  -0.002621   0.000350  -0.000859  -0.000140
    28  F    0.012436  -0.002302   0.001379   0.000035   0.000224   0.000086
    29  F    0.009055   0.004279   0.000717  -0.000036  -0.000011  -0.000017
    30  F   -0.013296   0.007270  -0.000037  -0.000006   0.000646   0.000041
    31  O   -0.018366  -0.068048  -0.023706   0.000106  -0.013473  -0.013490
    32  O    0.005880   0.006240  -0.010271  -0.003316  -0.050273  -0.047273
    33  C   -0.040679  -0.080825  -0.019190  -0.003586  -0.000918   0.013975
    34  C    0.014298  -0.024049  -0.010330  -0.000699   0.010005   0.010683
    35  C   -0.002880  -0.000619  -0.001196  -0.000045  -0.000948  -0.001318
    36  H    0.004462  -0.004706  -0.000786  -0.000058   0.002854   0.001105
    37  H    0.004291  -0.005140  -0.000508  -0.000063   0.003245   0.000980
    38  H   -0.000307   0.000131  -0.000144  -0.000002   0.000367   0.000014
    39  H   -0.000212   0.000187   0.000196   0.000000  -0.000416  -0.000670
    40  H   -0.000471   0.000087  -0.000517   0.000005  -0.000811   0.000705
               7          8          9         10         11         12
     1  C   -0.005823  -0.001040  -1.512653   0.063543  -0.210858  -0.215971
     2  N   -0.009181   0.006279   0.197327   0.003008  -0.008546   0.081040
     3  C    0.046629  -0.005433  -0.007433  -0.121575   0.063332  -0.063351
     4  O   -0.006944   0.001596   0.022009   0.001193   0.003523   0.027695
     5  N    0.000733  -0.023220  -0.050659   0.023129  -0.006493   0.024405
     6  C   -0.054726  -0.010965  -0.007595  -0.004964   0.001181  -0.000185
     7  C    5.716108   0.038823   0.002107  -0.000098   0.000118   0.000491
     8  C    0.038823   5.872602   0.000532  -0.000041   0.000017  -0.000099
     9  C    0.002107   0.000532   9.873743  -0.854404   0.011763  -0.019484
    10  C   -0.000098  -0.000041  -0.854404   8.357559  -0.958816  -0.005440
    11  C    0.000118   0.000017   0.011763  -0.958816   8.219324  -0.288300
    12  C    0.000491  -0.000099  -0.019484  -0.005440  -0.288300   6.642567
    13  C   -0.004830   0.000325  -0.168136  -0.307399   0.011182  -0.173524
    14  H    0.007832  -0.001951  -0.298217  -0.041963   0.051123  -0.028561
    15  H   -0.010823   0.006152   0.009035  -0.000171  -0.000830  -0.001273
    16  H   -0.000122  -0.007994  -0.001881  -0.000314   0.000138  -0.000907
    17  H   -0.024200  -0.016882  -0.000408  -0.000217   0.000094  -0.000471
    18  H    0.407992  -0.037206  -0.000002  -0.000035  -0.000010   0.000032
    19  H    0.328340  -0.040559  -0.000889  -0.000170   0.000058   0.000006
    20  H    0.017925   0.391844   0.000047  -0.000019   0.000004  -0.000000
    21  H   -0.031852   0.456946   0.000034   0.000001   0.000003  -0.000009
    22  H    0.028374   0.380319   0.000154   0.000020  -0.000007   0.000040
    23  H   -0.002124  -0.000114   0.436274  -0.566904  -0.019277   0.064328
    24  Cl  -0.000021  -0.000004  -0.018873   0.010412  -0.095764  -0.145207
    25  H   -0.001656  -0.000368  -0.067159   0.021154   0.046255  -0.385421
    26  C   -0.000075   0.000005  -0.458451  -0.244082  -0.166039   0.000043
    27  H    0.000014   0.000002  -0.003287  -0.049462   0.174165  -0.184684
    28  F    0.000002   0.000000  -0.004861  -0.065028   0.019312   0.002498
    29  F    0.000000  -0.000000  -0.022007   0.052893   0.026226  -0.009338
    30  F    0.000003   0.000000   0.045349   0.003993  -0.011016  -0.002475
    31  O    0.006698   0.001736   0.088858   0.040446  -0.008386   0.007831
    32  O   -0.004661   0.001841   0.024541   0.001266  -0.000269   0.001660
    33  C   -0.003267  -0.002375  -0.019708   0.010605  -0.003811   0.002486
    34  C   -0.002232  -0.000739  -0.013662  -0.001400  -0.000011  -0.000158
    35  C    0.001845  -0.000142   0.002445  -0.000027  -0.000151   0.000104
    36  H   -0.000529  -0.000103  -0.009229   0.000446   0.000096  -0.000099
    37  H   -0.000289  -0.000070  -0.008690   0.000265   0.000170  -0.000089
    38  H   -0.000477  -0.000102   0.000129  -0.000042   0.000001  -0.000006
    39  H    0.000301  -0.000015   0.000469   0.000018  -0.000027   0.000017
    40  H   -0.000197   0.000227   0.000337  -0.000005  -0.000001  -0.000011
              13         14         15         16         17         18
     1  C   -0.500345  -0.244127  -0.084256  -0.001743   0.002560  -0.002623
     2  N   -0.516410  -0.771779   0.262506  -0.004647   0.002336   0.002038
     3  C    0.094055  -0.348158  -0.216738  -0.054612  -0.057437   0.010287
     4  O   -0.103804  -0.007487  -0.071674   0.015958  -0.021322   0.003269
     5  N   -0.092854   0.316034  -0.772790  -0.007311  -0.105744  -0.028674
     6  C   -0.017266  -0.008960  -0.415221   0.424824   0.368776  -0.019306
     7  C   -0.004830   0.007832  -0.010823  -0.000122  -0.024200   0.407992
     8  C    0.000325  -0.001951   0.006152  -0.007994  -0.016882  -0.037206
     9  C   -0.168136  -0.298217   0.009035  -0.001881  -0.000408  -0.000002
    10  C   -0.307399  -0.041963  -0.000171  -0.000314  -0.000217  -0.000035
    11  C    0.011182   0.051123  -0.000830   0.000138   0.000094  -0.000010
    12  C   -0.173524  -0.028561  -0.001273  -0.000907  -0.000471   0.000032
    13  C    8.507109   0.068657   0.032459   0.003624  -0.000924   0.000013
    14  H    0.068657   2.034044  -0.148551  -0.001892   0.007214   0.000410
    15  H    0.032459  -0.148551   1.732983  -0.024387   0.047547  -0.005408
    16  H    0.003624  -0.001892  -0.024387   0.433951  -0.001157   0.019456
    17  H   -0.000924   0.007214   0.047547  -0.001157   0.452827  -0.019999
    18  H    0.000013   0.000410  -0.005408   0.019456  -0.019999   0.444171
    19  H   -0.001710   0.008011   0.007401  -0.014787   0.018581   0.007348
    20  H    0.000161  -0.000169  -0.001449  -0.004824  -0.010919   0.002159
    21  H    0.000035  -0.000585   0.002745   0.000259  -0.001311  -0.004003
    22  H   -0.000074  -0.000251   0.000834  -0.010691  -0.006443  -0.002482
    23  H   -0.097147  -0.241844  -0.010232  -0.000070   0.000086  -0.000129
    24  Cl   0.067024   0.003256  -0.000167  -0.000004  -0.000019  -0.000009
    25  H    0.040161   0.007492  -0.000849   0.001094   0.000061  -0.000014
    26  C    0.023314  -0.024289   0.002689  -0.000029  -0.000014  -0.000003
    27  H   -0.020609  -0.001169   0.000281  -0.000009  -0.000025  -0.000000
    28  F   -0.000281   0.001699  -0.000069  -0.000003   0.000003  -0.000001
    29  F   -0.001198   0.001965  -0.000159   0.000002   0.000002  -0.000000
    30  F   -0.002816  -0.001940  -0.000479   0.000003   0.000007   0.000006
    31  O   -0.028487  -0.156664  -0.067430  -0.001424  -0.000336   0.000361
    32  O    0.001599  -0.012664  -0.159697   0.000039   0.000917  -0.001134
    33  C    0.000571   0.016758  -0.015696  -0.000254   0.003453  -0.001968
    34  C    0.000108   0.010835   0.017487   0.000880   0.000658   0.000622
    35  C   -0.000231   0.005256  -0.007831   0.000097   0.000059  -0.000020
    36  H    0.000389   0.000118   0.003915   0.000100   0.000046   0.000104
    37  H    0.000339  -0.002120   0.004204   0.000087   0.000073   0.000105
    38  H   -0.000073   0.000733  -0.000381  -0.000046   0.000011  -0.000050
    39  H    0.000003  -0.000564   0.001608  -0.000027  -0.000009  -0.000006
    40  H   -0.000038   0.002406  -0.003164  -0.000020   0.000014  -0.000033
              19         20         21         22         23         24
     1  C    0.000497   0.000097  -0.000039   0.000128  -0.971307   0.032547
     2  N    0.000863   0.000344   0.000043   0.000457   0.153557  -0.022449
     3  C    0.006884   0.003422   0.000356   0.002087  -0.064633   0.017546
     4  O   -0.003311   0.000604   0.000127  -0.000592   0.000556  -0.005935
     5  N   -0.037937   0.005717  -0.001644   0.005795   0.043147  -0.002480
     6  C    0.001312  -0.014447  -0.001269  -0.015404   0.004428  -0.001404
     7  C    0.328340   0.017925  -0.031852   0.028374  -0.002124  -0.000021
     8  C   -0.040559   0.391844   0.456946   0.380319  -0.000114  -0.000004
     9  C   -0.000889   0.000047   0.000034   0.000154   0.436274  -0.018873
    10  C   -0.000170  -0.000019   0.000001   0.000020  -0.566904   0.010412
    11  C    0.000058   0.000004   0.000003  -0.000007  -0.019277  -0.095764
    12  C    0.000006  -0.000000  -0.000009   0.000040   0.064328  -0.145207
    13  C   -0.001710   0.000161   0.000035  -0.000074  -0.097147   0.067024
    14  H    0.008011  -0.000169  -0.000585  -0.000251  -0.241844   0.003256
    15  H    0.007401  -0.001449   0.002745   0.000834  -0.010232  -0.000167
    16  H   -0.014787  -0.004824   0.000259  -0.010691  -0.000070  -0.000004
    17  H    0.018581  -0.010919  -0.001311  -0.006443   0.000086  -0.000019
    18  H    0.007348   0.002159  -0.004003  -0.002482  -0.000129  -0.000009
    19  H    0.437514  -0.003083  -0.015206   0.003701  -0.001170   0.000006
    20  H   -0.003083   0.322720   0.002833   0.016867  -0.000003   0.000001
    21  H   -0.015206   0.002833   0.327786  -0.003581   0.000009  -0.000000
    22  H    0.003701   0.016867  -0.003581   0.333816   0.000040  -0.000003
    23  H   -0.001170  -0.000003   0.000009   0.000040   1.829638  -0.006034
    24  Cl   0.000006   0.000001  -0.000000  -0.000003  -0.006034  17.670630
    25  H   -0.000023   0.000014  -0.000017  -0.000051  -0.001185   0.031973
    26  C   -0.000061  -0.000000   0.000001   0.000001  -0.069404  -0.008041
    27  H   -0.000003   0.000000   0.000000   0.000000  -0.011514  -0.052261
    28  F    0.000008   0.000000   0.000000  -0.000000   0.000069  -0.000280
    29  F    0.000001  -0.000000  -0.000000  -0.000000  -0.006022   0.000217
    30  F    0.000002  -0.000000   0.000000   0.000000   0.002784   0.000008
    31  O    0.000321   0.000003   0.000176   0.000138  -0.060627  -0.000466
    32  O   -0.010354  -0.000362   0.000732   0.000349  -0.000796  -0.000012
    33  C    0.002791  -0.000145  -0.000219  -0.000121   0.044784  -0.000225
    34  C    0.002474  -0.000030  -0.000187  -0.000140  -0.009024   0.000005
    35  C   -0.000287  -0.000041   0.000072   0.000022   0.000749  -0.000002
    36  H    0.000021  -0.000000  -0.000015  -0.000022   0.002170   0.000004
    37  H    0.000014  -0.000003  -0.000021  -0.000016   0.002105   0.000006
    38  H    0.000251  -0.000001  -0.000008  -0.000012   0.000033  -0.000000
    39  H   -0.000134  -0.000008   0.000021   0.000005   0.000179  -0.000000
    40  H    0.000182   0.000013   0.000002   0.000029  -0.000043  -0.000000
              25         26         27         28         29         30
     1  C   -0.370089   0.056918   0.000964   0.012436   0.009055  -0.013296
     2  N   -0.134256  -0.019556  -0.007756  -0.002302   0.004279   0.007270
     3  C    0.158105  -0.003868  -0.002621   0.001379   0.000717  -0.000037
     4  O   -0.159374  -0.000168   0.000350   0.000035  -0.000036  -0.000006
     5  N    0.003145  -0.001283  -0.000859   0.000224  -0.000011   0.000646
     6  C   -0.002516  -0.000014  -0.000140   0.000086  -0.000017   0.000041
     7  C   -0.001656  -0.000075   0.000014   0.000002   0.000000   0.000003
     8  C   -0.000368   0.000005   0.000002   0.000000  -0.000000   0.000000
     9  C   -0.067159  -0.458451  -0.003287  -0.004861  -0.022007   0.045349
    10  C    0.021154  -0.244082  -0.049462  -0.065028   0.052893   0.003993
    11  C    0.046255  -0.166039   0.174165   0.019312   0.026226  -0.011016
    12  C   -0.385421   0.000043  -0.184684   0.002498  -0.009338  -0.002475
    13  C    0.040161   0.023314  -0.020609  -0.000281  -0.001198  -0.002816
    14  H    0.007492  -0.024289  -0.001169   0.001699   0.001965  -0.001940
    15  H   -0.000849   0.002689   0.000281  -0.000069  -0.000159  -0.000479
    16  H    0.001094  -0.000029  -0.000009  -0.000003   0.000002   0.000003
    17  H    0.000061  -0.000014  -0.000025   0.000003   0.000002   0.000007
    18  H   -0.000014  -0.000003  -0.000000  -0.000001  -0.000000   0.000006
    19  H   -0.000023  -0.000061  -0.000003   0.000008   0.000001   0.000002
    20  H    0.000014  -0.000000   0.000000   0.000000  -0.000000  -0.000000
    21  H   -0.000017   0.000001   0.000000   0.000000  -0.000000   0.000000
    22  H   -0.000051   0.000001   0.000000  -0.000000  -0.000000   0.000000
    23  H   -0.001185  -0.069404  -0.011514   0.000069  -0.006022   0.002784
    24  Cl   0.031973  -0.008041  -0.052261  -0.000280   0.000217   0.000008
    25  H    1.279166  -0.000653  -0.014295  -0.000405   0.000140   0.000412
    26  C   -0.000653   5.176457   0.007536   0.178968   0.132773   0.173733
    27  H   -0.014295   0.007536   0.716167   0.010475  -0.003473   0.001111
    28  F   -0.000405   0.178968   0.010475   9.329189  -0.032573  -0.050987
    29  F    0.000140   0.132773  -0.003473  -0.032573   9.325457  -0.059199
    30  F    0.000412   0.173733   0.001111  -0.050987  -0.059199   9.283761
    31  O   -0.001249  -0.002715   0.000144   0.000400  -0.000470   0.003529
    32  O    0.000752  -0.000243   0.000019  -0.000013  -0.000003  -0.000121
    33  C   -0.001821   0.002653   0.000144  -0.000213  -0.000124   0.002500
    34  C    0.000016  -0.001098  -0.000030   0.000188   0.000009  -0.000554
    35  C   -0.000008   0.000017  -0.000008   0.000014  -0.000001  -0.000042
    36  H    0.000037  -0.000242   0.000001  -0.000007   0.000005   0.000113
    37  H    0.000028  -0.000270   0.000007   0.000045   0.000011   0.000160
    38  H   -0.000013   0.000002  -0.000001   0.000003   0.000000   0.000001
    39  H    0.000006   0.000007  -0.000001   0.000001  -0.000001  -0.000003
    40  H   -0.000017   0.000017  -0.000001  -0.000002   0.000000  -0.000006
              31         32         33         34         35         36
     1  C   -0.018366   0.005880  -0.040679   0.014298  -0.002880   0.004462
     2  N   -0.068048   0.006240  -0.080825  -0.024049  -0.000619  -0.004706
     3  C   -0.023706  -0.010271  -0.019190  -0.010330  -0.001196  -0.000786
     4  O    0.000106  -0.003316  -0.003586  -0.000699  -0.000045  -0.000058
     5  N   -0.013473  -0.050273  -0.000918   0.010005  -0.000948   0.002854
     6  C   -0.013490  -0.047273   0.013975   0.010683  -0.001318   0.001105
     7  C    0.006698  -0.004661  -0.003267  -0.002232   0.001845  -0.000529
     8  C    0.001736   0.001841  -0.002375  -0.000739  -0.000142  -0.000103
     9  C    0.088858   0.024541  -0.019708  -0.013662   0.002445  -0.009229
    10  C    0.040446   0.001266   0.010605  -0.001400  -0.000027   0.000446
    11  C   -0.008386  -0.000269  -0.003811  -0.000011  -0.000151   0.000096
    12  C    0.007831   0.001660   0.002486  -0.000158   0.000104  -0.000099
    13  C   -0.028487   0.001599   0.000571   0.000108  -0.000231   0.000389
    14  H   -0.156664  -0.012664   0.016758   0.010835   0.005256   0.000118
    15  H   -0.067430  -0.159697  -0.015696   0.017487  -0.007831   0.003915
    16  H   -0.001424   0.000039  -0.000254   0.000880   0.000097   0.000100
    17  H   -0.000336   0.000917   0.003453   0.000658   0.000059   0.000046
    18  H    0.000361  -0.001134  -0.001968   0.000622  -0.000020   0.000104
    19  H    0.000321  -0.010354   0.002791   0.002474  -0.000287   0.000021
    20  H    0.000003  -0.000362  -0.000145  -0.000030  -0.000041  -0.000000
    21  H    0.000176   0.000732  -0.000219  -0.000187   0.000072  -0.000015
    22  H    0.000138   0.000349  -0.000121  -0.000140   0.000022  -0.000022
    23  H   -0.060627  -0.000796   0.044784  -0.009024   0.000749   0.002170
    24  Cl  -0.000466  -0.000012  -0.000225   0.000005  -0.000002   0.000004
    25  H   -0.001249   0.000752  -0.001821   0.000016  -0.000008   0.000037
    26  C   -0.002715  -0.000243   0.002653  -0.001098   0.000017  -0.000242
    27  H    0.000144   0.000019   0.000144  -0.000030  -0.000008   0.000001
    28  F    0.000400  -0.000013  -0.000213   0.000188   0.000014  -0.000007
    29  F   -0.000470  -0.000003  -0.000124   0.000009  -0.000001   0.000005
    30  F    0.003529  -0.000121   0.002500  -0.000554  -0.000042   0.000113
    31  O    9.241996   0.015126   0.344408  -0.266816  -0.000277  -0.063767
    32  O    0.015126   9.000059   0.324926  -0.150408  -0.032162  -0.036121
    33  C    0.344408   0.324926   5.308120  -0.496196   0.021948  -0.036018
    34  C   -0.266816  -0.150408  -0.496196   6.089829   0.087217   0.501795
    35  C   -0.000277  -0.032162   0.021948   0.087217   5.766238  -0.047108
    36  H   -0.063767  -0.036121  -0.036018   0.501795  -0.047108   0.444580
    37  H   -0.049676  -0.032016  -0.034942   0.488916  -0.046756   0.058443
    38  H    0.002461   0.014875  -0.013575   0.035683   0.359970  -0.001107
    39  H    0.001154  -0.011781   0.016794  -0.058090   0.461582  -0.014442
    40  H    0.002409   0.009901  -0.008247   0.034701   0.363512   0.000894
              37         38         39         40
     1  C    0.004291  -0.000307  -0.000212  -0.000471
     2  N   -0.005140   0.000131   0.000187   0.000087
     3  C   -0.000508  -0.000144   0.000196  -0.000517
     4  O   -0.000063  -0.000002   0.000000   0.000005
     5  N    0.003245   0.000367  -0.000416  -0.000811
     6  C    0.000980   0.000014  -0.000670   0.000705
     7  C   -0.000289  -0.000477   0.000301  -0.000197
     8  C   -0.000070  -0.000102  -0.000015   0.000227
     9  C   -0.008690   0.000129   0.000469   0.000337
    10  C    0.000265  -0.000042   0.000018  -0.000005
    11  C    0.000170   0.000001  -0.000027  -0.000001
    12  C   -0.000089  -0.000006   0.000017  -0.000011
    13  C    0.000339  -0.000073   0.000003  -0.000038
    14  H   -0.002120   0.000733  -0.000564   0.002406
    15  H    0.004204  -0.000381   0.001608  -0.003164
    16  H    0.000087  -0.000046  -0.000027  -0.000020
    17  H    0.000073   0.000011  -0.000009   0.000014
    18  H    0.000105  -0.000050  -0.000006  -0.000033
    19  H    0.000014   0.000251  -0.000134   0.000182
    20  H   -0.000003  -0.000001  -0.000008   0.000013
    21  H   -0.000021  -0.000008   0.000021   0.000002
    22  H   -0.000016  -0.000012   0.000005   0.000029
    23  H    0.002105   0.000033   0.000179  -0.000043
    24  Cl   0.000006  -0.000000  -0.000000  -0.000000
    25  H    0.000028  -0.000013   0.000006  -0.000017
    26  C   -0.000270   0.000002   0.000007   0.000017
    27  H    0.000007  -0.000001  -0.000001  -0.000001
    28  F    0.000045   0.000003   0.000001  -0.000002
    29  F    0.000011   0.000000  -0.000001   0.000000
    30  F    0.000160   0.000001  -0.000003  -0.000006
    31  O   -0.049676   0.002461   0.001154   0.002409
    32  O   -0.032016   0.014875  -0.011781   0.009901
    33  C   -0.034942  -0.013575   0.016794  -0.008247
    34  C    0.488916   0.035683  -0.058090   0.034701
    35  C   -0.046756   0.359970   0.461582   0.363512
[...]
  1362. RY*(   2) H  39                  0.00032     1.39256   
  1363. RY*(   3) H  39                  0.00016     1.77502   
  1364. RY*(   4) H  39                  0.00013     2.20053   
  1365. RY*(   5) H  39                  0.00006     2.52420   
  1366. RY*(   6) H  39                  0.00003     1.40220   
  1367. RY*(   7) H  39                  0.00002     2.37318   
  1368. RY*(   8) H  39                  0.00000     5.42228   
  1369. RY*(   9) H  39                  0.00000     3.67674   
  1370. RY*(  10) H  39                  0.00000     3.66486   
  1371. RY*(  11) H  39                  0.00001     1.89895   
  1372. RY*(  12) H  39                  0.00000     3.70199   
  1373. RY*(  13) H  39                  0.00000     2.35715   
  1374. RY*(  14) H  39                  0.00000     4.59314   
  1375. RY*(  15) H  39                  0.00000     1.90349   
  1376. RY*(  16) H  39                  0.00000     3.67279   
  1377. RY*(  17) H  39                  0.00000     1.84497   
  1378. RY*(  18) H  39                  0.00000     4.72047   
  1379. RY*(  19) H  39                  0.00000     2.13479   
  1380. RY*(  20) H  39                  0.00000     4.66282   
  1381. RY*(  21) H  39                  0.00000     2.28030   
  1382. RY*(  22) H  39                  0.00000     4.39257   
  1383. RY*(   1) H  40                  0.00084     0.89093   
  1384. RY*(   2) H  40                  0.00026     1.57839   
  1385. RY*(   3) H  40                  0.00021     2.11301   
  1386. RY*(   4) H  40                  0.00018     1.99514   
  1387. RY*(   5) H  40                  0.00008     2.87930   
  1388. RY*(   6) H  40                  0.00006     2.47302   
  1389. RY*(   7) H  40                  0.00001     1.79232   
  1390. RY*(   8) H  40                  0.00001     3.55510   
  1391. RY*(   9) H  40                  0.00001     3.94692   
  1392. RY*(  10) H  40                  0.00000     3.29209   
  1393. RY*(  11) H  40                  0.00000     5.01865   
  1394. RY*(  12) H  40                  0.00001     4.05471   
  1395. RY*(  13) H  40                  0.00001     3.50371   
  1396. RY*(  14) H  40                  0.00000     1.26714   
  1397. RY*(  15) H  40                  0.00001     5.71244   
  1398. RY*(  16) H  40                  0.00000     4.83874   
  1399. RY*(  17) H  40                  0.00000     5.01133   
  1400. RY*(  18) H  40                  0.00000     4.50207   
  1401. RY*(  19) H  40                  0.00000     6.10081   
  1402. RY*(  20) H  40                  0.00000     3.82763   
  1403. RY*(  21) H  40                  0.00000     4.91634   
  1404. RY*(  22) H  40                  0.00000     5.13466   
  1438. BD*(   1) O  31 - C  33          0.33651     6.54052  1439(g),1395(r),1440(g)
                                                    1404(r),1212(g),1282(r)
                                                    1332(r),1272(r),1322(r)
                                                    1294(r),1330(r),1290(r)
                                                    1446(r),1292(r),1306(r)
                                                    1284(r),1195(g),1214(v)
                                                    1397(r),1396(r),1167(v)
                                                    1385(r),1403(r),243(r)
                                                    1223(v),1320(r),1359(r)
                                                    1154(v),1130(g),1305(r)
                                                    1328(r),1391(r),1336(r)
                                                    1268(r),1382(r),1222(v)
                                                    1401(r),1309(r),1369(r)
                                                    1444(v),1194(g),1160(v)
                                                    1388(r),1398(r),1371(r)
                                                    1405(r),1346(r),1324(r)
                                                    1221(v),1392(r),1251(v)
                                                    1387(r),1180(g),1312(r)
                                                    1333(r),1186(g),1428(r)
                                                    1370(r),1243(v),1350(r)
                                                    1207(g),1240(v),1189(g)
                                                    1431(r),1118(g),1149(v)
                                                    253(r),1271(r),1252(v)
                                                    1280(r),1260(r),1210(g)
                                                    1230(v),1161(v),1217(v)
                                                    1276(r),1329(r),1389(r)
                                                    628(r),655(r),1295(r)
                                                    1151(v),636(r),1234(v)
                                                    1427(r),1286(r),1344(r)
                                                    1203(g),1393(r),1301(r)
                                                    1265(r),1245(v),1279(r)
                                                    665(r),1283(r),362(r)
                                                    1351(r),1358(r),1238(v)
                                                    1163(v),1269(r),1376(r)
                                                    1365(r),1241(v),1183(g)
                                                    1141(v),1264(r),1363(r)
                                                    638(r),1334(r),296(r)
                                                    1442(v),1142(v),1390(r)
                                                    666(r),1345(r),1258(r)
                                                    1206(g),1259(r),1250(v)
                                                    1176(g),1231(v),1368(r)
                                                    1199(g),1278(r),1253(v)
                                                    1229(v),1373(r),1303(r)
                                                    1173(g),1402(r),1219(v)
                                                    1408(r),1201(g),1133(v)
                                                    1237(v),1352(r),1342(r)
                                                    1220(v),1148(v),1266(r)
                                                    1341(r),659(r),1139(v)
                                                    1308(r),1138(v),1318(r)
                                                    1120(g),1224(v),1400(r)
                                                    1347(r),1366(r),281(r)
                                                    1447(r),1174(g),1326(r)
                                                    1110(g),1288(r),1386(r)
                                                    1225(v),1414(r),1335(r)
                                                    105(r),164(r),1375(r)
                                                    1233(v),1226(v),1227(v)
                                                    268(r),1302(r),1423(r)
                                                    1304(r),1135(v),1263(r)
                                                    1145(v),1104(g),1417(r)
                                                    1094(g),1337(r),1407(r)
                                                    1325(r),1188(g),1315(r)
                                                    1171(v),1159(v),605(r)
                                                    1338(r),1348(r),308(r)
                                                    1235(v),363(r),1380(r)
                                                    1355(r),1321(r),1156(v)
                                                    1164(v),256(r),1394(r)
                                                    1424(r),634(r),741(r),270(r)
                                                    806(r),1415(r),1311(r)
                                                    1277(r),1140(v),667(r)
                                                    305(r),1197(g),1150(v)
                                                    713(r),198(r),1287(r)
                                                    1146(v),1162(v),277(r)
                                                    1128(g),1153(v),1095(g)
                                                    1377(r),746(r),1213(v)
                                                    1249(v),668(r),1418(r)
                                                    1256(r),662(r),602(r),699(r)
                                                    150(r),1131(v),1178(g)
                                                    661(r),1399(r),188(r)
                                                    1354(r),1134(v),1357(r)
                                                    1450(r),1299(r),1378(r)
                                                    1193(g),1293(r),737(r)
                                                    1362(r),1152(v),1281(r)
                                                    663(r),1443(v),1172(g)
                                                    1136(v),1147(v),1372(r)
                                                    1413(r),201(r),720(r)
                                                    1349(r),319(r),1114(g)
                                                    1410(r),1166(v),276(r)
                                                    288(r),331(r),836(r),1111(g)
                                                    724(r),228(r),735(r),1327(r)
                                                    879(r),213(r),835(r),1445(r)
                                                    1209(g),335(r),271(r)
                                                    1361(r),1261(r),259(r)
                                                    366(r),231(r),894(r),1116(g)
                                                    1184(g),1273(r),1123(g)
                                                    125(r),653(r),738(r),1274(r)
                                                    1179(g),1182(g),216(r)
                                                    1367(r),1155(v),322(r)
                                                    650(r),1316(r),1356(r)
                                                    622(r),747(r),354(r),1247(v)
                                                    298(r),1270(r),1310(r)
                                                    1165(v),1300(r),599(r)
                                                    290(r),1216(v),1421(r)
                                                    740(r),235(r),142(r),394(r)
                                                    379(r),743(r),1175(g),200(r)
                                                    721(r),645(r),96(r),1323(r)
                                                    423(r),173(r),1124(g),196(r)
                                                    1119(g),297(r),416(r),691(r)
                                                    197(r),1430(r),205(r)
                                                    1239(v),1112(g),649(r)
                                                    642(r),333(r),1248(v)
                                                    1115(g),159(r),1157(v)
                                                    744(r),1437(r),293(r),112(r)
                                                    1125(g),1168(v),1137(v)
                                                    624(r),312(r),1107(g)
                                                    1126(g),558(r),805(r)
                                                    1121(g),1200(g),725(r)
                                                    1298(r),1190(g),1267(r)
                                                    373(r),766(r),101(r),389(r)
                                                    117(r),627(r),651(r),1448(r)
                                                    657(r),833(r),168(r),317(r)
                                                    316(r),633(r),641(r),239(r)
                                                    639(r),190(r),326(r),274(r)
                                                    364(r),828(r),557(r),283(r)
                                                    238(r),167(r),1453(r),625(r)
                                                    714(r),483(r),485(r),831(r)
                                                    1434(r),282(r),635(r),269(r)
                                                    124(r),893(r),110(r),830(r)
                                                    284(r),97(r),149(r),643(r)
                                                    352(r),242(r),452(r),480(r)
                                                    233(r),234(r),630(r),829(r)
                                                    612(r),843(r),1060(r),435(r)
                                                    1451(r),734(r),484(r),334(r)
                                                    728(r),572(r),174(r),748(r)
                                                    446(r),761(r),842(r),199(r)
                                                    166(r),427(r),491(r),608(r)
                                                    360(r),565(r),224(r),428(r)
                                                    292(r),285(r),387(r),701(r)
                                                    407(r),640(r),890(r),754(r)
                                                    697(r),632(r),475(r),175(r)
                                                    108(r),157(r),729(r),158(r)
                                                    273(r),382(r),119(r),372(r)
                                                    1452(r),700(r),566(r),702(r)
                                                    1029(r),437(r),311(r),760(r)
                                                    989(r),376(r),315(r),165(r)
                                                    736(r),350(r),227(r),211(r)
                                                    146(r),304(r),1419(r),291(r)
                                                    1059(r),834(r),750(r),212(r)
                                                    116(r),404(r),151(r),654(r)
                                                    440(r),338(r),287(r),378(r)
                                                    357(r),753(r),841(r),257(r)
                                                    757(r),419(r),644(r),396(r)
                                                    109(r),601(r),100(r),678(r)
                                                    356(r),374(r),708(r),115(r)
                                                    223(r),749(r),658(r),1422(r)
                                                    229(r),278(r),895(r),113(r)
                                                    436(r),897(r),434(r),442(r)
                                                    739(r),652(r),204(r),275(r)
                                                    351(r),214(r),696(r),392(r)
                                                    191(r),121(r),302(r),571(r)
                                                    411(r),562(r),430(r),415(r)
                                                    569(r),443(r),479(r),413(r)
                                                    614(r),155(r),906(r),905(r)
                                                    610(r),330(r),194(r),299(r)
                                                    709(r),1436(r),393(r),318(r)
                                                    684(r),309(r),1406(r),156(r)
                                                    935(r),626(r),289(r),329(r)
                                                    690(r),596(r),342(r),689(r)
                                                    104(r),482(r),784(r),676(r)
                                                    719(r),361(r),459(r),683(r)
                                                    902(r),355(r),314(r),716(r)
                                                    726(r),1409(r),1449(r)
                                                    487(r),1064(r),192(r),903(r)
                                                    193(r),607(r),424(r),751(r)
                                                    975(r)
  1439. BD*(   2) O  31 - C  33          0.07379     6.62132   
  1440. BD*(   1) O  32 - C  33          0.04505     6.74781   
  1441. BD*(   1) C  33 - C  34          0.07847     1.37063   
  1442. BD*(   1) C  34 - C  35          0.00632     6.28877   
  1443. BD*(   1) C  34 - H  36          0.01145     1.28643   
  1444. BD*(   1) C  34 - H  37          0.01145     7.41894   
  1445. BD*(   1) C  35 - H  38          0.00761     1.20825   
  1446. BD*(   1) C  35 - H  39          0.00721     6.01206   
  1447. BD*(   1) C  35 - H  40          0.00761     1.23221   
       -------------------------------
              Total Lewis   39.23788  ( 98.3582%)
        Valence non-Lewis    0.58547  (  1.4676%)
        Rydberg non-Lewis    0.06949  (  0.1742%)
       -------------------------------
            Total unit  2   39.89285  (100.0000%)
           Charge unit  2   -0.89285
 Unable to Open any file for archive entry.
 1\1\GINC-GADI-HMEM-CLX-0009\SP\RDSDPBEP86-FC\Aug-CC-pVTZ\C14H17Cl1F3N2
 O3(1-)\HIO507\04-Nov-2020\0\\# DSDPBEP86/AUG-cc-PVTZ SCF=Tight INT(gri
 d=ultrafine) Pop=NBO MaxDisk=1400000MB\\NM3_c2_carboxy.DSDPBEP86_AUG-c
 c-PVTZ\\-1,1\C,0,-5.866524859,1.3656195949,0.1599558466\N,0,-4.6291226
 875,0.7744145887,0.0566113784\C,0,-3.390578188,1.4029837181,0.10496524
 63\O,0,-3.2408029189,2.6137335842,0.2344472741\N,0,-2.3632004514,0.530
 4164496,-0.0173991815\C,0,-0.9974655085,0.9901063911,0.0900450783\C,0,
 -0.0461955523,-0.1015309477,-0.3841824952\C,0,1.412518229,0.3187757785
 ,-0.2358574658\C,0,-6.9842501714,0.5059300275,0.0920979754\C,0,-8.2603
 807581,1.0270470856,0.1833934894\C,0,-8.4957189133,2.3928454829,0.3478
 438921\C,0,-7.3837281516,3.2131101626,0.4130370952\C,0,-6.0818813975,2
 .7446239074,0.3231350515\H,0,-4.641704794,-0.2600921009,-0.051265022\H
 ,0,-2.5315660637,-0.487034319,-0.0143113811\H,0,-0.7604967769,1.270345
 4646,1.126389048\H,0,-0.876388167,1.8969331297,-0.5102815163\H,0,-0.27
 25581008,-0.3354635098,-1.4287862635\H,0,-0.2416893268,-1.0191450631,0
 .1783433783\H,0,1.6225522641,1.2278202942,-0.8073298495\H,0,2.09154402
 12,-0.4607165988,-0.5889737695\H,0,1.6588374667,0.5240923701,0.8098786
 28\H,0,-6.8150734812,-0.5589860387,-0.0359721937\Cl,0,-7.6339329425,4.
 9392430611,0.6140586024\H,0,-5.2410236896,3.419002319,0.3748277636\C,0
 ,-9.4409606612,0.1037652347,0.1718445511\H,0,-9.4977530858,2.795222473
 2,0.4132628582\F,0,-9.8582279695,-0.1984190161,1.41930114\F,0,-10.5064
 722085,0.6518832748,-0.4477820717\F,0,-9.192269012,-1.0595202956,-0.43
 90413852\O,0,-4.8878286626,-1.955618727,-0.179047803\O,0,-2.6824466407
 ,-2.279459091,0.0088206859\C,0,-3.8623389407,-2.6800666821,-0.09825077
 54\C,0,-4.1108408643,-4.1950715523,-0.138092244\C,0,-2.8489043153,-5.0
 396048694,-0.0309919475\H,0,-4.6518442212,-4.4063525829,-1.0657503602\
 H,0,-4.8124859824,-4.42592776,0.6694663057\H,0,-2.1588211352,-4.807867
 4979,-0.8439817427\H,0,-3.0801780398,-6.108768324,-0.0648150234\H,0,-2
 .3207573417,-4.8284894161,0.9003572028\\Version=ES64L-G16RevC.01\State
 =1-A\HF=-1634.8286825\MP2=-1637.0376974\RMSD=2.868e-09\PG=C01 [X(C14H1
 7Cl1F3N2O3)]\\@
 The archive entry for this job was punched.


 IT IS A PROFOUNDLY ERRONEOUS TRUISM ... THAT WE SHOULD CULTIVATE
 THE HABIT OF THINKING OF WHAT WE ARE DOING.
 THE PRECISE OPPOSITE IS THE CASE.
 CIVILIZATION ADVANCES BY EXTENDING THE NUMBER OF IMPORTANT OPERATIONS
 WHICH WE CAN PERFORM WITHOUT THINKING ABOUT THEM.

                                    -- ALFRED NORTH WHITEHEAD
 Job cpu time:       7 days  7 hours  8 minutes 58.9 seconds.
 Elapsed time:       0 days  5 hours 30 minutes 53.3 seconds.
 File lengths (MBytes):  RWF=   1087 Int=      0 D2E=      0 Chk=    138 Scr=      1
 Normal termination of Gaussian 16 at Wed Nov  4 14:53:10 2020.
