 Entering Gaussian System, Link 0=/apps/gaussian/g16c01/g16/g16
 Initial command:
 /apps/gaussian/g16c01/g16/l1.exe "/jobfs/13186026.gadi-pbs/Gau-9673.inp" -scrdir="/jobfs/13186026.gadi-pbs/"
 Entering Link 1 = /apps/gaussian/g16c01/g16/l1.exe PID=      9674.
  
 Copyright (c) 1988-2019, Gaussian, Inc.  All Rights Reserved.
  
 This is part of the Gaussian(R) 16 program.  It is based on
 the Gaussian(R) 09 system (copyright 2009, Gaussian, Inc.),
 the Gaussian(R) 03 system (copyright 2003, Gaussian, Inc.),
 the Gaussian(R) 98 system (copyright 1998, Gaussian, Inc.),
 the Gaussian(R) 94 system (copyright 1995, Gaussian, Inc.),
 the Gaussian 92(TM) system (copyright 1992, Gaussian, Inc.),
 the Gaussian 90(TM) system (copyright 1990, Gaussian, Inc.),
 the Gaussian 88(TM) system (copyright 1988, Gaussian, Inc.),
 the Gaussian 86(TM) system (copyright 1986, Carnegie Mellon
 University), and the Gaussian 82(TM) system (copyright 1983,
 Carnegie Mellon University). Gaussian is a federally registered
 trademark of Gaussian, Inc.
  
 This software contains proprietary and confidential information,
 including trade secrets, belonging to Gaussian, Inc.
  
 This software is provided under written license and may be
 used, copied, transmitted, or stored only in accord with that
 written license.
  
 The following legend is applicable only to US Government
 contracts under FAR:
  
                    RESTRICTED RIGHTS LEGEND
  
 Use, reproduction and disclosure by the US Government is
 subject to restrictions as set forth in subparagraphs (a)
 and (c) of the Commercial Computer Software - Restricted
 Rights clause in FAR 52.227-19.
  
 Gaussian, Inc.
 340 Quinnipiac St., Bldg. 40, Wallingford CT 06492
  
  
 ---------------------------------------------------------------
 Warning -- This program may not be used in any manner that
 competes with the business of Gaussian, Inc. or will provide
 assistance to any competitor of Gaussian, Inc.  The licensee
 of this program is prohibited from giving any competitor of
 Gaussian, Inc. access to this program.  By using this program,
 the user acknowledges that Gaussian, Inc. is engaged in the
 business of creating and licensing software in the field of
 computational chemistry and represents and warrants to the
 licensee that it is not a competitor of Gaussian, Inc. and that
 it will not use this program in any manner prohibited above.
 ---------------------------------------------------------------
  

 Cite this work as:
 Gaussian 16, Revision C.01,
 M. J. Frisch, G. W. Trucks, H. B. Schlegel, G. E. Scuseria, 
 M. A. Robb, J. R. Cheeseman, G. Scalmani, V. Barone, 
 G. A. Petersson, H. Nakatsuji, X. Li, M. Caricato, A. V. Marenich, 
 J. Bloino, B. G. Janesko, R. Gomperts, B. Mennucci, H. P. Hratchian, 
 J. V. Ortiz, A. F. Izmaylov, J. L. Sonnenberg, D. Williams-Young, 
 F. Ding, F. Lipparini, F. Egidi, J. Goings, B. Peng, A. Petrone, 
 T. Henderson, D. Ranasinghe, V. G. Zakrzewski, J. Gao, N. Rega, 
 G. Zheng, W. Liang, M. Hada, M. Ehara, K. Toyota, R. Fukuda, 
 J. Hasegawa, M. Ishida, T. Nakajima, Y. Honda, O. Kitao, H. Nakai, 
 T. Vreven, K. Throssell, J. A. Montgomery, Jr., J. E. Peralta, 
 F. Ogliaro, M. J. Bearpark, J. J. Heyd, E. N. Brothers, K. N. Kudin, 
 V. N. Staroverov, T. A. Keith, R. Kobayashi, J. Normand, 
 K. Raghavachari, A. P. Rendell, J. C. Burant, S. S. Iyengar, 
 J. Tomasi, M. Cossi, J. M. Millam, M. Klene, C. Adamo, R. Cammi, 
 J. W. Ochterski, R. L. Martin, K. Morokuma, O. Farkas, 
 J. B. Foresman, and D. J. Fox, Gaussian, Inc., Wallingford CT, 2019.
 
 ******************************************
 Gaussian 16:  ES64L-G16RevC.01  3-Jul-2019
                 4-Nov-2020 
 ******************************************
 %NprocShared=32
 Will use up to   32 processors via shared memory.
 %Mem=1194000MB
 %chk=NM3_carboxy.DSDPBEP86_AUG-cc-PVTZ.chk
 ----------------------------------------------------------------------
 # DSDPBEP86/AUG-cc-PVTZ SCF=Tight INT(grid=ultrafine) Pop=NBO MaxDisk=
 1400000MB
 ----------------------------------------------------------------------
 1/38=1,172=1/1;
 2/12=2,17=6,18=5,40=1/2;
 3/5=16,6=1,7=10,11=9,25=1,30=1,74=-77,75=-5/1,2,3;
 4//1;
 5/5=2,32=2,38=5/2;
 8/10=1/1;
 9/16=-3/6;
 6/7=2,8=2,9=2,10=2,40=1/1,7;
 99/5=1,9=1/99;
 ---------------------------------
 NM3_carboxy.DSDPBEP86_AUG-cc-PVTZ
 ---------------------------------
 Symbolic Z-matrix:
 Charge = -1 Multiplicity = 1
 C                    -5.9183    1.18918   0.26304 
 N                    -4.65894   0.64365   0.17197 
 C                    -3.45423   1.32828   0.06306 
 O                    -3.36031   2.55094   0.04179 
 N                    -2.39061   0.4943   -0.00841 
 C                    -1.06041   1.02289  -0.20657 
 C                    -0.02815  -0.07001   0.04105 
 C                     1.39115   0.42787  -0.21227 
 C                    -6.19857   2.56486   0.30246 
 C                    -7.51973   2.98469   0.40174 
 C                    -8.58953   2.10115   0.46314 
 C                    -8.28448   0.74543   0.42464 
 C                    -6.99249   0.27485   0.32731 
 H                    -4.62672  -0.39525   0.16408 
 H                    -2.52286  -0.52535  -0.08483 
 H                    -0.90352   1.86513   0.47431 
 H                    -0.94761   1.4222   -1.22455 
 H                    -0.25393  -0.92999  -0.59626 
 H                    -0.13107  -0.42467   1.07098 
 H                     1.51432   0.7559   -1.24843 
 H                     2.12963  -0.35446  -0.0226 
 H                     1.6333    1.2782    0.43219 
 H                    -5.38645   3.27562   0.25933 
 Cl                   -9.60389  -0.40687   0.50724 
 H                    -6.77995  -0.78948   0.29943 
 C                    -7.79009   4.45951   0.38953 
 H                    -9.61194   2.44305   0.54432 
 F                    -7.68178   4.98629  -0.84647 
 F                    -9.03095   4.76154   0.81716 
 F                    -6.93758   5.14702   1.16548 
 O                    -4.81329  -2.10958   0.13658 
 O                    -2.61833  -2.31651  -0.24267 
 C                    -3.76939  -2.77753  -0.08074 
 C                    -3.9539   -4.30091  -0.14851 
 C                    -2.66919  -5.07661  -0.40347 
 H                    -4.69758  -4.49911  -0.92674 
 H                    -4.4234   -4.60878   0.79097 
 H                    -2.213    -4.76928  -1.34595 
 H                    -2.85465  -6.15452  -0.44199 
 H                    -1.9363   -4.87842   0.38045 
 
                          Input orientation:                          
 ---------------------------------------------------------------------
 Center     Atomic      Atomic             Coordinates (Angstroms)
 Number     Number       Type             X           Y           Z
 ---------------------------------------------------------------------
      1          6           0       -5.918297    1.189185    0.263038
      2          7           0       -4.658939    0.643654    0.171969
      3          6           0       -3.454227    1.328282    0.063062
      4          8           0       -3.360311    2.550938    0.041785
      5          7           0       -2.390608    0.494304   -0.008409
      6          6           0       -1.060406    1.022886   -0.206568
      7          6           0       -0.028146   -0.070012    0.041051
      8          6           0        1.391152    0.427874   -0.212274
      9          6           0       -6.198569    2.564858    0.302458
     10          6           0       -7.519728    2.984688    0.401739
     11          6           0       -8.589532    2.101154    0.463136
     12          6           0       -8.284479    0.745432    0.424637
     13          6           0       -6.992489    0.274849    0.327313
     14          1           0       -4.626718   -0.395246    0.164083
     15          1           0       -2.522859   -0.525350   -0.084831
     16          1           0       -0.903516    1.865128    0.474305
     17          1           0       -0.947613    1.422198   -1.224547
     18          1           0       -0.253931   -0.929990   -0.596263
     19          1           0       -0.131065   -0.424666    1.070985
     20          1           0        1.514321    0.755898   -1.248429
     21          1           0        2.129633   -0.354464   -0.022603
     22          1           0        1.633297    1.278198    0.432190
     23          1           0       -5.386451    3.275618    0.259331
     24         17           0       -9.603891   -0.406872    0.507241
     25          1           0       -6.779952   -0.789481    0.299427
     26          6           0       -7.790090    4.459512    0.389527
     27          1           0       -9.611941    2.443050    0.544316
     28          9           0       -7.681785    4.986292   -0.846473
     29          9           0       -9.030946    4.761535    0.817160
     30          9           0       -6.937578    5.147021    1.165475
     31          8           0       -4.813292   -2.109582    0.136577
     32          8           0       -2.618326   -2.316510   -0.242674
     33          6           0       -3.769393   -2.777529   -0.080736
     34          6           0       -3.953903   -4.300911   -0.148510
     35          6           0       -2.669187   -5.076613   -0.403472
     36          1           0       -4.697581   -4.499109   -0.926740
     37          1           0       -4.423399   -4.608782    0.790969
     38          1           0       -2.213004   -4.769277   -1.345954
     39          1           0       -2.854649   -6.154523   -0.441988
     40          1           0       -1.936303   -4.878418    0.380447
 ---------------------------------------------------------------------
                    Distance matrix (angstroms):
                    1          2          3          4          5
     1  C    0.000000
     2  N    1.375456   0.000000
     3  C    2.476082   1.389931   0.000000
     4  O    2.906307   2.311085   1.226442   0.000000
     5  N    3.605708   2.280387   1.353481   2.274331   0.000000
     6  C    4.883369   3.638207   2.428239   2.772397   1.445027
     7  C    6.027332   4.687292   3.700505   4.239422   2.429429
     8  C    7.364344   6.066120   4.936015   5.210407   3.787834
     9  C    1.404487   2.465464   3.019578   2.850238   4.345618
    10  C    2.409907   3.703694   4.403031   4.197435   5.716476
    11  C    2.829703   4.202219   5.208526   5.265415   6.421135
    12  C    2.412850   3.635758   4.878707   5.258693   5.915091
    13  C    1.412101   2.367616   3.701196   4.295908   4.619326
    14  H    2.046556   1.039430   2.086981   3.209165   2.412724
    15  H    3.819639   2.448542   2.079728   3.190752   1.031031
    16  H    5.064540   3.960632   2.638835   2.587131   2.079330
    17  H    5.193737   4.041080   2.819551   2.949367   2.102907
    18  H    6.108547   4.740320   3.971951   4.708881   2.634308
    19  H    6.062124   4.738268   3.890005   4.510154   2.667420
    20  H    7.597111   6.335556   5.170503   5.352463   4.105430
    21  H    8.199611   6.864314   5.832535   6.211681   4.599260
    22  H    7.554013   6.329502   5.101144   5.168017   4.123158
    23  H    2.153156   2.732058   2.750297   2.162807   4.096641
    24  Cl   4.023759   5.066415   6.405187   6.924419   7.287624
    25  H    2.158446   2.562971   3.949840   4.787350   4.583580
    26  C    3.770232   4.940871   5.358255   4.835962   6.710859
    27  H    3.910793   5.282868   6.276286   6.272724   7.500051
    28  F    4.331158   5.388258   5.663969   5.039355   6.991198
    29  F    4.770463   6.040502   6.592093   6.135475   7.936303
    30  F    4.185427   5.143886   5.285057   4.560611   6.610652
    31  O    3.481220   2.757787   3.697482   4.882682   3.559584
    32  O    4.841017   3.619199   3.751894   4.931886   2.829737
    33  C    4.524465   3.543959   4.120399   5.345551   3.551221
    34  C    5.845457   5.004849   5.655285   6.880145   5.045553
    35  C    7.089512   6.083725   6.469669   7.671730   5.591852
    36  H    5.938216   5.258961   6.040208   7.240821   5.576704
    37  H    6.010812   5.294028   6.059527   7.276883   5.550922
    38  H    7.198703   6.130784   6.380140   7.538413   5.433771
    39  H    7.988307   7.060284   7.523758   8.733543   6.679089
    40  H    7.258503   6.160316   6.397496   7.572174   5.405900
                    6          7          8          9         10
     6  C    0.000000
     7  C    1.523582   0.000000
     8  C    2.522738   1.525278   0.000000
     9  C    5.388646   6.714536   7.901615   0.000000
    10  C    6.778019   8.098462   9.290753   1.389811   0.000000
    11  C    7.635372   8.842479  10.142490   2.440807   1.388842
    12  C    7.256902   8.305366   9.701769   2.770606   2.366355
    13  C    6.002849   6.978750   8.402381   2.423854   2.761657
    14  H    3.855783   4.611700   6.085551   3.354412   4.455327
    15  H    2.133219   2.539049   4.030429   4.817699   6.125832
    16  H    1.094338   2.167660   2.793312   5.343851   6.710659
    17  H    1.099297   2.161908   2.735544   5.586588   6.948301
    18  H    2.148485   1.093942   2.167381   6.954163   8.313394
    19  H    2.142713   1.094137   2.165808   6.807532   8.164798
    20  H    2.790336   2.173497   1.093794   8.072563   9.450112
    21  H    3.479552   2.177378   1.092420   8.831028  10.219597
    22  H    2.780150   2.175099   1.094084   7.937913   9.310795
    23  H    4.899646   6.320785   7.366680   1.080081   2.157728
    24  Cl   8.691655   9.593003  11.050135   4.524305   3.982154
    25  H    6.021123   6.794945   8.277121   3.404351   3.847348
    26  C    7.579867   8.993653  10.045471   2.475930   1.499450
    27  H    8.701118   9.920579  11.211665   3.424097   2.165885
    28  F    7.743431   9.215861  10.173474   3.063219   2.364469
    29  F    8.863128  10.246785  11.334041   3.621141   2.369291
    30  F    7.309730   8.730523   9.671417   2.821081   2.365983
    31  O    4.900434   5.202556   6.712340   4.878207   5.774660
    32  O    3.685103   3.440390   4.858856   6.078081   7.248566
    33  C    4.668789   4.619784   6.076440   5.881227   6.892093
    34  C    6.059580   5.774773   7.136882   7.237450   8.130058
    35  C    6.311168   5.677918   6.842682   8.446713   9.442494
    36  H    6.651324   6.508236   7.865004   7.325540   8.107811
    37  H    6.634794   6.362472   7.757796   7.406146   8.209723
    38  H    6.014635   5.364744   6.425383   8.508322   9.557182
    39  H    7.402022   6.726344   7.836296   9.368223  10.295631
    40  H    5.994762   5.184305   6.291265   8.577608   9.643834
                   11         12         13         14         15
    11  C    0.000000
    12  C    1.390152   0.000000
    13  C    2.429893   1.378462   0.000000
    14  H    4.693116   3.840345   2.464254   0.000000
    15  H    6.633499   5.922052   4.559361   2.122524   0.000000
    16  H    7.689647   7.465574   6.294934   4.366665   2.940968
    17  H    7.855455   7.550326   6.345487   4.332114   2.751962
    18  H    8.932659   8.266739   6.907445   4.470497   2.360790
    19  H    8.848441   8.262266   6.936967   4.586309   2.658331
    20  H   10.335716   9.940611   8.664883   6.405676   4.392537
    21  H   11.007565  10.481580   9.150497   6.759052   4.656045
    22  H   10.255947   9.932078   8.684578   6.485375   4.560014
    23  H    3.417693   3.850679   3.404202   3.749868   4.771370
    24  Cl   2.705746   1.753704   2.704910   4.989003   7.106729
    25  H    3.414256   2.152959   1.085701   2.193207   4.282554
    26  C    2.491260   3.747005   4.260451   5.798829   7.267571
    27  H    1.081113   2.158330   3.407303   5.749170   7.711181
    28  F    3.295922   4.468093   4.904141   6.270216   7.587675
    29  F    2.719891   4.103702   4.952333   6.812938   8.433264
    30  F    3.535469   4.662293   4.944046   6.087659   7.295808
    31  O    5.665415   4.503690   3.235861   1.724678   2.793725
    32  O    7.461181   6.475035   5.115988   2.808975   1.800634
    33  C    6.879759   5.749144   4.457787   2.543661   2.574135
    34  C    7.927774   6.674426   5.513347   3.975502   4.038168
    35  C    9.344615   8.131019   6.918319   5.105805   4.564750
    36  H    7.787330   6.495942   5.443338   4.246953   4.607492
    37  H    7.904896   6.611335   5.537604   4.264764   4.588409
    38  H    9.546504   8.391055   7.147483   5.219040   4.438171
    39  H   10.092786   8.822894   7.684424   6.056139   5.650242
    40  H    9.642962   8.481095   7.219696   5.232970   4.416983
                   16         17         18         19         20
    16  H    0.000000
    17  H    1.756198   0.000000
    18  H    3.062803   2.531546   0.000000
    19  H    2.489149   3.057306   1.746472   0.000000
    20  H    3.169250   2.550617   2.528686   3.079075   0.000000
    21  H    3.791240   3.751085   2.518272   2.512293   1.764698
    22  H    2.604166   3.070279   3.081467   2.533925   1.763925
    23  H    4.704509   5.033920   6.690437   6.478423   7.499533
    24  Cl   8.992197   9.015306   9.429376   9.489603  11.315876
    25  H    6.450584   6.421075   6.588699   6.703439   8.577822
    26  C    7.359546   7.658329   9.317307   9.109349  10.147499
    27  H    8.727862   8.901775  10.012526   9.919082  11.395356
    28  F    7.578328   7.628551   9.499369   9.485172  10.130458
    29  F    8.634920   8.981092  10.555909  10.303834  11.467975
    30  F    6.903510   7.447564   9.203528   8.796661   9.825656
    31  O    5.585583   5.410139   4.766158   5.063132   7.082931
    32  O    4.576104   4.211091   2.763661   3.389873   5.246904
    33  C    5.484121   5.187335   4.004702   4.483286   6.462681
    34  C    6.907445   6.553595   5.025274   5.579116   7.528785
    35  C    7.216361   6.772926   4.802615   5.500609   7.227301
    36  H    7.540648   7.015185   5.709102   6.437783   8.142868
    37  H    7.375728   7.246800   5.730827   6.000780   8.258054
    38  H    7.003102   6.320626   4.374943   5.389964   6.665585
    39  H    8.304295   7.852126   5.838088   6.522136   8.215361
    40  H    6.822821   6.576570   4.401638   4.855063   6.804819
                   21         22         23         24         25
    21  H    0.000000
    22  H    1.766004   0.000000
    23  H    8.351557   7.300441   0.000000
    24  Cl  11.745598  11.363076   5.604373   0.000000
    25  H    8.926010   8.664623   4.297497   2.857307   0.000000
    26  C   11.033817   9.945995   2.682543   5.194749   5.346066
    27  H   12.083544  11.305965   4.316150   2.850174   4.304577
    28  F   11.201177  10.107210   3.068838   5.883303   5.957008
    29  F   12.305981  11.225325   3.975106   5.209294   6.012387
    30  F   10.672028   9.432148   2.594078   6.195823   6.001412
    31  O    7.163099   7.288549   5.417007   5.097691   2.374225
    32  O    5.142098   5.608356   6.259906   7.280605   4.465963
    33  C    6.377549   6.775033   6.274640   6.325117   3.627717
    34  C    7.252565   7.917100   7.721550   6.893179   4.529608
    35  C    6.743325   7.719672   8.808099   8.409875   5.980967
    36  H    8.037810   8.677786   7.894789   6.547869   4.427313
    37  H    7.855148   8.453923   7.960772   6.676381   4.514646
    38  H    6.332483   7.384293   8.795911   8.780098   6.277187
    39  H    7.658958   8.726464   9.789251   8.915649   6.688900
    40  H    6.095937   7.116786   8.854745   8.877089   6.339315
                   26         27         28         29         30
    26  C    0.000000
    27  H    2.721988   0.000000
    28  F    1.347933   3.482510   0.000000
    29  F    1.346778   2.405696   2.153700   0.000000
    30  F    1.342215   3.853507   2.151188   2.156876   0.000000
    31  O    7.216530   6.627198   7.716610   8.090986   7.630827
    32  O    8.547590   8.496082   8.906969   9.609561   8.737455
    33  C    8.292280   7.860058   8.727547   9.237296   8.624902
    34  C    9.578665   8.830313  10.031770  10.432489   9.994614
    35  C   10.853118  10.278398  11.250976  11.779265  11.189435
    36  H    9.568336   8.631832   9.944081  10.372019  10.121402
    37  H    9.681411   8.758433  10.264685  10.441888  10.081521
    38  H   10.921828  10.504050  11.195007  11.916366  11.267735
    39  H   11.734894  10.979620  12.148358  12.605254  12.123496
    40  H   11.021064  10.608778  11.481655  11.977203  11.231138
                   31         32         33         34         35
    31  O    0.000000
    32  O    2.237080   0.000000
    33  C    1.258214   1.250487   0.000000
    34  C    2.371022   2.393842   1.536011   0.000000
    35  C    3.700285   2.765251   2.569124   1.522239   0.000000
    36  H    2.617990   3.091114   2.130984   1.094523   2.172947
    37  H    2.612709   3.095354   2.130982   1.094455   2.173203
    38  H    4.004169   2.719850   2.826691   2.164247   1.091252
    39  H    4.531287   3.850444   3.517293   2.174940   1.094426
    40  H    4.000374   2.723382   2.826065   2.164260   1.091298
                   36         37         38         39         40
    36  H    0.000000
    37  H    1.742908   0.000000
    38  H    2.534137   3.078643   0.000000
    39  H    2.524238   2.523979   1.774195   0.000000
    40  H    3.078517   2.535129   1.751838   1.774317   0.000000
 Stoichiometry    C14H17ClF3N2O3(1-)
 Framework group  C1[X(C14H17ClF3N2O3)]
 Deg. of freedom   114
 Full point group                 C1      NOp   1
 Largest Abelian subgroup         C1      NOp   1
 Largest concise Abelian subgroup C1      NOp   1
                         Standard orientation:                         
 ---------------------------------------------------------------------
 Center     Atomic      Atomic             Coordinates (Angstroms)
 Number     Number       Type             X           Y           Z
 ---------------------------------------------------------------------
      1          6           0       -0.898568    0.092665   -0.045456
      2          7           0        0.437035   -0.235888   -0.055387
      3          6           0        0.987421   -1.511191   -0.004538
      4          8           0        0.324891   -2.541862    0.049604
      5          7           0        2.340512   -1.491401   -0.030301
      6          6           0        3.091188   -2.719639    0.096264
      7          6           0        4.552822   -2.470071   -0.253940
      8          6           0        5.396726   -3.728553   -0.079233
      9          6           0       -1.954882   -0.832670   -0.022200
     10          6           0       -3.264189   -0.366530   -0.020395
     11          6           0       -3.583924    0.984876   -0.039151
     12          6           0       -2.520062    1.879351   -0.064327
     13          6           0       -1.203387    1.471293   -0.067778
     14          1           0        1.090769    0.571756   -0.082907
     15          1           0        2.857022   -0.600612    0.022024
     16          1           0        2.657873   -3.475267   -0.566187
     17          1           0        3.012801   -3.120625    1.116813
     18          1           0        4.939036   -1.658022    0.369058
     19          1           0        4.611207   -2.110443   -1.285635
     20          1           0        5.370948   -4.079313    0.956474
     21          1           0        6.441767   -3.549450   -0.342275
     22          1           0        5.028814   -4.542704   -0.710753
     23          1           0       -1.736603   -1.890396   -0.010152
     24         17           0       -2.877065    3.596034   -0.096327
     25          1           0       -0.389742    2.189846   -0.088092
     26          6           0       -4.368815   -1.377559    0.056872
     27          1           0       -4.607746    1.332135   -0.041548
     28          9           0       -4.512065   -1.880503    1.299229
     29          9           0       -5.566872   -0.861401   -0.277869
     30          9           0       -4.163423   -2.429283   -0.751356
     31          8           0        1.980296    2.049263   -0.098009
     32          8           0        3.874652    0.881073    0.128422
     33          6           0        3.227942    1.946652    0.028295
     34          6           0        4.006653    3.270274    0.059328
     35          6           0        5.513229    3.107280    0.203803
     36          1           0        3.592211    3.866521    0.878296
     37          1           0        3.752357    3.813028   -0.856414
     38          1           0        5.757499    2.572960    1.123403
     39          1           0        6.019970    4.077187    0.219978
     40          1           0        5.918697    2.517646   -0.620126
 ---------------------------------------------------------------------
 Rotational constants (GHZ):           0.2771570           0.1145492           0.0825056
 Standard basis: Aug-CC-pVTZ (5D, 7F)
 There are  1694 symmetry adapted cartesian basis functions of A   symmetry.
 There are  1453 symmetry adapted basis functions of A   symmetry.
  1453 basis functions,  2157 primitive gaussians,  1694 cartesian basis functions
    92 alpha electrons       92 beta electrons
       nuclear repulsion energy      2087.6991968540 Hartrees.
 NAtoms=   40 NActive=   40 NUniq=   40 SFac= 1.00D+00 NAtFMM=   60 NAOKFM=F Big=F
 Integral buffers will be    131072 words long.
 Regular integral format.
 Two-electron integral symmetry is turned on.
 Nuclear repulsion after empirical dispersion term =     2087.6698629245 Hartrees.
 One-electron integrals computed using PRISM.
 NBasis=  1453 RedAO= T EigKep=  1.42D-06  NBF=  1453
 NBsUse=  1449 1.00D-06 EigRej=  7.63D-07 NBFU=  1449
 ExpMin= 2.53D-02 ExpMax= 4.56D+05 ExpMxC= 1.44D+03 IAcc=3 IRadAn=         5 AccDes= 0.00D+00
 Harris functional with IExCor= 1004 and IRadAn=       5 diagonalized for initial guess.
 HarFok:  IExCor= 1004 AccDes= 0.00D+00 IRadAn=         5 IDoV= 1 UseB2=F ITyADJ=14
 ICtDFT=  3500011 ScaDFX=  1.000000  1.000000  1.000000  1.000000
 FoFCou: FMM=F IPFlag=           0 FMFlag=      100000 FMFlg1=           0
         NFxFlg=           0 DoJE=T BraDBF=F KetDBF=T FulRan=T
         wScrn=  0.000000 ICntrl=       500 IOpCl=  0 I1Cent=   200000004 NGrid=           0
         NMat0=    1 NMatS0=      1 NMatT0=    0 NMatD0=    1 NMtDS0=    0 NMtDT0=    0
 Petite list used in FoFCou.
 Requested convergence on RMS density matrix=1.00D-08 within 128 cycles.
 Requested convergence on MAX density matrix=1.00D-06.
 Requested convergence on             energy=1.00D-06.
 No special actions if energy rises.
 SCF Done:  E(RDSDPBEP86) =  -1634.82873795     A.U. after   14 cycles
            NFock= 14  Conv=0.28D-08     -V/T= 2.0027
 DoSCS=T DFT=T ScalE2(SS,OS)=  0.220000  0.520000
 ExpMin= 2.53D-02 ExpMax= 4.56D+05 ExpMxC= 1.44D+03 IAcc=3 IRadAn=         5 AccDes= 0.00D+00
 HarFok:  IExCor=  205 AccDes= 0.00D+00 IRadAn=         5 IDoV=-2 UseB2=F ITyADJ=14
 ICtDFT= 12500011 ScaDFX=  1.000000  1.000000  1.000000  1.000000
 GSVD:  LWork=        -945 too small for GESVD, short by        4050 words or        4050 for optimal perf.
 Range of M.O.s used for correlation:    28  1449
 NBasis=  1453 NAE=    92 NBE=    92 NFC=    27 NFV=     0
 NROrb=   1422 NOA=    65 NOB=    65 NVA=  1357 NVB=  1357

 **** Warning!!: The largest alpha MO coefficient is  0.10593632D+03

 DoSCS=T DFT=T ScalE2(SS,OS)=  0.220000  0.520000
 Fully direct method using O(OVN) memory.
 JobTyp=1 Pass  1:  I=   1 to  52 NPSUse= 32 ParTrn=T ParDer=T DoDerP=F.
 JobTyp=1 Pass  2:  I=  53 to  65 NPSUse= 32 ParTrn=T ParDer=T DoDerP=F.
 Spin components of T(2) and E(2):
     alpha-alpha T2 =       0.2274308372D+00 E2=     -0.1424163123D+00
     alpha-beta  T2 =       0.1186816036D+01 E2=     -0.1924105885D+01
     beta-beta   T2 =       0.2274308372D+00 E2=     -0.1424163123D+00
 E2(DSDPBEP86) =    -0.2208938510D+01 E(DSDPBEP86) =    -0.16370376764632D+04

 **********************************************************************

            Population analysis using the SCF Density.

 **********************************************************************

 Orbital symmetries:
       Occupied  (A) (A) (A) (A) (A) (A) (A) (A) (A) (A) (A) (A)
                 (A) (A) (A) (A) (A) (A) (A) (A) (A) (A) (A) (A)
                 (A) (A) (A) (A) (A) (A) (A) (A) (A) (A) (A) (A)
                 (A) (A) (A) (A) (A) (A) (A) (A) (A) (A) (A) (A)
                 (A) (A) (A) (A) (A) (A) (A) (A) (A) (A) (A) (A)
                 (A) (A) (A) (A) (A) (A) (A) (A) (A) (A) (A) (A)
                 (A) (A) (A) (A) (A) (A) (A) (A) (A) (A) (A) (A)
                 (A) (A) (A) (A) (A) (A) (A) (A)
       Virtual   (A) (A) (A) (A) (A) (A) (A) (A) (A) (A) (A) (A)
                 (A) (A) (A) (A) (A) (A) (A) (A) (A) (A) (A) (A)
                 (A) (A) (A) (A) (A) (A) (A) (A) (A) (A) (A) (A)
                 (A) (A) (A) (A) (A) (A) (A) (A) (A) (A) (A) (A)
                 (A) (A) (A) (A) (A) (A) (A) (A) (A) (A) (A) (A)
                 (A) (A) (A) (A) (A) (A) (A) (A) (A) (A) (A) (A)
                 (A) (A) (A) (A) (A) (A) (A) (A) (A) (A) (A) (A)
                 (A) (A) (A) (A) (A) (A) (A) (A) (A) (A) (A) (A)
                 (A) (A) (A) (A) (A) (A) (A) (A) (A) (A) (A) (A)
                 (A) (A) (A) (A) (A) (A) (A) (A) (A) (A) (A) (A)
                 (A) (A) (A) (A) (A) (A) (A) (A) (A) (A) (A) (A)
                 (A) (A) (A) (A) (A) (A) (A) (A) (A) (A) (A) (A)
                 (A) (A) (A) (A) (A) (A) (A) (A) (A) (A) (A) (A)
                 (A) (A) (A) (A) (A) (A) (A) (A) (A) (A) (A) (A)
                 (A) (A) (A) (A) (A) (A) (A) (A) (A) (A) (A) (A)
                 (A) (A) (A) (A) (A) (A) (A) (A) (A) (A) (A) (A)
                 (A) (A) (A) (A) (A) (A) (A) (A) (A) (A) (A) (A)
                 (A) (A) (A) (A) (A) (A) (A) (A) (A) (A) (A) (A)
                 (A) (A) (A) (A) (A) (A) (A) (A) (A) (A) (A) (A)
                 (A) (A) (A) (A) (A) (A) (A) (A) (A) (A) (A) (A)
                 (A) (A) (A) (A) (A) (A) (A) (A) (A) (A) (A) (A)
                 (A) (A) (A) (A) (A) (A) (A) (A) (A) (A) (A) (A)
                 (A) (A) (A) (A) (A) (A) (A) (A) (A) (A) (A) (A)
                 (A) (A) (A) (A) (A) (A) (A) (A) (A) (A) (A) (A)
                 (A) (A) (A) (A) (A) (A) (A) (A) (A) (A) (A) (A)
                 (A) (A) (A) (A) (A) (A) (A) (A) (A) (A) (A) (A)
                 (A) (A) (A) (A) (A) (A) (A) (A) (A) (A) (A) (A)
                 (A) (A) (A) (A) (A) (A) (A) (A) (A) (A) (A) (A)
                 (A) (A) (A) (A) (A) (A) (A) (A) (A) (A) (A) (A)
                 (A) (A) (A) (A) (A) (A) (A) (A) (A) (A) (A) (A)
                 (A) (A) (A) (A) (A) (A) (A) (A) (A) (A) (A) (A)
                 (A) (A) (A) (A) (A) (A) (A) (A) (A) (A) (A) (A)
                 (A) (A) (A) (A) (A) (A) (A) (A) (A) (A) (A) (A)
                 (A) (A) (A) (A) (A) (A) (A) (A) (A) (A) (A) (A)
                 (A) (A) (A) (A) (A) (A) (A) (A) (A) (A) (A) (A)
                 (A) (A) (A) (A) (A) (A) (A) (A) (A) (A) (A) (A)
                 (A) (A) (A) (A) (A) (A) (A) (A) (A) (A) (A) (A)
                 (A) (A) (A) (A) (A) (A) (A) (A) (A) (A) (A) (A)
                 (A) (A) (A) (A) (A) (A) (A) (A) (A) (A) (A) (A)
                 (A) (A) (A) (A) (A) (A) (A) (A) (A) (A) (A) (A)
                 (A) (A) (A) (A) (A) (A) (A) (A) (A) (A) (A) (A)
                 (A) (A) (A) (A) (A) (A) (A) (A) (A) (A) (A) (A)
                 (A) (A) (A) (A) (A) (A) (A) (A) (A) (A) (A) (A)
                 (A) (A) (A) (A) (A) (A) (A) (A) (A) (A) (A) (A)
                 (A) (A) (A) (A) (A) (A) (A) (A) (A) (A) (A) (A)
                 (A) (A) (A) (A) (A) (A) (A) (A) (A) (A) (A) (A)
                 (A) (A) (A) (A) (A) (A) (A) (A) (A) (A) (A) (A)
                 (A) (A) (A) (A) (A) (A) (A) (A) (A) (A) (A) (A)
                 (A) (A) (A) (A) (A) (A) (A) (A) (A) (A) (A) (A)
                 (A) (A) (A) (A) (A) (A) (A) (A) (A) (A) (A) (A)
                 (A) (A) (A) (A) (A) (A) (A) (A) (A) (A) (A) (A)
                 (A) (A) (A) (A) (A) (A) (A) (A) (A) (A) (A) (A)
                 (A) (A) (A) (A) (A) (A) (A) (A) (A) (A) (A) (A)
                 (A) (A) (A) (A) (A) (A) (A) (A) (A) (A) (A) (A)
                 (A) (A) (A) (A) (A) (A) (A) (A) (A) (A) (A) (A)
                 (A) (A) (A) (A) (A) (A) (A) (A) (A) (A) (A) (A)
                 (A) (A) (A) (A) (A) (A) (A) (A) (A) (A) (A) (A)
                 (A) (A) (A) (A) (A) (A) (A) (A) (A) (A) (A) (A)
                 (A) (A) (A) (A) (A) (A) (A) (A) (A) (A) (A) (A)
                 (A) (A) (A) (A) (A) (A) (A) (A) (A) (A) (A) (A)
                 (A) (A) (A) (A) (A) (A) (A) (A) (A) (A) (A) (A)
                 (A) (A) (A) (A) (A) (A) (A) (A) (A) (A) (A) (A)
                 (A) (A) (A) (A) (A) (A) (A) (A) (A) (A) (A) (A)
                 (A) (A) (A) (A) (A) (A) (A) (A) (A) (A) (A) (A)
                 (A) (A) (A) (A) (A) (A) (A) (A) (A) (A) (A) (A)
                 (A) (A) (A) (A) (A) (A) (A) (A) (A) (A) (A) (A)
                 (A) (A) (A) (A) (A) (A) (A) (A) (A) (A) (A) (A)
                 (A) (A) (A) (A) (A) (A) (A) (A) (A) (A) (A) (A)
                 (A) (A) (A) (A) (A) (A) (A) (A) (A) (A) (A) (A)
                 (A) (A) (A) (A) (A) (A) (A) (A) (A) (A) (A) (A)
                 (A) (A) (A) (A) (A) (A) (A) (A) (A) (A) (A) (A)
                 (A) (A) (A) (A) (A) (A) (A) (A) (A) (A) (A) (A)
                 (A) (A) (A) (A) (A) (A) (A) (A) (A) (A) (A) (A)
                 (A) (A) (A) (A) (A) (A) (A) (A) (A) (A) (A) (A)
                 (A) (A) (A) (A) (A) (A) (A) (A) (A) (A) (A) (A)
                 (A) (A) (A) (A) (A) (A) (A) (A) (A) (A) (A) (A)
                 (A) (A) (A) (A) (A) (A) (A) (A) (A) (A) (A) (A)
                 (A) (A) (A) (A) (A) (A) (A) (A) (A) (A) (A) (A)
                 (A) (A) (A) (A) (A) (A) (A) (A) (A) (A) (A) (A)
                 (A) (A) (A) (A) (A) (A) (A) (A) (A) (A) (A) (A)
                 (A) (A) (A) (A) (A) (A) (A) (A) (A) (A) (A) (A)
                 (A) (A) (A) (A) (A) (A) (A) (A) (A) (A) (A) (A)
                 (A) (A) (A) (A) (A) (A) (A) (A) (A) (A) (A) (A)
                 (A) (A) (A) (A) (A) (A) (A) (A) (A) (A) (A) (A)
                 (A) (A) (A) (A) (A) (A) (A) (A) (A) (A) (A) (A)
                 (A) (A) (A) (A) (A) (A) (A) (A) (A) (A) (A) (A)
                 (A) (A) (A) (A) (A) (A) (A) (A) (A) (A) (A) (A)
                 (A) (A) (A) (A) (A) (A) (A) (A) (A) (A) (A) (A)
                 (A) (A) (A) (A) (A) (A) (A) (A) (A) (A) (A) (A)
                 (A) (A) (A) (A) (A) (A) (A) (A) (A) (A) (A) (A)
                 (A) (A) (A) (A) (A) (A) (A) (A) (A) (A) (A) (A)
                 (A) (A) (A) (A) (A) (A) (A) (A) (A) (A) (A) (A)
                 (A) (A) (A) (A) (A) (A) (A) (A) (A) (A) (A) (A)
                 (A) (A) (A) (A) (A) (A) (A) (A) (A) (A) (A) (A)
                 (A) (A) (A) (A) (A) (A) (A) (A) (A) (A) (A) (A)
                 (A) (A) (A) (A) (A) (A) (A) (A) (A) (A) (A) (A)
                 (A) (A) (A) (A) (A) (A) (A) (A) (A) (A) (A) (A)
                 (A) (A) (A) (A) (A) (A) (A) (A) (A) (A) (A) (A)
                 (A) (A) (A) (A) (A) (A) (A) (A) (A) (A) (A) (A)
                 (A) (A) (A) (A) (A) (A) (A) (A) (A) (A) (A) (A)
                 (A) (A) (A) (A) (A) (A) (A) (A) (A) (A) (A) (A)
                 (A) (A) (A) (A) (A) (A) (A) (A) (A) (A) (A) (A)
                 (A) (A) (A) (A) (A) (A) (A) (A) (A) (A) (A) (A)
                 (A) (A) (A) (A) (A) (A) (A) (A) (A) (A) (A) (A)
                 (A) (A) (A) (A) (A) (A) (A) (A) (A) (A) (A) (A)
                 (A) (A) (A) (A) (A) (A) (A) (A) (A) (A) (A) (A)
                 (A) (A) (A) (A) (A) (A) (A) (A) (A) (A) (A) (A)
                 (A) (A) (A) (A) (A) (A) (A) (A) (A) (A) (A) (A)
                 (A) (A) (A) (A) (A) (A) (A) (A) (A) (A) (A) (A)
                 (A) (A) (A) (A) (A) (A) (A) (A) (A) (A) (A) (A)
                 (A) (A) (A) (A) (A) (A) (A) (A) (A) (A) (A) (A)
                 (A) (A) (A) (A) (A) (A) (A) (A) (A) (A) (A) (A)
                 (A) (A) (A) (A) (A) (A) (A) (A) (A) (A) (A) (A)
                 (A)
 The electronic state is 1-A.
 Alpha  occ. eigenvalues -- -103.48055 -25.62283 -25.61886 -25.61675 -19.84367
 Alpha  occ. eigenvalues --  -19.82079 -19.81806 -14.98108 -14.96150 -10.99374
 Alpha  occ. eigenvalues --  -10.83348 -10.79737 -10.78849 -10.78159 -10.75740
 Alpha  occ. eigenvalues --  -10.73978 -10.73647 -10.72940 -10.72557 -10.71858
 Alpha  occ. eigenvalues --  -10.71103 -10.69645 -10.69571 -10.05553  -7.63221
 Alpha  occ. eigenvalues --   -7.62772  -7.62761  -1.48434  -1.39172  -1.38716
 Alpha  occ. eigenvalues --   -1.14691  -1.12587  -1.02912  -1.02336  -0.99409
 Alpha  occ. eigenvalues --   -0.97535  -0.92714  -0.86114  -0.84488  -0.82231
 Alpha  occ. eigenvalues --   -0.80818  -0.77590  -0.74096  -0.68994  -0.67423
 Alpha  occ. eigenvalues --   -0.67290  -0.64614  -0.64541  -0.62889  -0.60376
 Alpha  occ. eigenvalues --   -0.59097  -0.55430  -0.53650  -0.53042  -0.52480
 Alpha  occ. eigenvalues --   -0.51983  -0.50411  -0.49062  -0.48566  -0.48466
 Alpha  occ. eigenvalues --   -0.47074  -0.46817  -0.46307  -0.44910  -0.44753
 Alpha  occ. eigenvalues --   -0.44044  -0.44021  -0.43217  -0.42105  -0.41588
 Alpha  occ. eigenvalues --   -0.40914  -0.39808  -0.38539  -0.38479  -0.36991
 Alpha  occ. eigenvalues --   -0.36941  -0.36051  -0.35634  -0.34099  -0.34036
 Alpha  occ. eigenvalues --   -0.33150  -0.32380  -0.31625  -0.31588  -0.29035
 Alpha  occ. eigenvalues --   -0.26046  -0.22684  -0.22389  -0.22196  -0.22086
 Alpha  occ. eigenvalues --   -0.21908  -0.16984
 Alpha virt. eigenvalues --    0.08204   0.08946   0.09470   0.10073   0.10253
 Alpha virt. eigenvalues --    0.10938   0.11132   0.11266   0.11764   0.12633
 Alpha virt. eigenvalues --    0.12829   0.13018   0.13308   0.13429   0.13841
 Alpha virt. eigenvalues --    0.14010   0.14128   0.14561   0.15032   0.15469
 Alpha virt. eigenvalues --    0.15626   0.16219   0.16847   0.16954   0.17247
 Alpha virt. eigenvalues --    0.17704   0.17875   0.18378   0.18521   0.18685
 Alpha virt. eigenvalues --    0.18874   0.19126   0.19392   0.19595   0.19845
 Alpha virt. eigenvalues --    0.20015   0.20279   0.20908   0.21135   0.21285
 Alpha virt. eigenvalues --    0.21448   0.21754   0.21969   0.22195   0.22355
 Alpha virt. eigenvalues --    0.22547   0.22781   0.23014   0.23220   0.23532
 Alpha virt. eigenvalues --    0.23718   0.24055   0.24470   0.24608   0.24973
 Alpha virt. eigenvalues --    0.25191   0.25674   0.25892   0.26330   0.26748
 Alpha virt. eigenvalues --    0.26799   0.26970   0.27887   0.28155   0.28172
 Alpha virt. eigenvalues --    0.28356   0.28646   0.28794   0.28881   0.29107
 Alpha virt. eigenvalues --    0.29637   0.30373   0.30532   0.30809   0.31090
 Alpha virt. eigenvalues --    0.31581   0.31708   0.31849   0.32156   0.32576
 Alpha virt. eigenvalues --    0.32817   0.33024   0.33394   0.33445   0.33853
 Alpha virt. eigenvalues --    0.34065   0.34219   0.34587   0.34738   0.35131
 Alpha virt. eigenvalues --    0.35422   0.35851   0.36053   0.36304   0.36619
 Alpha virt. eigenvalues --    0.36679   0.37074   0.37105   0.37380   0.37613
 Alpha virt. eigenvalues --    0.37741   0.37915   0.38168   0.38223   0.38590
 Alpha virt. eigenvalues --    0.38917   0.38971   0.39130   0.39371   0.39486
 Alpha virt. eigenvalues --    0.39681   0.39810   0.40078   0.40401   0.40530
 Alpha virt. eigenvalues --    0.40828   0.40976   0.41334   0.41625   0.41789
 Alpha virt. eigenvalues --    0.42082   0.42305   0.42716   0.42973   0.43174
 Alpha virt. eigenvalues --    0.43342   0.43360   0.44039   0.44127   0.44329
 Alpha virt. eigenvalues --    0.44560   0.44835   0.45059   0.45155   0.45480
 Alpha virt. eigenvalues --    0.45587   0.45835   0.46023   0.46181   0.47142
 Alpha virt. eigenvalues --    0.47167   0.47281   0.47581   0.47734   0.47816
 Alpha virt. eigenvalues --    0.47899   0.48166   0.48372   0.48827   0.48942
 Alpha virt. eigenvalues --    0.49224   0.49484   0.50140   0.50315   0.50458
 Alpha virt. eigenvalues --    0.50642   0.50987   0.51088   0.51218   0.51547
 Alpha virt. eigenvalues --    0.51911   0.52209   0.52295   0.52439   0.52838
 Alpha virt. eigenvalues --    0.52873   0.53237   0.53510   0.53801   0.53954
 Alpha virt. eigenvalues --    0.54206   0.54488   0.54770   0.54813   0.54882
 Alpha virt. eigenvalues --    0.55049   0.55408   0.55514   0.55681   0.56125
 Alpha virt. eigenvalues --    0.56230   0.56419   0.56725   0.56773   0.56952
 Alpha virt. eigenvalues --    0.57289   0.57444   0.57746   0.57760   0.58193
 Alpha virt. eigenvalues --    0.58474   0.58623   0.58879   0.58929   0.59566
 Alpha virt. eigenvalues --    0.59885   0.60334   0.60482   0.60585   0.60728
 Alpha virt. eigenvalues --    0.61018   0.61204   0.61910   0.62072   0.62238
 Alpha virt. eigenvalues --    0.62404   0.62984   0.63153   0.63565   0.63748
 Alpha virt. eigenvalues --    0.64210   0.64335   0.64585   0.65030   0.65164
 Alpha virt. eigenvalues --    0.65580   0.65796   0.66167   0.66464   0.66716
 Alpha virt. eigenvalues --    0.67031   0.67659   0.67942   0.68154   0.68303
 Alpha virt. eigenvalues --    0.68452   0.68748   0.69093   0.69234   0.69489
 Alpha virt. eigenvalues --    0.69937   0.70053   0.70673   0.71220   0.71501
 Alpha virt. eigenvalues --    0.72263   0.72501   0.72943   0.73308   0.73600
 Alpha virt. eigenvalues --    0.73933   0.74052   0.74572   0.74630   0.74923
 Alpha virt. eigenvalues --    0.75453   0.75468   0.75695   0.76148   0.76328
 Alpha virt. eigenvalues --    0.76853   0.77600   0.77873   0.78169   0.78333
 Alpha virt. eigenvalues --    0.78579   0.79080   0.79258   0.79888   0.80486
 Alpha virt. eigenvalues --    0.80593   0.81168   0.81207   0.81378   0.82018
 Alpha virt. eigenvalues --    0.82369   0.83025   0.83393   0.83500   0.84203
 Alpha virt. eigenvalues --    0.84320   0.84565   0.85165   0.85420   0.85612
 Alpha virt. eigenvalues --    0.86129   0.86386   0.86657   0.87069   0.87270
 Alpha virt. eigenvalues --    0.87480   0.88177   0.88498   0.88954   0.89296
 Alpha virt. eigenvalues --    0.89414   0.89992   0.90036   0.90243   0.90643
 Alpha virt. eigenvalues --    0.91151   0.91431   0.91618   0.92127   0.92280
 Alpha virt. eigenvalues --    0.92699   0.92907   0.93142   0.93403   0.93726
 Alpha virt. eigenvalues --    0.93872   0.94264   0.94380   0.94428   0.95068
 Alpha virt. eigenvalues --    0.95221   0.95664   0.95897   0.96146   0.96363
 Alpha virt. eigenvalues --    0.96693   0.97027   0.97331   0.97446   0.97500
 Alpha virt. eigenvalues --    0.97619   0.97786   0.97914   0.98413   0.98766
 Alpha virt. eigenvalues --    0.98956   0.99193   0.99286   0.99944   1.00264
 Alpha virt. eigenvalues --    1.00392   1.00594   1.01112   1.01493   1.01787
 Alpha virt. eigenvalues --    1.02289   1.02711   1.02861   1.03016   1.03233
 Alpha virt. eigenvalues --    1.03497   1.04146   1.04276   1.04291   1.04836
 Alpha virt. eigenvalues --    1.05184   1.05710   1.06044   1.06148   1.06257
 Alpha virt. eigenvalues --    1.06419   1.06720   1.07085   1.07317   1.07509
 Alpha virt. eigenvalues --    1.08116   1.08327   1.08693   1.08866   1.09172
 Alpha virt. eigenvalues --    1.09546   1.09609   1.09862   1.10165   1.10576
 Alpha virt. eigenvalues --    1.11078   1.11938   1.12067   1.12158   1.12499
 Alpha virt. eigenvalues --    1.12597   1.12847   1.13136   1.13571   1.13849
 Alpha virt. eigenvalues --    1.13986   1.14349   1.14631   1.14927   1.15085
 Alpha virt. eigenvalues --    1.15320   1.15544   1.16052   1.16235   1.16432
 Alpha virt. eigenvalues --    1.16860   1.16904   1.17086   1.17486   1.17975
 Alpha virt. eigenvalues --    1.18345   1.18502   1.18770   1.18943   1.19607
 Alpha virt. eigenvalues --    1.19717   1.20068   1.20367   1.20616   1.20853
 Alpha virt. eigenvalues --    1.21210   1.21287   1.21705   1.22001   1.22271
 Alpha virt. eigenvalues --    1.22639   1.22897   1.23239   1.23737   1.24167
 Alpha virt. eigenvalues --    1.24406   1.24770   1.24978   1.25149   1.25702
 Alpha virt. eigenvalues --    1.26120   1.26458   1.26684   1.26766   1.27281
 Alpha virt. eigenvalues --    1.27638   1.28166   1.28261   1.28567   1.28910
 Alpha virt. eigenvalues --    1.29228   1.29582   1.29738   1.29956   1.30482
 Alpha virt. eigenvalues --    1.30623   1.30787   1.31157   1.31536   1.31720
 Alpha virt. eigenvalues --    1.32183   1.32653   1.32824   1.33358   1.33582
 Alpha virt. eigenvalues --    1.33641   1.34275   1.34451   1.34784   1.35512
 Alpha virt. eigenvalues --    1.35688   1.36285   1.36563   1.36711   1.36754
 Alpha virt. eigenvalues --    1.37043   1.37679   1.37972   1.38644   1.38883
 Alpha virt. eigenvalues --    1.38995   1.39485   1.39641   1.40007   1.40632
 Alpha virt. eigenvalues --    1.40961   1.41348   1.41527   1.41709   1.41937
 Alpha virt. eigenvalues --    1.42529   1.43413   1.44088   1.44137   1.44563
 Alpha virt. eigenvalues --    1.44823   1.45624   1.45967   1.46488   1.46617
 Alpha virt. eigenvalues --    1.46941   1.47410   1.47615   1.48073   1.48253
 Alpha virt. eigenvalues --    1.49228   1.49250   1.50014   1.50236   1.50722
 Alpha virt. eigenvalues --    1.51334   1.51636   1.51801   1.52355   1.52814
 Alpha virt. eigenvalues --    1.52976   1.53671   1.53970   1.54190   1.54816
 Alpha virt. eigenvalues --    1.55234   1.55334   1.55829   1.56022   1.56579
 Alpha virt. eigenvalues --    1.56771   1.57182   1.57549   1.57793   1.58192
 Alpha virt. eigenvalues --    1.58930   1.59652   1.59918   1.60208   1.60775
 Alpha virt. eigenvalues --    1.60893   1.61765   1.62145   1.62609   1.62959
 Alpha virt. eigenvalues --    1.63104   1.63560   1.63761   1.64477   1.64771
 Alpha virt. eigenvalues --    1.65361   1.65635   1.66210   1.66445   1.66907
 Alpha virt. eigenvalues --    1.67228   1.67733   1.68113   1.68368   1.68549
 Alpha virt. eigenvalues --    1.68750   1.69110   1.69196   1.69798   1.70186
 Alpha virt. eigenvalues --    1.70610   1.70666   1.71236   1.71586   1.71945
 Alpha virt. eigenvalues --    1.72071   1.72560   1.73170   1.73302   1.74111
 Alpha virt. eigenvalues --    1.74223   1.74486   1.74879   1.75427   1.75690
 Alpha virt. eigenvalues --    1.75822   1.76095   1.76231   1.76519   1.76973
 Alpha virt. eigenvalues --    1.77355   1.77453   1.78379   1.78441   1.79003
 Alpha virt. eigenvalues --    1.79524   1.79621   1.80093   1.80448   1.80790
 Alpha virt. eigenvalues --    1.81215   1.81490   1.81682   1.82124   1.82354
 Alpha virt. eigenvalues --    1.82823   1.83148   1.83709   1.83747   1.84340
 Alpha virt. eigenvalues --    1.84532   1.84762   1.84904   1.85489   1.86672
 Alpha virt. eigenvalues --    1.86968   1.87427   1.87805   1.88069   1.88238
 Alpha virt. eigenvalues --    1.88554   1.89258   1.89481   1.89876   1.90533
 Alpha virt. eigenvalues --    1.90578   1.91194   1.91496   1.91952   1.92231
 Alpha virt. eigenvalues --    1.93006   1.93306   1.93659   1.94242   1.94451
 Alpha virt. eigenvalues --    1.94845   1.95180   1.95505   1.96233   1.96784
 Alpha virt. eigenvalues --    1.97081   1.97253   1.97810   1.98441   1.98450
 Alpha virt. eigenvalues --    1.99114   1.99404   1.99614   1.99892   2.00763
 Alpha virt. eigenvalues --    2.01121   2.02071   2.02176   2.02671   2.02765
 Alpha virt. eigenvalues --    2.03685   2.03972   2.04087   2.05009   2.05059
 Alpha virt. eigenvalues --    2.05560   2.06215   2.06361   2.06793   2.07397
 Alpha virt. eigenvalues --    2.07896   2.07980   2.08446   2.08825   2.09434
 Alpha virt. eigenvalues --    2.09542   2.10279   2.10658   2.11092   2.11547
 Alpha virt. eigenvalues --    2.11759   2.12444   2.13171   2.13597   2.14219
 Alpha virt. eigenvalues --    2.14476   2.15197   2.15710   2.16898   2.17465
 Alpha virt. eigenvalues --    2.18021   2.18372   2.18913   2.19313   2.19888
 Alpha virt. eigenvalues --    2.20079   2.21099   2.21342   2.22079   2.22749
 Alpha virt. eigenvalues --    2.23274   2.23949   2.24254   2.25388   2.25862
 Alpha virt. eigenvalues --    2.26527   2.26589   2.27664   2.28429   2.28721
 Alpha virt. eigenvalues --    2.28817   2.29771   2.30482   2.30740   2.31501
 Alpha virt. eigenvalues --    2.32285   2.32599   2.33266   2.33742   2.34285
 Alpha virt. eigenvalues --    2.34610   2.35360   2.35934   2.36406   2.37041
 Alpha virt. eigenvalues --    2.37902   2.38005   2.38937   2.39158   2.39466
 Alpha virt. eigenvalues --    2.40176   2.41112   2.41713   2.42921   2.42952
 Alpha virt. eigenvalues --    2.43580   2.43700   2.44585   2.46278   2.46759
 Alpha virt. eigenvalues --    2.47880   2.48074   2.48555   2.48712   2.49583
 Alpha virt. eigenvalues --    2.50043   2.50694   2.51625   2.52333   2.52726
 Alpha virt. eigenvalues --    2.52911   2.53895   2.54709   2.55150   2.55666
 Alpha virt. eigenvalues --    2.56094   2.56417   2.57020   2.57924   2.58544
 Alpha virt. eigenvalues --    2.59606   2.59796   2.60763   2.61192   2.61738
 Alpha virt. eigenvalues --    2.62618   2.62822   2.63953   2.64078   2.65695
 Alpha virt. eigenvalues --    2.66703   2.66890   2.68061   2.68457   2.68656
 Alpha virt. eigenvalues --    2.69196   2.70355   2.71197   2.72118   2.72948
 Alpha virt. eigenvalues --    2.73128   2.73875   2.74474   2.75407   2.76475
 Alpha virt. eigenvalues --    2.76628   2.77315   2.77907   2.78580   2.79656
 Alpha virt. eigenvalues --    2.80147   2.80249   2.81763   2.82270   2.82997
 Alpha virt. eigenvalues --    2.83698   2.83767   2.84815   2.85398   2.85862
 Alpha virt. eigenvalues --    2.86951   2.87567   2.87924   2.89223   2.89523
 Alpha virt. eigenvalues --    2.90603   2.90816   2.92075   2.92733   2.93143
 Alpha virt. eigenvalues --    2.94835   2.95319   2.95572   2.96141   2.97562
 Alpha virt. eigenvalues --    2.98405   2.98589   2.99355   3.00540   3.01201
 Alpha virt. eigenvalues --    3.01939   3.02347   3.03030   3.03609   3.04318
 Alpha virt. eigenvalues --    3.04715   3.06686   3.07034   3.07262   3.07802
 Alpha virt. eigenvalues --    3.08552   3.09610   3.09684   3.10238   3.10601
 Alpha virt. eigenvalues --    3.11142   3.11894   3.13051   3.13118   3.14688
 Alpha virt. eigenvalues --    3.14859   3.16504   3.16730   3.17523   3.17798
 Alpha virt. eigenvalues --    3.18305   3.18537   3.19373   3.20915   3.21287
 Alpha virt. eigenvalues --    3.21787   3.22444   3.23033   3.23685   3.24126
 Alpha virt. eigenvalues --    3.24697   3.25296   3.26435   3.27419   3.27653
 Alpha virt. eigenvalues --    3.28404   3.28466   3.29503   3.31335   3.31922
 Alpha virt. eigenvalues --    3.32258   3.32929   3.33239   3.33906   3.35731
 Alpha virt. eigenvalues --    3.35855   3.36729   3.37657   3.38799   3.39952
 Alpha virt. eigenvalues --    3.40268   3.40396   3.40658   3.41470   3.42005
 Alpha virt. eigenvalues --    3.42142   3.42745   3.43127   3.44071   3.44204
 Alpha virt. eigenvalues --    3.44832   3.45207   3.45947   3.46398   3.47146
 Alpha virt. eigenvalues --    3.47646   3.48238   3.49163   3.49668   3.50461
 Alpha virt. eigenvalues --    3.50979   3.52236   3.52858   3.53234   3.53663
 Alpha virt. eigenvalues --    3.54208   3.54465   3.55520   3.56275   3.56455
 Alpha virt. eigenvalues --    3.56944   3.57452   3.57947   3.58614   3.59757
 Alpha virt. eigenvalues --    3.60125   3.60392   3.61406   3.61811   3.62304
 Alpha virt. eigenvalues --    3.63055   3.63116   3.63680   3.64249   3.65178
 Alpha virt. eigenvalues --    3.65335   3.66026   3.66676   3.67013   3.67437
 Alpha virt. eigenvalues --    3.67732   3.68719   3.69071   3.69800   3.71085
 Alpha virt. eigenvalues --    3.71475   3.71759   3.71987   3.72497   3.73033
 Alpha virt. eigenvalues --    3.73493   3.73998   3.74694   3.74804   3.75574
 Alpha virt. eigenvalues --    3.75813   3.76257   3.76424   3.76915   3.77837
 Alpha virt. eigenvalues --    3.78109   3.78707   3.79955   3.80705   3.80854
 Alpha virt. eigenvalues --    3.81292   3.81487   3.81776   3.82590   3.83313
 Alpha virt. eigenvalues --    3.83936   3.84801   3.84965   3.85713   3.85765
 Alpha virt. eigenvalues --    3.86034   3.86812   3.87288   3.87613   3.88347
 Alpha virt. eigenvalues --    3.88830   3.89355   3.89728   3.90350   3.90976
 Alpha virt. eigenvalues --    3.91307   3.91595   3.92077   3.92688   3.93277
 Alpha virt. eigenvalues --    3.94127   3.94735   3.95064   3.95301   3.96099
 Alpha virt. eigenvalues --    3.96200   3.97047   3.97272   3.98089   3.98436
 Alpha virt. eigenvalues --    3.99471   3.99777   4.00496   4.01009   4.01212
 Alpha virt. eigenvalues --    4.02053   4.02436   4.02698   4.03367   4.04006
 Alpha virt. eigenvalues --    4.04469   4.05064   4.05753   4.05880   4.06769
 Alpha virt. eigenvalues --    4.07240   4.08195   4.08656   4.09316   4.09629
 Alpha virt. eigenvalues --    4.10826   4.11913   4.12428   4.12866   4.13261
 Alpha virt. eigenvalues --    4.13725   4.13926   4.15346   4.15509   4.16332
 Alpha virt. eigenvalues --    4.17265   4.17842   4.18149   4.18807   4.19009
 Alpha virt. eigenvalues --    4.19311   4.19637   4.20307   4.20817   4.21402
 Alpha virt. eigenvalues --    4.21698   4.22459   4.22540   4.23660   4.23938
 Alpha virt. eigenvalues --    4.24625   4.24715   4.25276   4.25701   4.26154
 Alpha virt. eigenvalues --    4.27248   4.27897   4.28269   4.28740   4.29490
 Alpha virt. eigenvalues --    4.30106   4.30472   4.30997   4.31929   4.32135
 Alpha virt. eigenvalues --    4.32831   4.33533   4.33869   4.34831   4.35228
 Alpha virt. eigenvalues --    4.35381   4.36212   4.36604   4.37438   4.38369
 Alpha virt. eigenvalues --    4.39102   4.39412   4.39638   4.39932   4.41131
 Alpha virt. eigenvalues --    4.42585   4.43283   4.43688   4.45102   4.45682
 Alpha virt. eigenvalues --    4.46066   4.47204   4.48020   4.48660   4.49473
 Alpha virt. eigenvalues --    4.49628   4.50353   4.51122   4.51700   4.52007
 Alpha virt. eigenvalues --    4.52426   4.54316   4.55172   4.55596   4.56814
 Alpha virt. eigenvalues --    4.57184   4.57520   4.58583   4.59096   4.60048
 Alpha virt. eigenvalues --    4.60336   4.61227   4.62065   4.63029   4.63520
 Alpha virt. eigenvalues --    4.64405   4.64799   4.65611   4.65789   4.66501
 Alpha virt. eigenvalues --    4.67878   4.68174   4.69273   4.69652   4.70206
 Alpha virt. eigenvalues --    4.70948   4.71867   4.72238   4.73106   4.73678
 Alpha virt. eigenvalues --    4.73829   4.74722   4.75672   4.76633   4.77218
 Alpha virt. eigenvalues --    4.78126   4.78700   4.79480   4.79644   4.80525
 Alpha virt. eigenvalues --    4.80844   4.81462   4.81988   4.82969   4.83185
 Alpha virt. eigenvalues --    4.83524   4.83803   4.84145   4.85687   4.86138
 Alpha virt. eigenvalues --    4.86537   4.88644   4.89804   4.91186   4.91842
 Alpha virt. eigenvalues --    4.92729   4.93092   4.94430   4.94699   4.95692
 Alpha virt. eigenvalues --    4.96508   4.96740   4.97778   4.98011   4.99015
 Alpha virt. eigenvalues --    5.00834   5.01652   5.02704   5.02950   5.03796
 Alpha virt. eigenvalues --    5.04672   5.05360   5.07260   5.07758   5.08956
 Alpha virt. eigenvalues --    5.09830   5.10280   5.10793   5.11439   5.12021
 Alpha virt. eigenvalues --    5.12489   5.13056   5.13583   5.14049   5.15196
 Alpha virt. eigenvalues --    5.15628   5.16624   5.17244   5.17786   5.18676
 Alpha virt. eigenvalues --    5.19355   5.20504   5.21451   5.21717   5.22130
 Alpha virt. eigenvalues --    5.22839   5.24521   5.25148   5.25416   5.25529
 Alpha virt. eigenvalues --    5.26990   5.27148   5.27575   5.27867   5.28615
 Alpha virt. eigenvalues --    5.29459   5.30055   5.30214   5.30587   5.31660
 Alpha virt. eigenvalues --    5.34475   5.35167   5.35894   5.36230   5.38168
 Alpha virt. eigenvalues --    5.38785   5.41070   5.41478   5.42937   5.43837
 Alpha virt. eigenvalues --    5.44995   5.46641   5.47146   5.49081   5.49773
 Alpha virt. eigenvalues --    5.50701   5.51560   5.52388   5.56070   5.56719
 Alpha virt. eigenvalues --    5.57304   5.58085   5.58283   5.59503   5.60097
 Alpha virt. eigenvalues --    5.60813   5.61507   5.62747   5.63749   5.64791
 Alpha virt. eigenvalues --    5.67111   5.67547   5.67652   5.68776   5.69281
 Alpha virt. eigenvalues --    5.70323   5.70406   5.73213   5.74095   5.75323
 Alpha virt. eigenvalues --    5.76496   5.77762   5.77810   5.79730   5.80159
 Alpha virt. eigenvalues --    5.82181   5.82406   5.83139   5.83796   5.84029
 Alpha virt. eigenvalues --    5.84677   5.85421   5.86683   5.89705   5.91428
 Alpha virt. eigenvalues --    5.91666   5.93517   5.95455   5.95927   5.98265
 Alpha virt. eigenvalues --    5.98675   5.99648   6.00776   6.02418   6.05318
 Alpha virt. eigenvalues --    6.05926   6.08271   6.08737   6.11076   6.12407
 Alpha virt. eigenvalues --    6.13753   6.14038   6.15673   6.16407   6.17749
 Alpha virt. eigenvalues --    6.18326   6.19605   6.21000   6.22863   6.24022
 Alpha virt. eigenvalues --    6.24999   6.28503   6.29395   6.31137   6.33009
 Alpha virt. eigenvalues --    6.35605   6.36123   6.37246   6.39817   6.41099
 Alpha virt. eigenvalues --    6.43744   6.46891   6.47760   6.53431   6.59294
 Alpha virt. eigenvalues --    6.64022   6.67354   6.69950   6.70310   6.71337
 Alpha virt. eigenvalues --    6.71979   6.75100   6.76221   6.78004   6.78718
 Alpha virt. eigenvalues --    6.79994   6.80954   6.82632   6.83082   6.87270
 Alpha virt. eigenvalues --    6.90268   6.91010   6.92427   6.93179   6.95722
 Alpha virt. eigenvalues --    6.98099   7.00829   7.01769   7.03367   7.06998
 Alpha virt. eigenvalues --    7.07348   7.10045   7.10381   7.13164   7.13391
 Alpha virt. eigenvalues --    7.16855   7.18043   7.18734   7.22850   7.23606
 Alpha virt. eigenvalues --    7.24516   7.29630   7.33668   7.36399   7.37281
 Alpha virt. eigenvalues --    7.38265   7.38566   7.40038   7.44552   7.47462
 Alpha virt. eigenvalues --    7.48927   7.51995   7.65220   7.66089   7.68262
 Alpha virt. eigenvalues --    7.69919   7.72625   7.76503   7.79516   7.88629
 Alpha virt. eigenvalues --    7.95415   7.99273   8.01758   8.08250   8.10044
 Alpha virt. eigenvalues --    8.13771   8.32124   8.45087   8.54128   8.82940
 Alpha virt. eigenvalues --    8.85016   8.87197   8.89174   8.90109   8.94187
 Alpha virt. eigenvalues --    9.04262   9.05150   9.17484   9.18993   9.19286
 Alpha virt. eigenvalues --    9.23540   9.23673   9.25600   9.28343   9.30761
 Alpha virt. eigenvalues --    9.32723   9.33535   9.35847   9.37350   9.38700
 Alpha virt. eigenvalues --    9.39101   9.42087   9.45490   9.47688   9.49578
 Alpha virt. eigenvalues --    9.53898   9.57371   9.59294   9.60407   9.67480
 Alpha virt. eigenvalues --    9.79930   9.81217   9.88184  10.03288  10.07843
 Alpha virt. eigenvalues --   15.28217  15.76538  15.92269  16.06416  16.29504
 Alpha virt. eigenvalues --   16.29968  16.76725  16.92845  17.42910  17.78240
 Alpha virt. eigenvalues --   18.13869  18.40589  18.57749  18.73801  18.92159
 Alpha virt. eigenvalues --   19.67220  19.75292  20.01184  20.91941  21.21002
 Alpha virt. eigenvalues --   21.72895  22.22475
          Condensed to atoms (all electrons):
               1          2          3          4          5          6
     1  C   10.881929  -0.198862  -0.999658   0.181560   0.011513  -0.002033
     2  N   -0.198862   9.377799   0.540845  -0.108728  -0.921131  -0.204248
     3  C   -0.999658   0.540845   7.251032   0.278411   0.002458  -0.557155
     4  O    0.181560  -0.108728   0.278411   9.201554  -0.218304   0.018899
     5  N    0.011513  -0.921131   0.002458  -0.218304   8.663112   0.512232
     6  C   -0.002033  -0.204248  -0.557155   0.018899   0.512232   6.539493
     7  C   -0.005570  -0.000875   0.044573  -0.004767   0.007767  -0.061286
     8  C   -0.000466   0.004976   0.000452   0.000584  -0.021153  -0.013010
     9  C   -1.258683  -0.489372   0.191992  -0.158678  -0.131869  -0.023097
    10  C   -0.116131   0.092860  -0.070049   0.026845   0.025605  -0.006872
    11  C   -0.257464  -0.008799   0.030362  -0.000375  -0.004659   0.002612
    12  C   -0.252456   0.114374  -0.054980   0.009549   0.015949  -0.000095
    13  C   -0.957260  -0.142211   0.042492   0.018074  -0.070253  -0.008588
    14  H   -0.403997  -0.652863  -0.415378  -0.006770   0.368308   0.006906
    15  H   -0.113199   0.258222  -0.202815  -0.072733  -0.789239  -0.420806
    16  H    0.000878   0.002607  -0.063482  -0.019901  -0.106019   0.370381
    17  H   -0.003131   0.000299  -0.063617   0.016375  -0.010110   0.431011
    18  H    0.001477   0.000866   0.006081  -0.003205  -0.036737   0.002777
    19  H   -0.002828   0.002980   0.005764   0.003173  -0.026886  -0.013780
    20  H    0.000197   0.000465   0.002782  -0.000621   0.005520  -0.015668
    21  H   -0.000046  -0.000122   0.000897   0.000115  -0.000495  -0.002074
    22  H    0.000269   0.000099   0.003673   0.000476   0.005116  -0.014681
    23  H   -0.667335  -0.113191   0.040950  -0.177272  -0.002678  -0.017778
    24  Cl   0.051139  -0.010140   0.008275  -0.000267  -0.000398   0.000379
    25  H   -0.300967   0.051108   0.014788  -0.003418   0.024391   0.006754
    26  C    0.011171  -0.011598   0.000707  -0.000281  -0.001060  -0.000926
    27  H    0.017527  -0.012552  -0.001632   0.000278  -0.000765   0.000065
    28  F    0.002902  -0.002283   0.003581   0.001808   0.000445   0.000322
    29  F   -0.013929   0.002847   0.001147   0.000044   0.000106   0.000061
    30  F   -0.003123   0.003506   0.000825  -0.001464  -0.000126  -0.000171
    31  O    0.014685  -0.075658   0.004649  -0.002014  -0.005515  -0.015489
    32  O    0.017383  -0.011084  -0.000770  -0.003446  -0.039563  -0.043486
    33  C   -0.054503  -0.057949  -0.008743  -0.003294  -0.001663   0.015036
    34  C    0.002029  -0.016963  -0.012558  -0.000795   0.005717   0.012205
    35  C   -0.001254  -0.001887  -0.001333  -0.000004   0.000071  -0.001050
    36  H    0.001090  -0.004159  -0.000920  -0.000038   0.003003   0.001224
    37  H    0.001128  -0.004169  -0.001070  -0.000037   0.002837   0.001390
    38  H   -0.000268  -0.000003  -0.000366   0.000016  -0.000647   0.000595
    39  H   -0.000087   0.000188   0.000274   0.000001  -0.000429  -0.000671
    40  H   -0.000052  -0.000055  -0.000313  -0.000007   0.000569   0.000070
               7          8          9         10         11         12
     1  C   -0.005570  -0.000466  -1.258683  -0.116131  -0.257464  -0.252456
     2  N   -0.000875   0.004976  -0.489372   0.092860  -0.008799   0.114374
     3  C    0.044573   0.000452   0.191992  -0.070049   0.030362  -0.054980
     4  O   -0.004767   0.000584  -0.158678   0.026845  -0.000375   0.009549
     5  N    0.007767  -0.021153  -0.131869   0.025605  -0.004659   0.015949
     6  C   -0.061286  -0.013010  -0.023097  -0.006872   0.002612  -0.000095
     7  C    5.702900   0.041235  -0.005914   0.000545   0.000008   0.000315
     8  C    0.041235   5.868460  -0.000131  -0.000047   0.000027  -0.000041
     9  C   -0.005914  -0.000131   9.317966  -0.898591   0.038614  -0.021146
    10  C    0.000545  -0.000047  -0.898591   7.916559  -0.965781  -0.037347
    11  C    0.000008   0.000027   0.038614  -0.965781   8.510144  -0.213016
    12  C    0.000315  -0.000041  -0.021146  -0.037347  -0.213016   6.697697
    13  C    0.003206   0.000507  -0.209206  -0.104769  -0.078860  -0.079342
    14  H    0.004045  -0.001212   0.049737  -0.032555   0.037637  -0.013726
    15  H   -0.006835   0.005775   0.044387  -0.004267  -0.001126  -0.001522
    16  H   -0.025647  -0.016016   0.000990  -0.000676   0.000174  -0.000152
    17  H   -0.003255  -0.008619   0.003239  -0.001337   0.000144   0.000022
    18  H    0.327409  -0.040147  -0.001870   0.000012   0.000061   0.000089
    19  H    0.406818  -0.038409   0.000136  -0.000113   0.000019   0.000079
    20  H    0.028096   0.379062  -0.000081   0.000040  -0.000004   0.000005
    21  H   -0.032860   0.458252   0.000018  -0.000006   0.000002  -0.000007
    22  H    0.017728   0.392652   0.000058   0.000017  -0.000000   0.000010
    23  H   -0.001930  -0.000179   0.409748  -0.283384   0.056188  -0.034375
    24  Cl  -0.000037   0.000000  -0.002819   0.009658  -0.200730   0.035895
    25  H   -0.001481  -0.000151   0.046575   0.018075   0.005594  -0.364609
    26  C   -0.000043   0.000012  -0.160728  -0.371704  -0.219312   0.030756
    27  H    0.000004   0.000002  -0.053406  -0.051877   0.217741  -0.282086
    28  F    0.000009   0.000001   0.003227  -0.022157  -0.000087   0.007820
    29  F   -0.000001   0.000000   0.011430   0.057050  -0.019638   0.010850
    30  F    0.000003   0.000001   0.031446   0.058998  -0.034747   0.008362
    31  O    0.005865   0.001685  -0.023295   0.005352  -0.006606   0.027507
    32  O   -0.007915  -0.000167  -0.000201   0.003684  -0.001348  -0.000682
    33  C   -0.004336  -0.001579  -0.002838  -0.003024   0.003207   0.009122
    34  C   -0.001609  -0.000286  -0.000485  -0.001958   0.001690   0.002202
    35  C    0.002399  -0.000215  -0.000227  -0.000008   0.000080   0.000326
    36  H   -0.000440  -0.000071   0.000056  -0.000478   0.000558   0.000736
    37  H   -0.000682  -0.000102   0.000060  -0.000394   0.000408   0.000957
    38  H   -0.000337   0.000251  -0.000026   0.000001   0.000008  -0.000022
    39  H    0.000345  -0.000017  -0.000013   0.000018  -0.000012  -0.000007
    40  H   -0.000493  -0.000105  -0.000041  -0.000024   0.000021  -0.000000
              13         14         15         16         17         18
     1  C   -0.957260  -0.403997  -0.113199   0.000878  -0.003131   0.001477
     2  N   -0.142211  -0.652863   0.258222   0.002607   0.000299   0.000866
     3  C    0.042492  -0.415378  -0.202815  -0.063482  -0.063617   0.006081
     4  O    0.018074  -0.006770  -0.072733  -0.019901   0.016375  -0.003205
     5  N   -0.070253   0.368308  -0.789239  -0.106019  -0.010110  -0.036737
     6  C   -0.008588   0.006906  -0.420806   0.370381   0.431011   0.002777
     7  C    0.003206   0.004045  -0.006835  -0.025647  -0.003255   0.327409
     8  C    0.000507  -0.001212   0.005775  -0.016016  -0.008619  -0.040147
     9  C   -0.209206   0.049737   0.044387   0.000990   0.003239  -0.001870
    10  C   -0.104769  -0.032555  -0.004267  -0.000676  -0.001337   0.000012
    11  C   -0.078860   0.037637  -0.001126   0.000174   0.000144   0.000061
    12  C   -0.079342  -0.013726  -0.001522  -0.000152   0.000022   0.000089
    13  C    9.042523  -0.346061   0.024086  -0.000145  -0.001037  -0.000567
    14  H   -0.346061   2.001841  -0.147275   0.007872  -0.002885   0.005184
    15  H    0.024086  -0.147275   1.726877   0.048242  -0.022433   0.010731
    16  H   -0.000145   0.007872   0.048242   0.454304   0.003498   0.018576
    17  H   -0.001037  -0.002885  -0.022433   0.003498   0.434718  -0.014146
    18  H   -0.000567   0.005184   0.010731   0.018576  -0.014146   0.439408
    19  H    0.000237  -0.001823  -0.003892  -0.019161   0.018874   0.008840
    20  H    0.000106  -0.000215   0.000777  -0.006800  -0.011198   0.004791
    21  H    0.000018  -0.000327   0.001846  -0.001352   0.000237  -0.016164
    22  H   -0.000008  -0.000097  -0.001562  -0.011076  -0.005251  -0.002339
    23  H   -0.014835  -0.010575   0.007964  -0.001674   0.000013  -0.000351
    24  Cl  -0.015346  -0.010474   0.001283   0.000022   0.000020  -0.000020
    25  H   -0.166771  -0.075856  -0.001422   0.000410   0.000351  -0.000784
    26  C   -0.008563   0.000952   0.000522  -0.000085  -0.000101  -0.000009
    27  H    0.018800  -0.002228   0.000236  -0.000023  -0.000007  -0.000001
    28  F   -0.008034   0.000648  -0.000061   0.000006   0.000016   0.000004
    29  F   -0.002672   0.000241  -0.000021   0.000008   0.000007  -0.000000
    30  F   -0.007545   0.001790  -0.000413   0.000045   0.000010   0.000004
    31  O    0.070954  -0.172720  -0.075866  -0.000313  -0.001467   0.000015
    32  O    0.016465  -0.002221  -0.175056   0.001158  -0.000141  -0.008770
    33  C   -0.000965   0.023176  -0.012043   0.002615  -0.000087   0.001623
    34  C   -0.017588   0.016923   0.017891   0.000749   0.000755   0.003660
    35  C    0.000835   0.004094  -0.004856   0.000028   0.000149  -0.000908
    36  H   -0.007862  -0.001591   0.004504   0.000074   0.000071   0.000086
    37  H   -0.008705   0.000688   0.004604   0.000060   0.000119   0.000059
    38  H    0.000182   0.001849  -0.002171   0.000007  -0.000011  -0.000065
    39  H    0.000445  -0.000598   0.001598  -0.000012  -0.000026  -0.000177
    40  H   -0.000026   0.000755  -0.000239  -0.000002  -0.000038   0.000339
              19         20         21         22         23         24
     1  C   -0.002828   0.000197  -0.000046   0.000269  -0.667335   0.051139
     2  N    0.002980   0.000465  -0.000122   0.000099  -0.113191  -0.010140
     3  C    0.005764   0.002782   0.000897   0.003673   0.040950   0.008275
     4  O    0.003173  -0.000621   0.000115   0.000476  -0.177272  -0.000267
     5  N   -0.026886   0.005520  -0.000495   0.005116  -0.002678  -0.000398
     6  C   -0.013780  -0.015668  -0.002074  -0.014681  -0.017778   0.000379
     7  C    0.406818   0.028096  -0.032860   0.017728  -0.001930  -0.000037
     8  C   -0.038409   0.379062   0.458252   0.392652  -0.000179   0.000000
     9  C    0.000136  -0.000081   0.000018   0.000058   0.409748  -0.002819
    10  C   -0.000113   0.000040  -0.000006   0.000017  -0.283384   0.009658
    11  C    0.000019  -0.000004   0.000002  -0.000000   0.056188  -0.200730
    12  C    0.000079   0.000005  -0.000007   0.000010  -0.034375   0.035895
    13  C    0.000237   0.000106   0.000018  -0.000008  -0.014835  -0.015346
    14  H   -0.001823  -0.000215  -0.000327  -0.000097  -0.010575  -0.010474
    15  H   -0.003892   0.000777   0.001846  -0.001562   0.007964   0.001283
    16  H   -0.019161  -0.006800  -0.001352  -0.011076  -0.001674   0.000022
    17  H    0.018874  -0.011198   0.000237  -0.005251   0.000013   0.000020
    18  H    0.008840   0.004791  -0.016164  -0.002339  -0.000351  -0.000020
    19  H    0.443530  -0.002260  -0.004465   0.002309  -0.000037   0.000010
    20  H   -0.002260   0.334443  -0.004122   0.017221   0.000039  -0.000000
    21  H   -0.004465  -0.004122   0.328958   0.002606  -0.000014   0.000000
    22  H    0.002309   0.017221   0.002606   0.322982   0.000045  -0.000001
    23  H   -0.000037   0.000039  -0.000014   0.000045   1.435819  -0.001153
    24  Cl   0.000010  -0.000000   0.000000  -0.000001  -0.001153  17.674865
    25  H   -0.000025   0.000012   0.000001  -0.000017   0.006148  -0.026603
    26  C   -0.000012   0.000003   0.000000   0.000002  -0.061558  -0.004274
    27  H    0.000002   0.000000   0.000000   0.000000  -0.003236  -0.051808
    28  F   -0.000003  -0.000001   0.000000   0.000001  -0.018493  -0.000009
    29  F    0.000001  -0.000000   0.000000  -0.000000   0.000404  -0.000304
    30  F    0.000002   0.000000  -0.000000  -0.000001  -0.022365  -0.000023
    31  O    0.000149   0.000151   0.000168   0.000014  -0.002564   0.006371
    32  O   -0.001712   0.000234   0.000757  -0.000396   0.001326  -0.000223
    33  C   -0.001534  -0.000131  -0.000232  -0.000178  -0.001925   0.005421
    34  C    0.000747  -0.000103  -0.000178  -0.000023  -0.000275  -0.000406
    35  C    0.000005   0.000009   0.000089  -0.000047  -0.000001   0.000049
    36  H    0.000115  -0.000016  -0.000019  -0.000003  -0.000039   0.000013
    37  H    0.000154  -0.000023  -0.000016  -0.000002  -0.000033  -0.000038
    38  H   -0.000026   0.000030  -0.000003   0.000016  -0.000013  -0.000000
    39  H   -0.000015   0.000005   0.000021  -0.000008   0.000008   0.000016
    40  H   -0.000020  -0.000014  -0.000004  -0.000003  -0.000008   0.000002
              25         26         27         28         29         30
     1  C   -0.300967   0.011171   0.017527   0.002902  -0.013929  -0.003123
     2  N    0.051108  -0.011598  -0.012552  -0.002283   0.002847   0.003506
     3  C    0.014788   0.000707  -0.001632   0.003581   0.001147   0.000825
     4  O   -0.003418  -0.000281   0.000278   0.001808   0.000044  -0.001464
     5  N    0.024391  -0.001060  -0.000765   0.000445   0.000106  -0.000126
     6  C    0.006754  -0.000926   0.000065   0.000322   0.000061  -0.000171
     7  C   -0.001481  -0.000043   0.000004   0.000009  -0.000001   0.000003
     8  C   -0.000151   0.000012   0.000002   0.000001   0.000000   0.000001
     9  C    0.046575  -0.160728  -0.053406   0.003227   0.011430   0.031446
    10  C    0.018075  -0.371704  -0.051877  -0.022157   0.057050   0.058998
    11  C    0.005594  -0.219312   0.217741  -0.000087  -0.019638  -0.034747
    12  C   -0.364609   0.030756  -0.282086   0.007820   0.010850   0.008362
    13  C   -0.166771  -0.008563   0.018800  -0.008034  -0.002672  -0.007545
    14  H   -0.075856   0.000952  -0.002228   0.000648   0.000241   0.001790
    15  H   -0.001422   0.000522   0.000236  -0.000061  -0.000021  -0.000413
    16  H    0.000410  -0.000085  -0.000023   0.000006   0.000008   0.000045
    17  H    0.000351  -0.000101  -0.000007   0.000016   0.000007   0.000010
    18  H   -0.000784  -0.000009  -0.000001   0.000004  -0.000000   0.000004
    19  H   -0.000025  -0.000012   0.000002  -0.000003   0.000001   0.000002
    20  H    0.000012   0.000003   0.000000  -0.000001  -0.000000   0.000000
    21  H    0.000001   0.000000   0.000000   0.000000   0.000000  -0.000000
    22  H   -0.000017   0.000002   0.000000   0.000001  -0.000000  -0.000001
    23  H    0.006148  -0.061558  -0.003236  -0.018493   0.000404  -0.022365
    24  Cl  -0.026603  -0.004274  -0.051808  -0.000009  -0.000304  -0.000023
    25  H    1.131326  -0.000408  -0.017824  -0.000427  -0.000084  -0.000043
    26  C   -0.000408   5.086877  -0.028855   0.185999   0.133005   0.169843
    27  H   -0.017824  -0.028855   0.830217   0.008616  -0.000384  -0.003775
    28  F   -0.000427   0.185999   0.008616   9.325439  -0.054405  -0.028690
    29  F   -0.000084   0.133005  -0.000384  -0.054405   9.331206  -0.063252
    30  F   -0.000043   0.169843  -0.003775  -0.028690  -0.063252   9.298799
    31  O   -0.070537  -0.000504   0.000479   0.000029   0.000006  -0.000075
    32  O    0.000566  -0.000082  -0.000023  -0.000002  -0.000000  -0.000002
    33  C    0.026016  -0.000483   0.000425  -0.000037   0.000012  -0.000023
    34  C   -0.009953  -0.000022   0.000027   0.000002   0.000001   0.000000
    35  C    0.000585  -0.000006   0.000001  -0.000000   0.000000  -0.000000
    36  H    0.002455  -0.000010   0.000007  -0.000000  -0.000000   0.000001
    37  H    0.002642  -0.000003  -0.000006   0.000001   0.000000  -0.000000
    38  H   -0.000064   0.000001   0.000001   0.000000   0.000000  -0.000000
    39  H    0.000229  -0.000001  -0.000000  -0.000000   0.000000  -0.000000
    40  H   -0.000128   0.000000   0.000001  -0.000000   0.000000   0.000000
              31         32         33         34         35         36
     1  C    0.014685   0.017383  -0.054503   0.002029  -0.001254   0.001090
     2  N   -0.075658  -0.011084  -0.057949  -0.016963  -0.001887  -0.004159
     3  C    0.004649  -0.000770  -0.008743  -0.012558  -0.001333  -0.000920
     4  O   -0.002014  -0.003446  -0.003294  -0.000795  -0.000004  -0.000038
     5  N   -0.005515  -0.039563  -0.001663   0.005717   0.000071   0.003003
     6  C   -0.015489  -0.043486   0.015036   0.012205  -0.001050   0.001224
     7  C    0.005865  -0.007915  -0.004336  -0.001609   0.002399  -0.000440
     8  C    0.001685  -0.000167  -0.001579  -0.000286  -0.000215  -0.000071
     9  C   -0.023295  -0.000201  -0.002838  -0.000485  -0.000227   0.000056
    10  C    0.005352   0.003684  -0.003024  -0.001958  -0.000008  -0.000478
    11  C   -0.006606  -0.001348   0.003207   0.001690   0.000080   0.000558
    12  C    0.027507  -0.000682   0.009122   0.002202   0.000326   0.000736
    13  C    0.070954   0.016465  -0.000965  -0.017588   0.000835  -0.007862
    14  H   -0.172720  -0.002221   0.023176   0.016923   0.004094  -0.001591
    15  H   -0.075866  -0.175056  -0.012043   0.017891  -0.004856   0.004504
    16  H   -0.000313   0.001158   0.002615   0.000749   0.000028   0.000074
    17  H   -0.001467  -0.000141  -0.000087   0.000755   0.000149   0.000071
    18  H    0.000015  -0.008770   0.001623   0.003660  -0.000908   0.000086
    19  H    0.000149  -0.001712  -0.001534   0.000747   0.000005   0.000115
    20  H    0.000151   0.000234  -0.000131  -0.000103   0.000009  -0.000016
    21  H    0.000168   0.000757  -0.000232  -0.000178   0.000089  -0.000019
    22  H    0.000014  -0.000396  -0.000178  -0.000023  -0.000047  -0.000003
    23  H   -0.002564   0.001326  -0.001925  -0.000275  -0.000001  -0.000039
    24  Cl   0.006371  -0.000223   0.005421  -0.000406   0.000049   0.000013
    25  H   -0.070537   0.000566   0.026016  -0.009953   0.000585   0.002455
    26  C   -0.000504  -0.000082  -0.000483  -0.000022  -0.000006  -0.000010
    27  H    0.000479  -0.000023   0.000425   0.000027   0.000001   0.000007
    28  F    0.000029  -0.000002  -0.000037   0.000002  -0.000000  -0.000000
    29  F    0.000006  -0.000000   0.000012   0.000001   0.000000  -0.000000
    30  F   -0.000075  -0.000002  -0.000023   0.000000  -0.000000   0.000001
    31  O    9.250755   0.032300   0.380315  -0.291000  -0.012928  -0.045297
    32  O    0.032300   8.993808   0.317680  -0.153654  -0.035622  -0.033449
    33  C    0.380315   0.317680   5.262113  -0.491941   0.027815  -0.044984
    34  C   -0.291000  -0.153654  -0.491941   6.097607   0.091052   0.498012
    35  C   -0.012928  -0.035622   0.027815   0.091052   5.753703  -0.040321
    36  H   -0.045297  -0.033449  -0.044984   0.498012  -0.040321   0.426972
    37  H   -0.060202  -0.037780  -0.050972   0.512106  -0.040376   0.056941
    38  H    0.002022   0.009501  -0.010021   0.036887   0.362467  -0.001553
    39  H    0.001212  -0.012121   0.020116  -0.060819   0.460384  -0.012894
    40  H    0.001832   0.014846  -0.014776   0.037194   0.361808   0.000511
              37         38         39         40
     1  C    0.001128  -0.000268  -0.000087  -0.000052
     2  N   -0.004169  -0.000003   0.000188  -0.000055
     3  C   -0.001070  -0.000366   0.000274  -0.000313
     4  O   -0.000037   0.000016   0.000001  -0.000007
     5  N    0.002837  -0.000647  -0.000429   0.000569
     6  C    0.001390   0.000595  -0.000671   0.000070
     7  C   -0.000682  -0.000337   0.000345  -0.000493
     8  C   -0.000102   0.000251  -0.000017  -0.000105
     9  C    0.000060  -0.000026  -0.000013  -0.000041
    10  C   -0.000394   0.000001   0.000018  -0.000024
    11  C    0.000408   0.000008  -0.000012   0.000021
    12  C    0.000957  -0.000022  -0.000007  -0.000000
    13  C   -0.008705   0.000182   0.000445  -0.000026
    14  H    0.000688   0.001849  -0.000598   0.000755
    15  H    0.004604  -0.002171   0.001598  -0.000239
    16  H    0.000060   0.000007  -0.000012  -0.000002
    17  H    0.000119  -0.000011  -0.000026  -0.000038
    18  H    0.000059  -0.000065  -0.000177   0.000339
    19  H    0.000154  -0.000026  -0.000015  -0.000020
    20  H   -0.000023   0.000030   0.000005  -0.000014
    21  H   -0.000016  -0.000003   0.000021  -0.000004
    22  H   -0.000002   0.000016  -0.000008  -0.000003
    23  H   -0.000033  -0.000013   0.000008  -0.000008
    24  Cl  -0.000038  -0.000000   0.000016   0.000002
    25  H    0.002642  -0.000064   0.000229  -0.000128
    26  C   -0.000003   0.000001  -0.000001   0.000000
    27  H   -0.000006   0.000001  -0.000000   0.000001
    28  F    0.000001   0.000000  -0.000000  -0.000000
    29  F    0.000000   0.000000   0.000000   0.000000
    30  F   -0.000000  -0.000000  -0.000000   0.000000
    31  O   -0.060202   0.002022   0.001212   0.001832
    32  O   -0.037780   0.009501  -0.012121   0.014846
    33  C   -0.050972  -0.010021   0.020116  -0.014776
    34  C    0.512106   0.036887  -0.060819   0.037194
    35  C   -0.040376   0.362467   0.460384   0.361808
[...]
  1213. RY*(  39) C  33                  0.00000     9.14729   
  1214. RY*(  40) C  33                  0.00000     4.05118   
  1215. RY*(  41) C  33                  0.00000     4.61284   
  1216. RY*(   1) C  34                  0.00265     1.78231   
  1217. RY*(   2) C  34                  0.00181     2.36432   
  1218. RY*(   3) C  34                  0.00177     1.64292   
  1219. RY*(   4) C  34                  0.00095     1.47183   
  1220. RY*(   5) C  34                  0.00045     1.36092   
  1221. RY*(   6) C  34                  0.00030     1.98070   
  1222. RY*(   7) C  34                  0.00026     2.02381   
  1223. RY*(   8) C  34                  0.00019     1.85246   
  1224. RY*(   9) C  34                  0.00009     1.56424   
  1225. RY*(  10) C  34                  0.00009     3.62036   
  1226. RY*(  11) C  34                  0.00001     3.11332   
  1227. RY*(  12) C  34                  0.00000     1.55274   
  1228. RY*(  13) C  34                  0.00000     1.83414   
  1229. RY*(  14) C  34                  0.00001     3.60469   
  1230. RY*(  15) C  34                  0.00000     1.88337   
  1231. RY*(  16) C  34                  0.00001     1.44417   
  1232. RY*(  17) C  34                  0.00000     3.35539   
  1233. RY*(  18) C  34                  0.00000     2.48712   
  1234. RY*(  19) C  34                  0.00000     2.84794   
  1235. RY*(  20) C  34                  0.00000     2.34778   
  1236. RY*(  21) C  34                  0.00000     2.37638   
  1237. RY*(  22) C  34                  0.00000     2.32346   
  1238. RY*(  23) C  34                  0.00000     3.82890   
  1239. RY*(  24) C  34                  0.00000     2.28500   
  1240. RY*(  25) C  34                  0.00000     1.10422   
  1241. RY*(  26) C  34                  0.00000     3.88657   
  1242. RY*(  27) C  34                  0.00000     6.72308   
  1243. RY*(  28) C  34                  0.00000     4.23245   
  1244. RY*(  29) C  34                  0.00000     2.62604   
  1245. RY*(  30) C  34                  0.00000     4.31460   
  1246. RY*(  31) C  34                  0.00000     3.82557   
  1247. RY*(  32) C  34                  0.00000     4.52015   
  1248. RY*(  33) C  34                  0.00000     2.86567   
  1249. RY*(  34) C  34                  0.00000     4.17981   
  1250. RY*(  35) C  34                  0.00000     2.76455   
  1251. RY*(  36) C  34                  0.00000     4.25957   
  1252. RY*(  37) C  34                  0.00000     3.12153   
  1253. RY*(  38) C  34                  0.00000     4.33320   
  1254. RY*(  39) C  34                  0.00000     3.93370   
  1255. RY*(  40) C  34                  0.00000     4.32801   
  1256. RY*(  41) C  34                  0.00000     3.03344   
  1257. RY*(   1) C  35                  0.00191     1.66486   
  1258. RY*(   2) C  35                  0.00074     1.92354   
  1259. RY*(   3) C  35                  0.00033     2.08395   
  1260. RY*(   4) C  35                  0.00016     2.43309   
  1261. RY*(   5) C  35                  0.00009     1.45113   
  1262. RY*(   6) C  35                  0.00006     1.81993   
  1263. RY*(   7) C  35                  0.00003     3.65945   
  1264. RY*(   8) C  35                  0.00004     1.81674   
  1265. RY*(   9) C  35                  0.00000     1.76493   
  1266. RY*(  10) C  35                  0.00000     2.28838   
  1267. RY*(  11) C  35                  0.00000     2.11937   
  1268. RY*(  12) C  35                  0.00000     1.56792   
  1269. RY*(  13) C  35                  0.00000     1.55312   
  1270. RY*(  14) C  35                  0.00000     2.89457   
  1271. RY*(  15) C  35                  0.00000     3.07962   
  1272. RY*(  16) C  35                  0.00000     2.53359   
  1273. RY*(  17) C  35                  0.00000     3.11242   
  1274. RY*(  18) C  35                  0.00000     2.81355   
  1275. RY*(  19) C  35                  0.00000     5.06606   
  1276. RY*(  20) C  35                  0.00000     3.18645   
  1277. RY*(  21) C  35                  0.00000     2.06174   
  1278. RY*(  22) C  35                  0.00001     1.85232   
  1279. RY*(  23) C  35                  0.00000     3.36521   
  1280. RY*(  24) C  35                  0.00000     2.38883   
  1281. RY*(  25) C  35                  0.00001     2.04332   
  1282. RY*(  26) C  35                  0.00000     3.15871   
  1283. RY*(  27) C  35                  0.00000     1.96968   
  1284. RY*(  28) C  35                  0.00000     4.17023   
  1285. RY*(  29) C  35                  0.00000     4.16620   
  1286. RY*(  30) C  35                  0.00000     4.38721   
  1287. RY*(  31) C  35                  0.00000     4.03377   
  1288. RY*(  32) C  35                  0.00000     4.41832   
  1289. RY*(  33) C  35                  0.00000     3.72091   
  1290. RY*(  34) C  35                  0.00000     4.21563   
  1291. RY*(  35) C  35                  0.00000     2.47666   
  1292. RY*(  36) C  35                  0.00000     4.22870   
  1293. RY*(  37) C  35                  0.00000     2.82232   
  1294. RY*(  38) C  35                  0.00000     5.06150   
  1295. RY*(  39) C  35                  0.00000     4.08927   
  1296. RY*(  40) C  35                  0.00000     4.31432   
  1297. RY*(  41) C  35                  0.00000     3.25374   
  1298. RY*(   1) H  36                  0.00101     0.96145   
  1299. RY*(   2) H  36                  0.00033     0.88129   
  1300. RY*(   3) H  36                  0.00033     1.17684   
  1301. RY*(   4) H  36                  0.00015     2.86285   
  1302. RY*(   5) H  36                  0.00014     2.24482   
  1303. RY*(   6) H  36                  0.00009     2.16273   
  1304. RY*(   7) H  36                  0.00003     2.69683   
  1305. RY*(   8) H  36                  0.00000     4.58409   
  1306. RY*(   9) H  36                  0.00001     2.94278   
  1307. RY*(  10) H  36                  0.00001     2.86115   
  1308. RY*(  11) H  36                  0.00001     4.16245   
  1309. RY*(  12) H  36                  0.00001     3.96327   
  1310. RY*(  13) H  36                  0.00001     2.20358   
  1311. RY*(  14) H  36                  0.00000     4.18587   
  1312. RY*(  15) H  36                  0.00000     3.73357   
  1313. RY*(  16) H  36                  0.00000     4.23390   
  1314. RY*(  17) H  36                  0.00000     2.73983   
  1315. RY*(  18) H  36                  0.00000     4.62965   
  1316. RY*(  19) H  36                  0.00000     2.29982   
  1317. RY*(  20) H  36                  0.00000     4.14789   
  1318. RY*(  21) H  36                  0.00000     2.61121   
  1319. RY*(  22) H  36                  0.00001     3.48526   
  1320. RY*(   1) H  37                  0.00101     0.85086   
  1321. RY*(   2) H  37                  0.00035     1.01160   
  1322. RY*(   3) H  37                  0.00032     1.25448   
  1323. RY*(   4) H  37                  0.00015     3.58113   
  1324. RY*(   5) H  37                  0.00013     2.04411   
  1325. RY*(   6) H  37                  0.00009     3.39317   
  1326. RY*(   7) H  37                  0.00003     2.86892   
  1327. RY*(   8) H  37                  0.00000     4.57480   
  1328. RY*(   9) H  37                  0.00001     2.76174   
  1329. RY*(  10) H  37                  0.00001     2.95131   
  1330. RY*(  11) H  37                  0.00000     4.30757   
  1331. RY*(  12) H  37                  0.00001     3.50767   
  1332. RY*(  13) H  37                  0.00001     2.08535   
  1333. RY*(  14) H  37                  0.00000     4.77203   
  1334. RY*(  15) H  37                  0.00000     3.36411   
  1335. RY*(  16) H  37                  0.00000     4.55931   
  1336. RY*(  17) H  37                  0.00000     2.69867   
  1337. RY*(  18) H  37                  0.00000     4.03049   
  1338. RY*(  19) H  37                  0.00000     2.38989   
  1339. RY*(  20) H  37                  0.00000     4.14546   
  1340. RY*(  21) H  37                  0.00000     2.39942   
  1341. RY*(  22) H  37                  0.00001     3.88306   
  1342. RY*(   1) H  38                  0.00084     0.80359   
  1343. RY*(   2) H  38                  0.00025     1.06569   
  1344. RY*(   3) H  38                  0.00021     1.72590   
  1345. RY*(   4) H  38                  0.00019     1.83368   
  1346. RY*(   5) H  38                  0.00008     2.65298   
  1347. RY*(   6) H  38                  0.00006     2.07801   
  1348. RY*(   7) H  38                  0.00001     1.40120   
  1349. RY*(   8) H  38                  0.00001     3.41036   
  1350. RY*(   9) H  38                  0.00001     3.36668   
  1351. RY*(  10) H  38                  0.00000     2.44963   
  1352. RY*(  11) H  38                  0.00000     5.13433   
  1353. RY*(  12) H  38                  0.00001     3.84024   
  1354. RY*(  13) H  38                  0.00001     2.24051   
  1355. RY*(  14) H  38                  0.00000     3.92366   
  1356. RY*(  15) H  38                  0.00001     2.21514   
  1357. RY*(  16) H  38                  0.00000     4.33079   
  1358. RY*(  17) H  38                  0.00000     2.41932   
  1359. RY*(  18) H  38                  0.00000     4.61270   
  1360. RY*(  19) H  38                  0.00001     1.94886   
  1361. RY*(  20) H  38                  0.00000     4.08348   
  1362. RY*(  21) H  38                  0.00000     2.82134   
  1363. RY*(  22) H  38                  0.00000     4.47935   
  1364. RY*(   1) H  39                  0.00088     0.73195   
  1365. RY*(   2) H  39                  0.00032     1.42588   
  1366. RY*(   3) H  39                  0.00016     1.73263   
  1367. RY*(   4) H  39                  0.00013     2.18967   
  1368. RY*(   5) H  39                  0.00006     2.46494   
  1369. RY*(   6) H  39                  0.00003     1.36847   
  1370. RY*(   7) H  39                  0.00001     1.53364   
  1371. RY*(   8) H  39                  0.00001     5.05055   
  1372. RY*(   9) H  39                  0.00000     3.79166   
  1373. RY*(  10) H  39                  0.00001     2.95332   
  1374. RY*(  11) H  39                  0.00000     3.31137   
  1375. RY*(  12) H  39                  0.00000     3.70921   
  1376. RY*(  13) H  39                  0.00001     2.19967   
  1377. RY*(  14) H  39                  0.00000     4.51634   
  1378. RY*(  15) H  39                  0.00000     1.76661   
  1379. RY*(  16) H  39                  0.00000     3.77563   
  1380. RY*(  17) H  39                  0.00000     1.87168   
  1381. RY*(  18) H  39                  0.00000     4.54530   
  1382. RY*(  19) H  39                  0.00000     2.13776   
  1383. RY*(  20) H  39                  0.00000     4.59329   
  1384. RY*(  21) H  39                  0.00000     2.14989   
  1385. RY*(  22) H  39                  0.00000     4.24969   
  1386. RY*(   1) H  40                  0.00084     0.94664   
  1387. RY*(   2) H  40                  0.00025     1.39707   
  1388. RY*(   3) H  40                  0.00021     2.26164   
  1389. RY*(   4) H  40                  0.00019     1.92911   
  1390. RY*(   5) H  40                  0.00008     2.74453   
  1391. RY*(   6) H  40                  0.00006     2.08503   
  1392. RY*(   7) H  40                  0.00001     1.48147   
  1393. RY*(   8) H  40                  0.00001     3.51670   
  1394. RY*(   9) H  40                  0.00001     4.03508   
  1395. RY*(  10) H  40                  0.00000     3.35503   
  1396. RY*(  11) H  40                  0.00000     5.00762   
  1397. RY*(  12) H  40                  0.00001     3.78642   
  1398. RY*(  13) H  40                  0.00001     5.90846   
  1399. RY*(  14) H  40                  0.00000     3.88905   
  1400. RY*(  15) H  40                  0.00000     2.41567   
  1401. RY*(  16) H  40                  0.00000     4.64782   
  1402. RY*(  17) H  40                  0.00000     3.57708   
  1403. RY*(  18) H  40                  0.00000     4.36015   
  1404. RY*(  19) H  40                  0.00001     6.08746   
  1405. RY*(  20) H  40                  0.00000     4.09859   
  1406. RY*(  21) H  40                  0.00001     2.08241   
  1407. RY*(  22) H  40                  0.00000     4.91590   
  1441. BD*(   1) O  31 - C  33          0.05306     7.91091   
  1442. BD*(   1) O  32 - C  33          0.04512     1.44260   
  1443. BD*(   2) O  32 - C  33          0.32824     0.38461  1451(r),1436(r),1447(v)
                                                    1430(r),1404(r),1448(r)
                                                    1325(r),1274(r),1287(r)
                                                    1441(g),1387(r),1271(r)
                                                    1398(r),1263(r),1266(r)
                                                    1442(g),1453(r),1386(r)
                                                    1444(g),1408(r),1431(r)
                                                    1297(r),1395(r),1437(r)
                                                    1309(r),1289(r),1260(r)
                                                    1225(v),1312(r),1434(r)
                                                    1446(v),1400(r),1392(r)
                                                    1265(r),1293(r),1190(g)
                                                    1233(v),1268(r),1335(r)
                                                    1177(g),1294(r),1411(r)
                                                    1269(r),1401(r),1440(r)
                                                    1259(r),1370(r),1365(r)
                                                    1369(r),1270(r),1388(r)
                                                    1416(r),1327(r),1384(r)
                                                    1206(g),1230(v),1262(r)
                                                    1410(r),1218(v),1308(r)
                                                    1394(r),1324(r),1193(g)
                                                    1298(r),1232(v),1194(g)
                                                    1306(r),1362(r),1094(v)
                                                    1241(v),1272(r),1417(r)
                                                    1279(r),1280(r),1281(r)
                                                    1426(r),1252(v),1227(v)
                                                    1326(r),1257(r),1418(r)
                                                    1385(r),1240(v),1368(r)
                                                    1452(r),1318(r),1405(r)
                                                    1348(r),1407(r),1187(g)
                                                    1360(r),1354(r),1140(g)
                                                    1183(g),1397(r),1256(v)
                                                    1237(v),1229(v),1422(r)
                                                    879(r),1433(r),1423(r)
                                                    1420(r),1414(r),1413(r)
                                                    948(r),656(r),1439(r),350(r)
                                                    557(r),362(r),302(r),101(r)
                                                    120(r),1419(r),97(r),746(r)
                                                    715(r),664(r),896(r),349(r)
                                                    622(r),677(r),508(r),351(r)
                                                    1427(r),213(r),281(r),197(r)
                                                    638(r),697(r),193(r),354(r)
                                                    308(r),366(r),897(r),730(r)
                                                    634(r),348(r),192(r),305(r)
                                                    732(r),125(r),736(r),1425(r)
                                                    315(r),360(r),363(r),320(r)
                                                    662(r),342(r),563(r),726(r)
                                                    462(r),395(r),887(r),288(r)
  1444. BD*(   1) C  33 - C  34          0.07862     0.70615   
  1445. BD*(   1) C  34 - C  35          0.00633     5.05952   
  1446. BD*(   1) C  34 - H  36          0.01147     1.04350   
  1447. BD*(   1) C  34 - H  37          0.01146     7.54288   
  1448. BD*(   1) C  35 - H  38          0.00761     1.23456   
  1449. BD*(   1) C  35 - H  39          0.00722     0.64651   
  1450. BD*(   1) C  35 - H  40          0.00761     0.65409   
       -------------------------------
              Total Lewis   39.26807  ( 98.4314%)
        Valence non-Lewis    0.55673  (  1.3955%)
        Rydberg non-Lewis    0.06904  (  0.1731%)
       -------------------------------
            Total unit  2   39.89383  (100.0000%)
           Charge unit  2   -0.89383
 Unable to Open any file for archive entry.
 1\1\GINC-GADI-HMEM-CLX-0007\SP\RDSDPBEP86-FC\Aug-CC-pVTZ\C14H17Cl1F3N2
 O3(1-)\HIO507\04-Nov-2020\0\\# DSDPBEP86/AUG-cc-PVTZ SCF=Tight INT(gri
 d=ultrafine) Pop=NBO MaxDisk=1400000MB\\NM3_carboxy.DSDPBEP86_AUG-cc-P
 VTZ\\-1,1\C,0,-5.9182972882,1.1891847215,0.2630375986\N,0,-4.658939090
 5,0.6436542539,0.1719691179\C,0,-3.4542267553,1.3282815978,0.063061507
 9\O,0,-3.3603105547,2.5509375604,0.041785444\N,0,-2.3906083419,0.49430
 43591,-0.008408616\C,0,-1.0604058124,1.0228858323,-0.2065677511\C,0,-0
 .0281462706,-0.0700123248,0.0410507433\C,0,1.3911520983,0.4278737541,-
 0.2122742354\C,0,-6.1985692716,2.5648583713,0.3024582254\C,0,-7.519727
 8818,2.9846883296,0.4017387601\C,0,-8.5895316549,2.1011539106,0.463135
 913\C,0,-8.2844785539,0.7454318061,0.4246371807\C,0,-6.9924891705,0.27
 48493522,0.3273125835\H,0,-4.6267178081,-0.3952459185,0.1640829945\H,0
 ,-2.5228589544,-0.5253498629,-0.0848314947\H,0,-0.903515921,1.86512839
 38,0.4743054421\H,0,-0.9476127901,1.4221977092,-1.2245473916\H,0,-0.25
 39312341,-0.9299901793,-0.5962628386\H,0,-0.1310651389,-0.4246658964,1
 .0709847375\H,0,1.5143214832,0.7558975678,-1.2484285047\H,0,2.12963295
 71,-0.3544637038,-0.0226025605\H,0,1.6332973257,1.2781976269,0.4321904
 324\H,0,-5.3864513046,3.2756183577,0.2593311373\Cl,0,-9.6038911423,-0.
 4068717115,0.5072412458\H,0,-6.7799524757,-0.789480588,0.2994268816\C,
 0,-7.7900901716,4.4595118956,0.3895266641\H,0,-9.611941358,2.443050061
 1,0.544315722\F,0,-7.6817848023,4.9862924034,-0.8464726845\F,0,-9.0309
 461664,4.7615351052,0.8171596131\F,0,-6.9375784456,5.147021454,1.16547
 52648\O,0,-4.8132918474,-2.1095822889,0.1365766476\O,0,-2.6183259814,-
 2.3165095908,-0.2426739133\C,0,-3.7693926462,-2.7775286191,-0.08073613
 74\C,0,-3.9539026984,-4.300911005,-0.1485098918\C,0,-2.6691874275,-5.0
 766132738,-0.403472087\H,0,-4.6975805395,-4.4991089141,-0.9267402135\H
 ,0,-4.423398559,-4.6087823079,0.7909690051\H,0,-2.2130041623,-4.769277
 3138,-1.3459537716\H,0,-2.8546487737,-6.1545226756,-0.4419878883\H,0,-
 1.9363028699,-4.8784182491,0.3804471176\\Version=ES64L-G16RevC.01\Stat
 e=1-A\HF=-1634.828738\MP2=-1637.0376765\RMSD=2.804e-09\PG=C01 [X(C14H1
 7Cl1F3N2O3)]\\@
 The archive entry for this job was punched.


 GOD GAVE US TWO ENDS... ONE TO SIT ON...    
 AND THE OTHER TO THINK WITH...              
 YOUR SUCCESS DEPENDS UPON WHICH END YOU     
 USE THE MOST...                             
                                             
 IT'S A CASE OF HEADS YOU WIN TAILS YOU LOSE.
          SOURCE UNKNOWN(IT'S JUST AS WELL.) 
 Job cpu time:       7 days  1 hours 15 minutes 49.9 seconds.
 Elapsed time:       0 days  5 hours 21 minutes 40.7 seconds.
 File lengths (MBytes):  RWF=   1087 Int=      0 D2E=      0 Chk=    138 Scr=      1
 Normal termination of Gaussian 16 at Wed Nov  4 14:39:31 2020.
