 Entering Gaussian System, Link 0=/apps/gaussian/g09e01/g09/g09
 Initial command:
 /apps/gaussian/g09e01/g09/l1.exe "/jobfs/local/3595146.r-man2/Gau-26089.inp" -scrdir="/jobfs/local/3595146.r-man2/"
 Entering Link 1 = /apps/gaussian/g09e01/g09/l1.exe PID=     26092.
  
 Copyright (c) 1988,1990,1992,1993,1995,1998,2003,2009,2015,
            Gaussian, Inc.  All Rights Reserved.
  
 This is part of the Gaussian(R) 09 program.  It is based on
 the Gaussian(R) 03 system (copyright 2003, Gaussian, Inc.),
 the Gaussian(R) 98 system (copyright 1998, Gaussian, Inc.),
 the Gaussian(R) 94 system (copyright 1995, Gaussian, Inc.),
 the Gaussian 92(TM) system (copyright 1992, Gaussian, Inc.),
 the Gaussian 90(TM) system (copyright 1990, Gaussian, Inc.),
 the Gaussian 88(TM) system (copyright 1988, Gaussian, Inc.),
 the Gaussian 86(TM) system (copyright 1986, Carnegie Mellon
 University), and the Gaussian 82(TM) system (copyright 1983,
 Carnegie Mellon University). Gaussian is a federally registered
 trademark of Gaussian, Inc.
  
 This software contains proprietary and confidential information,
 including trade secrets, belonging to Gaussian, Inc.
  
 This software is provided under written license and may be
 used, copied, transmitted, or stored only in accord with that
 written license.
  
 The following legend is applicable only to US Government
 contracts under FAR:
  
                    RESTRICTED RIGHTS LEGEND
  
 Use, reproduction and disclosure by the US Government is
 subject to restrictions as set forth in subparagraphs (a)
 and (c) of the Commercial Computer Software - Restricted
 Rights clause in FAR 52.227-19.
  
 Gaussian, Inc.
 340 Quinnipiac St., Bldg. 40, Wallingford CT 06492
  
  
 ---------------------------------------------------------------
 Warning -- This program may not be used in any manner that
 competes with the business of Gaussian, Inc. or will provide
 assistance to any competitor of Gaussian, Inc.  The licensee
 of this program is prohibited from giving any competitor of
 Gaussian, Inc. access to this program.  By using this program,
 the user acknowledges that Gaussian, Inc. is engaged in the
 business of creating and licensing software in the field of
 computational chemistry and represents and warrants to the
 licensee that it is not a competitor of Gaussian, Inc. and that
 it will not use this program in any manner prohibited above.
 ---------------------------------------------------------------
  

 Cite this work as:
 Gaussian 09, Revision E.01,
 M. J. Frisch, G. W. Trucks, H. B. Schlegel, G. E. Scuseria, 
 M. A. Robb, J. R. Cheeseman, G. Scalmani, V. Barone, B. Mennucci, 
 G. A. Petersson, H. Nakatsuji, M. Caricato, X. Li, H. P. Hratchian, 
 A. F. Izmaylov, J. Bloino, G. Zheng, J. L. Sonnenberg, M. Hada, 
 M. Ehara, K. Toyota, R. Fukuda, J. Hasegawa, M. Ishida, T. Nakajima, 
 Y. Honda, O. Kitao, H. Nakai, T. Vreven, J. A. Montgomery, Jr., 
 J. E. Peralta, F. Ogliaro, M. Bearpark, J. J. Heyd, E. Brothers, 
 K. N. Kudin, V. N. Staroverov, T. Keith, R. Kobayashi, J. Normand, 
 K. Raghavachari, A. Rendell, J. C. Burant, S. S. Iyengar, J. Tomasi, 
 M. Cossi, N. Rega, J. M. Millam, M. Klene, J. E. Knox, J. B. Cross, 
 V. Bakken, C. Adamo, J. Jaramillo, R. Gomperts, R. E. Stratmann, 
 O. Yazyev, A. J. Austin, R. Cammi, C. Pomelli, J. W. Ochterski, 
 R. L. Martin, K. Morokuma, V. G. Zakrzewski, G. A. Voth, 
 P. Salvador, J. J. Dannenberg, S. Dapprich, A. D. Daniels, 
 O. Farkas, J. B. Foresman, J. V. Ortiz, J. Cioslowski, 
 and D. J. Fox, Gaussian, Inc., Wallingford CT, 2013.
 
 ******************************************
 Gaussian 09:  ES64L-G09RevE.01 30-Nov-2015
                14-Nov-2019 
 ******************************************
 %chk=NM3_carboxy.M062X_6-311pGd_opt_GD3.chk
 %mem=196608000
 %nproc=8
 Will use up to    8 processors via shared memory.
 ----------------------------------------------------------------------
 # M062X/6-311+G* SCF=Tight INT(grid=ultrafine) OPT IOP(2/17=4) Empiric
 alDispersion=GD3 maxdisk=2684354560
 ----------------------------------------------------------------------
 1/14=-1,18=20,19=15,26=4,38=1/1,3;
 2/9=110,12=2,17=4,18=5,40=1/2;
 3/5=4,6=6,7=11,11=2,16=1,25=1,30=1,71=1,74=-55,75=-5,124=31/1,2,3;
 4//1;
 5/5=2,32=2,38=5/2;
 6/7=2,8=2,9=2,10=2,28=1/1;
 7//1,2,3,16;
 1/14=-1,18=20,19=15,26=4/3(2);
 2/9=110,17=4/2;
 99//99;
 2/9=110,17=4/2;
 3/5=4,6=6,7=11,11=2,16=1,25=1,30=1,71=1,74=-55,75=-5,124=31/1,2,3;
 4/5=5,16=3,69=1/1;
 5/5=2,32=2,38=5/2;
 7//1,2,3,16;
 1/14=-1,18=20,19=15,26=4/3(-5);
 2/9=110,17=4/2;
 6/7=2,8=2,9=2,10=2,19=2,28=1/1;
 99/9=1/99;
 ----------------------------------
 NM3_carboxy.M062X_6-311pGd_opt_GD3
 ----------------------------------
 Symbolic Z-matrix:
 Charge = -1 Multiplicity = 1
 C                    -5.91831   1.18922   0.26313 
 N                    -4.65895   0.64369   0.17212 
 C                    -3.45424   1.3283    0.06311 
 O                    -3.36031   2.55095   0.04177 
 N                    -2.39064   0.49429  -0.0083 
 C                    -1.06043   1.02284  -0.20651 
 C                    -0.0282   -0.07007   0.0412 
 C                     1.39111   0.42773  -0.21223 
 C                    -6.1986    2.5649    0.3024 
 C                    -7.51976   2.98472   0.40165 
 C                    -8.58955   2.10119   0.46314 
 C                    -8.28449   0.74547   0.42477 
 C                    -6.9925    0.27488   0.32749 
 H                    -4.6267   -0.39521   0.16441 
 H                    -2.52289  -0.52538  -0.08469 
 H                    -0.90353   1.86512   0.4743 
 H                    -0.94763   1.42208  -1.22452 
 H                    -0.25405  -0.93012  -0.59598 
 H                    -0.1311   -0.42457   1.07119 
 H                     1.51429   0.75551  -1.24846 
 H                     2.12957  -0.35458  -0.02238 
 H                     1.63328   1.27819   0.43204 
 H                    -5.38648   3.27566   0.25921 
 Cl                   -9.60389  -0.40684   0.50747 
 H                    -6.77995  -0.78945   0.29967 
 C                    -7.79013   4.45954   0.38929 
 H                    -9.61197   2.44309   0.54428 
 F                    -7.6819    4.9862   -0.84677 
 F                    -9.03096   4.76161   0.81696 
 F                    -6.93758   5.14714   1.16512 
 O                    -4.81332  -2.10963   0.13659 
 O                    -2.61828  -2.31648  -0.24222 
 C                    -3.76936  -2.77754  -0.08054 
 C                    -3.95377  -4.30093  -0.14841 
 C                    -2.66911  -5.0765   -0.40397 
 H                    -4.69775  -4.4991   -0.92635 
 H                    -4.42286  -4.60893   0.79123 
 H                    -2.21334  -4.76904  -1.34661 
 H                    -2.8545   -6.15442  -0.4425 
 H                    -1.93591  -4.87831   0.37966 
 
 Add virtual bond connecting atoms O31        and H14        Dist= 3.26D+00.
 Add virtual bond connecting atoms O32        and H15        Dist= 3.40D+00.

 GradGradGradGradGradGradGradGradGradGradGradGradGradGradGradGradGradGrad
 Berny optimization.
 Initialization pass.
                           ----------------------------
                           !    Initial Parameters    !
                           ! (Angstroms and Degrees)  !
 --------------------------                            --------------------------
 ! Name  Definition              Value          Derivative Info.                !
 --------------------------------------------------------------------------------
 ! R1    R(1,2)                  1.3755         estimate D2E/DX2                !
 ! R2    R(1,9)                  1.4045         estimate D2E/DX2                !
 ! R3    R(1,13)                 1.4121         estimate D2E/DX2                !
 ! R4    R(2,3)                  1.3899         estimate D2E/DX2                !
 ! R5    R(2,14)                 1.0394         estimate D2E/DX2                !
 ! R6    R(3,4)                  1.2264         estimate D2E/DX2                !
 ! R7    R(3,5)                  1.3535         estimate D2E/DX2                !
 ! R8    R(5,6)                  1.445          estimate D2E/DX2                !
 ! R9    R(5,15)                 1.031          estimate D2E/DX2                !
 ! R10   R(6,7)                  1.5236         estimate D2E/DX2                !
 ! R11   R(6,16)                 1.0943         estimate D2E/DX2                !
 ! R12   R(6,17)                 1.0993         estimate D2E/DX2                !
 ! R13   R(7,8)                  1.5253         estimate D2E/DX2                !
 ! R14   R(7,18)                 1.0939         estimate D2E/DX2                !
 ! R15   R(7,19)                 1.0941         estimate D2E/DX2                !
 ! R16   R(8,20)                 1.0938         estimate D2E/DX2                !
 ! R17   R(8,21)                 1.0924         estimate D2E/DX2                !
 ! R18   R(8,22)                 1.0941         estimate D2E/DX2                !
 ! R19   R(9,10)                 1.3898         estimate D2E/DX2                !
 ! R20   R(9,23)                 1.0801         estimate D2E/DX2                !
 ! R21   R(10,11)                1.3888         estimate D2E/DX2                !
 ! R22   R(10,26)                1.4994         estimate D2E/DX2                !
 ! R23   R(11,12)                1.3902         estimate D2E/DX2                !
 ! R24   R(11,27)                1.0811         estimate D2E/DX2                !
 ! R25   R(12,13)                1.3785         estimate D2E/DX2                !
 ! R26   R(12,24)                1.7537         estimate D2E/DX2                !
 ! R27   R(13,25)                1.0857         estimate D2E/DX2                !
 ! R28   R(14,31)                1.7248         estimate D2E/DX2                !
 ! R29   R(15,32)                1.8005         estimate D2E/DX2                !
 ! R30   R(26,28)                1.3479         estimate D2E/DX2                !
 ! R31   R(26,29)                1.3468         estimate D2E/DX2                !
 ! R32   R(26,30)                1.3422         estimate D2E/DX2                !
 ! R33   R(31,33)                1.2582         estimate D2E/DX2                !
 ! R34   R(32,33)                1.2505         estimate D2E/DX2                !
 ! R35   R(33,34)                1.536          estimate D2E/DX2                !
 ! R36   R(34,35)                1.5222         estimate D2E/DX2                !
 ! R37   R(34,36)                1.0945         estimate D2E/DX2                !
 ! R38   R(34,37)                1.0945         estimate D2E/DX2                !
 ! R39   R(35,38)                1.0913         estimate D2E/DX2                !
 ! R40   R(35,39)                1.0944         estimate D2E/DX2                !
 ! R41   R(35,40)                1.0913         estimate D2E/DX2                !
 ! A1    A(2,1,9)              124.9633         estimate D2E/DX2                !
 ! A2    A(2,1,13)             116.2761         estimate D2E/DX2                !
 ! A3    A(9,1,13)             118.7597         estimate D2E/DX2                !
 ! A4    A(1,2,3)              127.1154         estimate D2E/DX2                !
 ! A5    A(1,2,14)             115.171          estimate D2E/DX2                !
 ! A6    A(3,2,14)             117.6985         estimate D2E/DX2                !
 ! A7    A(2,3,4)              123.9711         estimate D2E/DX2                !
 ! A8    A(2,3,5)              112.4415         estimate D2E/DX2                !
 ! A9    A(4,3,5)              123.5861         estimate D2E/DX2                !
 ! A10   A(3,5,6)              120.3469         estimate D2E/DX2                !
 ! A11   A(3,5,15)             120.8311         estimate D2E/DX2                !
 ! A12   A(6,5,15)             118.0117         estimate D2E/DX2                !
 ! A13   A(5,6,7)              109.8155         estimate D2E/DX2                !
 ! A14   A(5,6,16)             109.158          estimate D2E/DX2                !
 ! A15   A(5,6,17)             110.7521         estimate D2E/DX2                !
 ! A16   A(7,6,16)             110.7212         estimate D2E/DX2                !
 ! A17   A(7,6,17)             109.9719         estimate D2E/DX2                !
 ! A18   A(16,6,17)            106.3722         estimate D2E/DX2                !
 ! A19   A(6,7,8)              111.673          estimate D2E/DX2                !
 ! A20   A(6,7,18)             109.2316         estimate D2E/DX2                !
 ! A21   A(6,7,19)             108.7691         estimate D2E/DX2                !
 ! A22   A(8,7,18)             110.6044         estimate D2E/DX2                !
 ! A23   A(8,7,19)             110.4672         estimate D2E/DX2                !
 ! A24   A(18,7,19)            105.9125         estimate D2E/DX2                !
 ! A25   A(7,8,20)             111.1007         estimate D2E/DX2                !
 ! A26   A(7,8,21)             111.4953         estimate D2E/DX2                !
 ! A27   A(7,8,22)             111.2117         estimate D2E/DX2                !
 ! A28   A(20,8,21)            107.6448         estimate D2E/DX2                !
 ! A29   A(20,8,22)            107.4584         estimate D2E/DX2                !
 ! A30   A(21,8,22)            107.7402         estimate D2E/DX2                !
 ! A31   A(1,9,10)             119.1817         estimate D2E/DX2                !
 ! A32   A(1,9,23)             119.5641         estimate D2E/DX2                !
 ! A33   A(10,9,23)            121.2537         estimate D2E/DX2                !
 ! A34   A(9,10,11)            122.9034         estimate D2E/DX2                !
 ! A35   A(9,10,26)            117.9003         estimate D2E/DX2                !
 ! A36   A(11,10,26)           119.156          estimate D2E/DX2                !
 ! A37   A(10,11,12)           116.7535         estimate D2E/DX2                !
 ! A38   A(10,11,27)           122.0457         estimate D2E/DX2                !
 ! A39   A(12,11,27)           121.1993         estimate D2E/DX2                !
 ! A40   A(11,12,13)           122.7216         estimate D2E/DX2                !
 ! A41   A(11,12,24)           118.3199         estimate D2E/DX2                !
 ! A42   A(13,12,24)           118.9584         estimate D2E/DX2                !
 ! A43   A(1,13,12)            119.6798         estimate D2E/DX2                !
 ! A44   A(1,13,25)            118.9907         estimate D2E/DX2                !
 ! A45   A(12,13,25)           121.3294         estimate D2E/DX2                !
 ! A46   A(10,26,28)           112.1713         estimate D2E/DX2                !
 ! A47   A(10,26,29)           112.5887         estimate D2E/DX2                !
 ! A48   A(10,26,30)           112.6173         estimate D2E/DX2                !
 ! A49   A(28,26,29)           106.1137         estimate D2E/DX2                !
 ! A50   A(28,26,30)           106.1939         estimate D2E/DX2                !
 ! A51   A(29,26,30)           106.6643         estimate D2E/DX2                !
 ! A52   A(14,31,33)           116.1462         estimate D2E/DX2                !
 ! A53   A(15,32,33)           113.843          estimate D2E/DX2                !
 ! A54   A(31,33,32)           126.1815         estimate D2E/DX2                !
 ! A55   A(31,33,34)           115.7528         estimate D2E/DX2                !
 ! A56   A(32,33,34)           118.0657         estimate D2E/DX2                !
 ! A57   A(33,34,35)           114.2932         estimate D2E/DX2                !
 ! A58   A(33,34,36)           107.0128         estimate D2E/DX2                !
 ! A59   A(33,34,37)           107.0157         estimate D2E/DX2                !
 ! A60   A(35,34,36)           111.2277         estimate D2E/DX2                !
 ! A61   A(35,34,37)           111.2518         estimate D2E/DX2                !
 ! A62   A(36,34,37)           105.5409         estimate D2E/DX2                !
 ! A63   A(34,35,38)           110.729          estimate D2E/DX2                !
 ! A64   A(34,35,39)           111.3931         estimate D2E/DX2                !
 ! A65   A(34,35,40)           110.7276         estimate D2E/DX2                !
 ! A66   A(38,35,39)           108.5318         estimate D2E/DX2                !
 ! A67   A(38,35,40)           106.7688         estimate D2E/DX2                !
 ! A68   A(39,35,40)           108.5397         estimate D2E/DX2                !
 ! A69   L(2,14,31,7,-1)       187.9728         estimate D2E/DX2                !
 ! A70   L(5,15,32,7,-1)       175.6968         estimate D2E/DX2                !
 ! A71   L(2,14,31,7,-2)       180.7297         estimate D2E/DX2                !
 ! A72   L(5,15,32,7,-2)       180.9308         estimate D2E/DX2                !
 ! D1    D(9,1,2,3)             -2.0758         estimate D2E/DX2                !
 ! D2    D(9,1,2,14)           179.3825         estimate D2E/DX2                !
 ! D3    D(13,1,2,3)           178.2698         estimate D2E/DX2                !
 ! D4    D(13,1,2,14)           -0.2719         estimate D2E/DX2                !
 ! D5    D(2,1,9,10)          -179.7136         estimate D2E/DX2                !
 ! D6    D(2,1,9,23)             0.0377         estimate D2E/DX2                !
 ! D7    D(13,1,9,10)           -0.0671         estimate D2E/DX2                !
 ! D8    D(13,1,9,23)          179.6842         estimate D2E/DX2                !
 ! D9    D(2,1,13,12)          179.7725         estimate D2E/DX2                !
 ! D10   D(2,1,13,25)           -0.1872         estimate D2E/DX2                !
 ! D11   D(9,1,13,12)            0.0956         estimate D2E/DX2                !
 ! D12   D(9,1,13,25)         -179.8641         estimate D2E/DX2                !
 ! D13   D(1,2,3,4)              0.4732         estimate D2E/DX2                !
 ! D14   D(1,2,3,5)           -179.9388         estimate D2E/DX2                !
 ! D15   D(14,2,3,4)           178.9825         estimate D2E/DX2                !
 ! D16   D(14,2,3,5)            -1.4295         estimate D2E/DX2                !
 ! D17   D(1,2,31,33)          172.8018         estimate D2E/DX2                !
 ! D18   D(3,2,31,33)           -5.1508         estimate D2E/DX2                !
 ! D19   D(2,3,5,6)            176.2529         estimate D2E/DX2                !
 ! D20   D(2,3,5,15)             6.7653         estimate D2E/DX2                !
 ! D21   D(4,3,5,6)             -4.1573         estimate D2E/DX2                !
 ! D22   D(4,3,5,15)          -173.6448         estimate D2E/DX2                !
 ! D23   D(3,5,6,7)            168.1429         estimate D2E/DX2                !
 ! D24   D(3,5,6,16)            46.5875         estimate D2E/DX2                !
 ! D25   D(3,5,6,17)           -70.2039         estimate D2E/DX2                !
 ! D26   D(15,5,6,7)           -22.0786         estimate D2E/DX2                !
 ! D27   D(15,5,6,16)         -143.634          estimate D2E/DX2                !
 ! D28   D(15,5,6,17)           99.5745         estimate D2E/DX2                !
 ! D29   D(3,5,32,33)          -10.0674         estimate D2E/DX2                !
 ! D30   D(6,5,32,33)         -179.5297         estimate D2E/DX2                !
 ! D31   D(5,6,7,8)            177.6732         estimate D2E/DX2                !
 ! D32   D(5,6,7,18)            55.0098         estimate D2E/DX2                !
 ! D33   D(5,6,7,19)           -60.1555         estimate D2E/DX2                !
 ! D34   D(16,6,7,8)           -61.7121         estimate D2E/DX2                !
 ! D35   D(16,6,7,18)          175.6245         estimate D2E/DX2                !
 ! D36   D(16,6,7,19)           60.4592         estimate D2E/DX2                !
 ! D37   D(17,6,7,8)            55.5545         estimate D2E/DX2                !
 ! D38   D(17,6,7,18)          -67.1089         estimate D2E/DX2                !
 ! D39   D(17,6,7,19)          177.7258         estimate D2E/DX2                !
 ! D40   D(6,7,8,20)           -60.5975         estimate D2E/DX2                !
 ! D41   D(6,7,8,21)           179.3261         estimate D2E/DX2                !
 ! D42   D(6,7,8,22)            59.0531         estimate D2E/DX2                !
 ! D43   D(18,7,8,20)           61.278          estimate D2E/DX2                !
 ! D44   D(18,7,8,21)          -58.7983         estimate D2E/DX2                !
 ! D45   D(18,7,8,22)         -179.0714         estimate D2E/DX2                !
 ! D46   D(19,7,8,20)          178.212          estimate D2E/DX2                !
 ! D47   D(19,7,8,21)           58.1356         estimate D2E/DX2                !
 ! D48   D(19,7,8,22)          -62.1374         estimate D2E/DX2                !
 ! D49   D(1,9,10,11)           -0.0757         estimate D2E/DX2                !
 ! D50   D(1,9,10,26)         -177.7423         estimate D2E/DX2                !
 ! D51   D(23,9,10,11)        -179.8227         estimate D2E/DX2                !
 ! D52   D(23,9,10,26)           2.5108         estimate D2E/DX2                !
 ! D53   D(9,10,11,12)           0.1825         estimate D2E/DX2                !
 ! D54   D(9,10,11,27)         179.7457         estimate D2E/DX2                !
 ! D55   D(26,10,11,12)        177.8211         estimate D2E/DX2                !
 ! D56   D(26,10,11,27)         -2.6157         estimate D2E/DX2                !
 ! D57   D(9,10,26,28)          75.8281         estimate D2E/DX2                !
 ! D58   D(9,10,26,29)        -164.5587         estimate D2E/DX2                !
 ! D59   D(9,10,26,30)         -43.9089         estimate D2E/DX2                !
 ! D60   D(11,10,26,28)       -101.9286         estimate D2E/DX2                !
 ! D61   D(11,10,26,29)         17.6846         estimate D2E/DX2                !
 ! D62   D(11,10,26,30)        138.3344         estimate D2E/DX2                !
 ! D63   D(10,11,12,13)         -0.1524         estimate D2E/DX2                !
 ! D64   D(10,11,12,24)        179.7161         estimate D2E/DX2                !
 ! D65   D(27,11,12,13)       -179.7196         estimate D2E/DX2                !
 ! D66   D(27,11,12,24)          0.149          estimate D2E/DX2                !
 ! D67   D(11,12,13,1)           0.017          estimate D2E/DX2                !
 ! D68   D(11,12,13,25)        179.9757         estimate D2E/DX2                !
 ! D69   D(24,12,13,1)        -179.8507         estimate D2E/DX2                !
 ! D70   D(24,12,13,25)          0.108          estimate D2E/DX2                !
 ! D71   D(14,31,33,32)          1.9095         estimate D2E/DX2                !
 ! D72   D(14,31,33,34)       -178.1035         estimate D2E/DX2                !
 ! D73   D(15,32,33,31)          1.9577         estimate D2E/DX2                !
 ! D74   D(15,32,33,34)       -178.029          estimate D2E/DX2                !
 ! D75   D(31,33,34,35)       -179.6489         estimate D2E/DX2                !
 ! D76   D(31,33,34,36)         56.7409         estimate D2E/DX2                !
 ! D77   D(31,33,34,37)        -56.0055         estimate D2E/DX2                !
 ! D78   D(32,33,34,35)          0.3392         estimate D2E/DX2                !
 ! D79   D(32,33,34,36)       -123.271          estimate D2E/DX2                !
 ! D80   D(32,33,34,37)        123.9826         estimate D2E/DX2                !
 ! D81   D(33,34,35,38)        -59.1583         estimate D2E/DX2                !
 ! D82   D(33,34,35,39)        179.9621         estimate D2E/DX2                !
 ! D83   D(33,34,35,40)         59.0735         estimate D2E/DX2                !
 ! D84   D(36,34,35,38)         62.1541         estimate D2E/DX2                !
 ! D85   D(36,34,35,39)        -58.7255         estimate D2E/DX2                !
 ! D86   D(36,34,35,40)       -179.6141         estimate D2E/DX2                !
 ! D87   D(37,34,35,38)        179.5069         estimate D2E/DX2                !
 ! D88   D(37,34,35,39)         58.6273         estimate D2E/DX2                !
 ! D89   D(37,34,35,40)        -62.2613         estimate D2E/DX2                !
 --------------------------------------------------------------------------------
 Trust Radius=3.00D-01 FncErr=1.00D-07 GrdErr=1.00D-06
 Number of steps in this run=    212 maximum allowed number of steps=    240.
 GradGradGradGradGradGradGradGradGradGradGradGradGradGradGradGradGradGrad

                          Input orientation:                          
 ---------------------------------------------------------------------
 Center     Atomic      Atomic             Coordinates (Angstroms)
 Number     Number       Type             X           Y           Z
 ---------------------------------------------------------------------
      1          6           0       -5.918312    1.189222    0.263129
      2          7           0       -4.658952    0.643690    0.172117
      3          6           0       -3.454238    1.328297    0.063111
      4          8           0       -3.360306    2.550953    0.041772
      5          7           0       -2.390640    0.494288   -0.008304
      6          6           0       -1.060434    1.022835   -0.206515
      7          6           0       -0.028202   -0.070066    0.041201
      8          6           0        1.391107    0.427732   -0.212232
      9          6           0       -6.198596    2.564897    0.302403
     10          6           0       -7.519757    2.984725    0.401648
     11          6           0       -8.589554    2.101190    0.463139
     12          6           0       -8.284489    0.745468    0.424771
     13          6           0       -6.992497    0.274884    0.327492
     14          1           0       -4.626696   -0.395213    0.164406
     15          1           0       -2.522892   -0.525376   -0.084687
     16          1           0       -0.903532    1.865123    0.474299
     17          1           0       -0.947629    1.422075   -1.224521
     18          1           0       -0.254045   -0.930122   -0.595985
     19          1           0       -0.131103   -0.424573    1.071187
     20          1           0        1.514290    0.755506   -1.248463
     21          1           0        2.129566   -0.354581   -0.022379
     22          1           0        1.633276    1.278194    0.432041
     23          1           0       -5.386485    3.275661    0.259207
     24         17           0       -9.603894   -0.406838    0.507465
     25          1           0       -6.779952   -0.789446    0.299673
     26          6           0       -7.790130    4.459544    0.389289
     27          1           0       -9.611966    2.443087    0.544281
     28          9           0       -7.681896    4.986200   -0.846768
     29          9           0       -9.030963    4.761605    0.816960
     30          9           0       -6.937584    5.147140    1.165120
     31          8           0       -4.813315   -2.109633    0.136594
     32          8           0       -2.618282   -2.316476   -0.242220
     33          6           0       -3.769359   -2.777542   -0.080539
     34          6           0       -3.953770   -4.300927   -0.148406
     35          6           0       -2.669107   -5.076497   -0.403967
     36          1           0       -4.697754   -4.499102   -0.926347
     37          1           0       -4.422858   -4.608932    0.791233
     38          1           0       -2.213341   -4.769042   -1.346613
     39          1           0       -2.854500   -6.154419   -0.442502
     40          1           0       -1.935908   -4.878311    0.379659
 ---------------------------------------------------------------------
                    Distance matrix (angstroms):
                    1          2          3          4          5
     1  C    0.000000
     2  N    1.375456   0.000000
     3  C    2.476088   1.389930   0.000000
     4  O    2.906322   2.311087   1.226444   0.000000
     5  N    3.605701   2.280375   1.353481   2.274342   0.000000
     6  C    4.883363   3.638192   2.428230   2.772400   1.445025
     7  C    6.027309   4.687262   3.700489   4.239417   2.429415
     8  C    7.364336   6.066100   4.936010   5.210423   3.787826
     9  C    1.404487   2.465465   3.019593   2.850265   4.345629
    10  C    2.409905   3.703692   4.403045   4.197463   5.716483
    11  C    2.829703   4.202218   5.208537   5.265441   6.421131
    12  C    2.412849   3.635755   4.878711   5.258711   5.915074
    13  C    1.412100   2.367613   3.701196   4.295921   4.619306
    14  H    2.046571   1.039432   2.086961   3.209155   2.412672
    15  H    3.819647   2.448554   2.079748   3.190776   1.031038
    16  H    5.064529   3.960605   2.638817   2.587118   2.079323
    17  H    5.193748   4.041088   2.819552   2.949385   2.102916
    18  H    6.108487   4.740260   3.971914   4.708872   2.634265
    19  H    6.062102   4.738240   3.889986   4.510121   2.667416
    20  H    7.597144   6.335571   5.170549   5.352571   4.105448
    21  H    8.199585   6.864281   5.832517   6.211678   4.599243
    22  H    7.554001   6.329477   5.101119   5.167987   4.123143
    23  H    2.153157   2.732062   2.750320   2.162841   4.096668
    24  Cl   4.023757   5.066411   6.405187   6.924434   7.287598
    25  H    2.158445   2.562966   3.949832   4.787354   4.583545
    26  C    3.770229   4.940869   5.358270   4.835993   6.710874
    27  H    3.910793   5.282868   6.276297   6.272751   7.500048
    28  F    4.331183   5.388294   5.664029   5.039452   6.991258
    29  F    4.770455   6.040491   6.592098   6.135491   7.936305
    30  F    4.185406   5.143859   5.285044   4.560594   6.610647
    31  O    3.481303   2.757875   3.697548   4.882754   3.559601
    32  O    4.841022   3.619197   3.751856   4.931847   2.829652
    33  C    4.524525   3.544014   4.120419   5.345572   3.551191
    34  C    5.845556   5.004922   5.655302   6.880161   5.045502
    35  C    7.089541   6.083740   6.469620   7.671664   5.591757
    36  H    5.938152   5.258939   6.040194   7.240808   5.576695
    37  H    6.011145   5.294250   6.059627   7.276995   5.550858
    38  H    7.198541   6.130678   6.380023   7.538266   5.433705
    39  H    7.988362   7.060317   7.523720   8.733490   6.678996
    40  H    7.258655   6.160400   6.397462   7.572122   5.405748
                    6          7          8          9         10
     6  C    0.000000
     7  C    1.523581   0.000000
     8  C    2.522743   1.525278   0.000000
     9  C    5.388660   6.714537   7.901640   0.000000
    10  C    6.778032   8.098460   9.290778   1.389810   0.000000
    11  C    7.635374   8.842461  10.142494   2.440807   1.388842
    12  C    7.256888   8.305329   9.701747   2.770604   2.366352
    13  C    6.002830   6.978707   8.402350   2.423853   2.761655
    14  H    3.855732   4.611621   6.085479   3.354424   4.455341
    15  H    2.133209   2.539021   4.030393   4.817720   6.125846
    16  H    1.094338   2.167656   2.793347   5.343868   6.710679
    17  H    1.099297   2.161917   2.735532   5.586608   6.948321
    18  H    2.148486   1.093941   2.167386   6.954131   8.313354
    19  H    2.142701   1.094136   2.165805   6.807527   8.164789
    20  H    2.790398   2.173496   1.093793   8.072650   9.450200
    21  H    3.479552   2.177374   1.092419   8.831031  10.219599
    22  H    2.780114   2.175102   1.094083   7.937923   9.310810
    23  H    4.899678   6.320808   7.366730   1.080081   2.157726
    24  Cl   8.691631   9.592950  11.050091   4.524303   3.982151
    25  H    6.021086   6.794884   8.277064   3.404350   3.847346
    26  C    7.579892   8.993667  10.045519   2.475928   1.499448
    27  H    8.701122   9.920562  11.211672   3.424097   2.165885
    28  F    7.743510   9.215929  10.173576   3.063247   2.364474
    29  F    8.863139  10.246782  11.334074   3.621132   2.369289
    30  F    7.309731   8.730521   9.671453   2.821057   2.365979
    31  O    4.900429   5.202522   6.712284   4.878291   5.774735
    32  O    3.684992   3.440232   4.858681   6.078081   7.248569
    33  C    4.668727   4.619686   6.076310   5.881283   6.892148
    34  C    6.059473   5.774618   7.136666   7.237542   8.130162
    35  C    6.310996   5.677755   6.842415   8.446725   9.442517
    36  H    6.651319   6.508242   7.864978   7.325465   8.107708
    37  H    6.634621   6.362142   7.757391   7.406485   8.210127
    38  H    6.014554   5.364814   6.425366   8.508123   9.556953
    39  H    7.401847   6.726163   7.836001   9.368262  10.295686
    40  H    5.994463   5.183929   6.290744   8.577751   9.644023
                   11         12         13         14         15
    11  C    0.000000
    12  C    1.390151   0.000000
    13  C    2.429894   1.378461   0.000000
    14  H    4.693134   3.840364   2.464273   0.000000
    15  H    6.633502   5.922043   4.559351   2.122495   0.000000
    16  H    7.689654   7.465562   6.294911   4.366590   2.940965
    17  H    7.855470   7.550330   6.345488   4.332111   2.751952
    18  H    8.932598   8.266654   6.907357   4.470391   2.360701
    19  H    8.848423   8.262236   6.936933   4.586226   2.658356
    20  H   10.335768   9.940618   8.664875   6.405627   4.392479
    21  H   11.007546  10.481536   9.150447   6.758966   4.656009
    22  H   10.255951   9.932065   8.684556   6.485304   4.560000
    23  H    3.417692   3.850678   3.404203   3.749878   4.771406
    24  Cl   2.705745   1.753703   2.704909   4.989020   7.106707
    25  H    3.414257   2.152961   1.085702   2.193223   4.282526
    26  C    2.491258   3.747000   4.260447   5.798840   7.267591
    27  H    1.081113   2.158330   3.407304   5.749189   7.711184
    28  F    3.295904   4.468081   4.904147   6.270273   7.587724
    29  F    2.719897   4.103705   4.952331   6.812941   8.433275
    30  F    3.535477   4.662295   4.944038   6.087636   7.295818
    31  O    5.665478   4.503742   3.235923   1.724772   2.793721
    32  O    7.461192   6.475051   5.116002   2.808972   1.800543
    33  C    6.879817   5.749203   4.457849   2.543721   2.574092
    34  C    7.927899   6.674561   5.513474   3.975586   4.038101
    35  C    9.344665   8.131088   6.918383   5.105843   4.564650
    36  H    7.787209   6.495822   5.443244   4.246963   4.607485
    37  H    7.905361   6.611814   5.538029   4.264961   4.588305
    38  H    9.546275   8.390855   7.147318   5.218988   4.438128
    39  H   10.092874   8.823003   7.684520   6.056193   5.650143
    40  H    9.643205   8.481356   7.219919   5.233053   4.416810
                   16         17         18         19         20
    16  H    0.000000
    17  H    1.756196   0.000000
    18  H    3.062799   2.531591   0.000000
    19  H    2.489102   3.057303   1.746470   0.000000
    20  H    3.169388   2.550673   2.528652   3.079071   0.000000
    21  H    3.791235   3.751105   2.518308   2.512253   1.764692
    22  H    2.604163   3.070175   3.081473   2.533960   1.763931
    23  H    4.704546   5.033952   6.690434   6.478432   7.499663
    24  Cl   8.992175   9.015299   9.429268   9.489566  11.315845
    25  H    6.450546   6.421058   6.588585   6.703399   8.577765
    26  C    7.359584   7.658356   9.317287   9.109350  10.147628
    27  H    8.727873   8.901790  10.012464   9.919066  11.395413
    28  F    7.578427   7.628632   9.499407   9.485224  10.130645
    29  F    8.634938   8.981113  10.555873  10.303813  11.468093
    30  F    6.903525   7.447553   9.203494   8.796646   9.825783
    31  O    5.585619   5.410095   4.766011   5.063201   7.082796
    32  O    4.575975   4.211029   2.763466   3.389749   5.246690
    33  C    5.484082   5.187258   4.004507   4.483285   6.462463
    34  C    6.907379   6.553446   5.024999   5.579096   7.528434
    35  C    7.216281   6.772610   4.802272   5.500723   7.226773
    36  H    7.540643   7.015175   5.709054   6.437875   8.142736
    37  H    7.375601   7.246622   5.730359   6.000533   8.257559
    38  H    7.003104   6.320353   4.374881   5.390351   6.665245
    39  H    8.304207   7.851813   5.837739   6.522214   8.214801
    40  H    6.822658   6.576090   4.400993   4.855030   6.804010
                   21         22         23         24         25
    21  H    0.000000
    22  H    1.766000   0.000000
    23  H    8.351585   7.300465   0.000000
    24  Cl  11.745533  11.363055   5.604371   0.000000
    25  H    8.925937   8.664587   4.297498   2.857309   0.000000
    26  C   11.033841   9.946024   2.682538   5.194745   5.346062
    27  H   12.083528  11.305974   4.316149   2.850174   4.304579
    28  F   11.201266  10.107279   3.068882   5.883272   5.957006
    29  F   12.305985  11.225342   3.975089   5.209303   6.012387
    30  F   10.672034   9.432168   2.594035   6.195837   6.001408
    31  O    7.163036   7.288566   5.417098   5.097715   2.374268
    32  O    5.141928   5.608211   6.259903   7.280626   4.465979
    33  C    6.377417   6.774968   6.274695   6.325171   3.627776
    34  C    7.252345   7.916981   7.721626   6.893330   4.529744
    35  C    6.743098   7.719554   8.808093   8.409976   5.981051
    36  H    8.037817   8.677805   7.894735   6.547721   4.427214
    37  H    7.854663   8.453640   7.961058   6.676919   4.515086
    38  H    6.332606   7.384384   8.795723   8.779903   6.277052
    39  H    7.658690   8.726321   9.789268   8.915798   6.689016
    40  H    6.095396   7.116486   8.854844   8.877410   6.339557
                   26         27         28         29         30
    26  C    0.000000
    27  H    2.721986   0.000000
    28  F    1.347931   3.482473   0.000000
    29  F    1.346777   2.405711   2.153698   0.000000
    30  F    1.342214   3.853527   2.151184   2.156870   0.000000
    31  O    7.216603   6.627256   7.716645   8.091067   7.630933
    32  O    8.547588   8.496096   8.907005   9.609556   8.737422
    33  C    8.292331   7.860116   8.727585   9.237355   8.624958
    34  C    9.578759   8.830443  10.031818  10.432608   9.994722
    35  C   10.853120  10.278454  11.250867  11.779309  11.189491
    36  H    9.568230   8.631698   9.943963  10.371910  10.121317
    37  H    9.681804   8.758927  10.265035  10.442330  10.081894
    38  H   10.921571  10.503806  11.194627  11.916134  11.267562
    39  H   11.734928  10.979718  12.148275  12.605337  12.123583
    40  H   11.021231  10.609045  11.481685  11.977438  11.231357
                   31         32         33         34         35
    31  O    0.000000
    32  O    2.237064   0.000000
    33  C    1.258211   1.250480   0.000000
    34  C    2.371036   2.393820   1.536006   0.000000
    35  C    3.700286   2.765224   2.569116   1.522228   0.000000
    36  H    2.617777   3.091292   2.130980   1.094522   2.172941
    37  H    2.612949   3.095137   2.130971   1.094456   2.173192
    38  H    4.004026   2.720062   2.826695   2.164237   1.091253
    39  H    4.531291   3.850417   3.517283   2.174930   1.094427
    40  H    4.000516   2.723117   2.826049   2.164253   1.091297
                   36         37         38         39         40
    36  H    0.000000
    37  H    1.742903   0.000000
    38  H    2.534127   3.078634   0.000000
    39  H    2.524236   2.523961   1.774196   0.000000
    40  H    3.078513   2.535129   1.751835   1.774320   0.000000
 Stoichiometry    C14H17ClF3N2O3(1-)
 Framework group  C1[X(C14H17ClF3N2O3)]
 Deg. of freedom   114
 Full point group                 C1      NOp   1
 Largest Abelian subgroup         C1      NOp   1
 Largest concise Abelian subgroup C1      NOp   1
                         Standard orientation:                         
 ---------------------------------------------------------------------
 Center     Atomic      Atomic             Coordinates (Angstroms)
 Number     Number       Type             X           Y           Z
 ---------------------------------------------------------------------
      1          6           0       -0.898594    0.092655   -0.045547
      2          7           0        0.437006   -0.235904   -0.055520
      3          6           0        0.987405   -1.511197   -0.004593
      4          8           0        0.324886   -2.541876    0.049576
      5          7           0        2.340496   -1.491374   -0.030388
      6          6           0        3.091191   -2.719595    0.096212
      7          6           0        4.552805   -2.470005   -0.254056
      8          6           0        5.396769   -3.728434   -0.079259
      9          6           0       -1.954912   -0.832671   -0.022184
     10          6           0       -3.264215   -0.366523   -0.020354
     11          6           0       -3.583945    0.984883   -0.039179
     12          6           0       -2.520078    1.879348   -0.064448
     13          6           0       -1.203405    1.471284   -0.067931
     14          1           0        1.090760    0.571721   -0.083187
     15          1           0        2.857012   -0.600580    0.021927
     16          1           0        2.657869   -3.475250   -0.566203
     17          1           0        3.012839   -3.120554    1.116775
     18          1           0        4.939004   -1.657873    0.368841
     19          1           0        4.611131   -2.110481   -1.285790
     20          1           0        5.371139   -4.079028    0.956506
     21          1           0        6.441771   -3.549333   -0.342458
     22          1           0        5.028813   -4.542695   -0.710610
     23          1           0       -1.736642   -1.890399   -0.010086
     24         17           0       -2.877071    3.596032   -0.096506
     25          1           0       -0.389755    2.189830   -0.088283
     26          6           0       -4.368843   -1.377540    0.057018
     27          1           0       -4.607765    1.332148   -0.041548
     28          9           0       -4.512094   -1.880370    1.299420
     29          9           0       -5.566899   -0.861412   -0.277770
     30          9           0       -4.163460   -2.429338   -0.751113
     31          8           0        1.980332    2.049314   -0.097935
     32          8           0        3.874650    0.881008    0.128064
     33          6           0        3.227985    1.946632    0.028205
     34          6           0        4.006789    3.270190    0.059368
     35          6           0        5.513284    3.107104    0.204469
     36          1           0        3.592059    3.866592    0.878075
     37          1           0        3.752904    3.812829   -0.856558
     38          1           0        5.757144    2.572916    1.124257
     39          1           0        6.020093    4.076975    0.220690
     40          1           0        5.919038    2.517299   -0.619195
 ---------------------------------------------------------------------
 Rotational constants (GHZ):      0.2771636      0.1145474      0.0825055
 Standard basis: 6-311+G(d) (5D, 7F)
 There are   588 symmetry adapted cartesian basis functions of A   symmetry.
 There are   565 symmetry adapted basis functions of A   symmetry.
   565 basis functions,   930 primitive gaussians,   588 cartesian basis functions
    92 alpha electrons       92 beta electrons
       nuclear repulsion energy      2087.6997620651 Hartrees.
 NAtoms=   40 NActive=   40 NUniq=   40 SFac= 1.00D+00 NAtFMM=   60 NAOKFM=F Big=F
 Integral buffers will be    131072 words long.
 Raffenetti 2 integral format.
 Two-electron integral symmetry is turned on.
 Nuclear repulsion after empirical dispersion term =     2087.6972827739 Hartrees.
 One-electron integrals computed using PRISM.
 NBasis=   565 RedAO= T EigKep=  1.26D-06  NBF=   565
 NBsUse=   562 1.00D-06 EigRej=  9.18D-07 NBFU=   562
 ExpMin= 4.38D-02 ExpMax= 1.06D+05 ExpMxC= 3.62D+03 IAcc=3 IRadAn=         5 AccDes= 0.00D+00
 Harris functional with IExCor= 1009 and IRadAn=       5 diagonalized for initial guess.
 HarFok:  IExCor= 1009 AccDes= 0.00D+00 IRadAn=         5 IDoV= 1 UseB2=F ITyADJ=14
 ICtDFT=  3500011 ScaDFX=  1.000000  1.000000  1.000000  1.000000
 FoFCou: FMM=F IPFlag=           0 FMFlag=      100000 FMFlg1=           0
         NFxFlg=           0 DoJE=T BraDBF=F KetDBF=T FulRan=T
         wScrn=  0.000000 ICntrl=     500 IOpCl=  0 I1Cent=   200000004 NGrid=           0
         NMat0=    1 NMatS0=      1 NMatT0=    0 NMatD0=    1 NMtDS0=    0 NMtDT0=    0
 Petite list used in FoFCou.
 Requested convergence on RMS density matrix=1.00D-08 within 128 cycles.
 Requested convergence on MAX density matrix=1.00D-06.
 Requested convergence on             energy=1.00D-06.
 No special actions if energy rises.
 SCF Done:  E(RM062X) =  -1638.67840941     A.U. after   15 cycles
            NFock= 15  Conv=0.82D-08     -V/T= 2.0029

 **********************************************************************

            Population analysis using the SCF density.

 **********************************************************************

 Orbital symmetries:
       Occupied  (A) (A) (A) (A) (A) (A) (A) (A) (A) (A) (A) (A)
                 (A) (A) (A) (A) (A) (A) (A) (A) (A) (A) (A) (A)
                 (A) (A) (A) (A) (A) (A) (A) (A) (A) (A) (A) (A)
                 (A) (A) (A) (A) (A) (A) (A) (A) (A) (A) (A) (A)
                 (A) (A) (A) (A) (A) (A) (A) (A) (A) (A) (A) (A)
                 (A) (A) (A) (A) (A) (A) (A) (A) (A) (A) (A) (A)
                 (A) (A) (A) (A) (A) (A) (A) (A) (A) (A) (A) (A)
                 (A) (A) (A) (A) (A) (A) (A) (A)
       Virtual   (A) (A) (A) (A) (A) (A) (A) (A) (A) (A) (A) (A)
                 (A) (A) (A) (A) (A) (A) (A) (A) (A) (A) (A) (A)
                 (A) (A) (A) (A) (A) (A) (A) (A) (A) (A) (A) (A)
                 (A) (A) (A) (A) (A) (A) (A) (A) (A) (A) (A) (A)
                 (A) (A) (A) (A) (A) (A) (A) (A) (A) (A) (A) (A)
                 (A) (A) (A) (A) (A) (A) (A) (A) (A) (A) (A) (A)
                 (A) (A) (A) (A) (A) (A) (A) (A) (A) (A) (A) (A)
                 (A) (A) (A) (A) (A) (A) (A) (A) (A) (A) (A) (A)
                 (A) (A) (A) (A) (A) (A) (A) (A) (A) (A) (A) (A)
                 (A) (A) (A) (A) (A) (A) (A) (A) (A) (A) (A) (A)
                 (A) (A) (A) (A) (A) (A) (A) (A) (A) (A) (A) (A)
                 (A) (A) (A) (A) (A) (A) (A) (A) (A) (A) (A) (A)
                 (A) (A) (A) (A) (A) (A) (A) (A) (A) (A) (A) (A)
                 (A) (A) (A) (A) (A) (A) (A) (A) (A) (A) (A) (A)
                 (A) (A) (A) (A) (A) (A) (A) (A) (A) (A) (A) (A)
                 (A) (A) (A) (A) (A) (A) (A) (A) (A) (A) (A) (A)
                 (A) (A) (A) (A) (A) (A) (A) (A) (A) (A) (A) (A)
                 (A) (A) (A) (A) (A) (A) (A) (A) (A) (A) (A) (A)
                 (A) (A) (A) (A) (A) (A) (A) (A) (A) (A) (A) (A)
                 (A) (A) (A) (A) (A) (A) (A) (A) (A) (A) (A) (A)
                 (A) (A) (A) (A) (A) (A) (A) (A) (A) (A) (A) (A)
                 (A) (A) (A) (A) (A) (A) (A) (A) (A) (A) (A) (A)
                 (A) (A) (A) (A) (A) (A) (A) (A) (A) (A) (A) (A)
                 (A) (A) (A) (A) (A) (A) (A) (A) (A) (A) (A) (A)
                 (A) (A) (A) (A) (A) (A) (A) (A) (A) (A) (A) (A)
                 (A) (A) (A) (A) (A) (A) (A) (A) (A) (A) (A) (A)
                 (A) (A) (A) (A) (A) (A) (A) (A) (A) (A) (A) (A)
                 (A) (A) (A) (A) (A) (A) (A) (A) (A) (A) (A) (A)
                 (A) (A) (A) (A) (A) (A) (A) (A) (A) (A) (A) (A)
                 (A) (A) (A) (A) (A) (A) (A) (A) (A) (A) (A) (A)
                 (A) (A) (A) (A) (A) (A) (A) (A) (A) (A) (A) (A)
                 (A) (A) (A) (A) (A) (A) (A) (A) (A) (A) (A) (A)
                 (A) (A) (A) (A) (A) (A) (A) (A) (A) (A) (A) (A)
                 (A) (A) (A) (A) (A) (A) (A) (A) (A) (A) (A) (A)
                 (A) (A) (A) (A) (A) (A) (A) (A) (A) (A) (A) (A)
                 (A) (A) (A) (A) (A) (A) (A) (A) (A) (A) (A) (A)
                 (A) (A) (A) (A) (A) (A) (A) (A) (A) (A) (A) (A)
                 (A) (A) (A) (A) (A) (A) (A) (A) (A) (A) (A) (A)
                 (A) (A) (A) (A) (A) (A) (A) (A) (A) (A) (A) (A)
                 (A) (A)
 The electronic state is 1-A.
 Alpha  occ. eigenvalues -- -102.58658 -25.19113 -25.18690 -25.18463 -19.46859
 Alpha  occ. eigenvalues --  -19.44530 -19.44271 -14.65254 -14.63365 -10.71182
 Alpha  occ. eigenvalues --  -10.55225 -10.51780 -10.50740 -10.50300 -10.48054
 Alpha  occ. eigenvalues --  -10.46409 -10.46143 -10.45383 -10.45039 -10.44188
 Alpha  occ. eigenvalues --  -10.43558 -10.41769 -10.41718  -9.72930  -7.45432
 Alpha  occ. eigenvalues --   -7.44779  -7.44770  -1.38068  -1.28802  -1.28316
 Alpha  occ. eigenvalues --   -1.05719  -1.03591  -0.94441  -0.93729  -0.91354
 Alpha  occ. eigenvalues --   -0.89731  -0.85324  -0.79172  -0.77667  -0.75065
 Alpha  occ. eigenvalues --   -0.74107  -0.71725  -0.68170  -0.63948  -0.62262
 Alpha  occ. eigenvalues --   -0.61430  -0.60386  -0.60177  -0.57994  -0.55852
 Alpha  occ. eigenvalues --   -0.54562  -0.51404  -0.49468  -0.48696  -0.48511
 Alpha  occ. eigenvalues --   -0.47921  -0.46192  -0.45257  -0.44852  -0.44351
 Alpha  occ. eigenvalues --   -0.43071  -0.42984  -0.42450  -0.41689  -0.41275
 Alpha  occ. eigenvalues --   -0.41071  -0.40826  -0.39721  -0.38797  -0.38334
 Alpha  occ. eigenvalues --   -0.38010  -0.36834  -0.35892  -0.35297  -0.34383
 Alpha  occ. eigenvalues --   -0.33869  -0.33036  -0.32786  -0.31897  -0.31066
 Alpha  occ. eigenvalues --   -0.30621  -0.29857  -0.29127  -0.28895  -0.27378
 Alpha  occ. eigenvalues --   -0.23185  -0.21548  -0.20427  -0.20006  -0.19515
 Alpha  occ. eigenvalues --   -0.19321  -0.16183
 Alpha virt. eigenvalues --    0.09346   0.09425   0.09754   0.10412   0.11023
 Alpha virt. eigenvalues --    0.11150   0.11699   0.11962   0.12244   0.12805
 Alpha virt. eigenvalues --    0.13085   0.13356   0.13817   0.13948   0.14691
 Alpha virt. eigenvalues --    0.15062   0.15195   0.15778   0.15859   0.16359
 Alpha virt. eigenvalues --    0.16593   0.16853   0.17530   0.17599   0.18223
 Alpha virt. eigenvalues --    0.18716   0.19035   0.19474   0.20220   0.20334
 Alpha virt. eigenvalues --    0.20571   0.20656   0.21189   0.21592   0.22243
 Alpha virt. eigenvalues --    0.22265   0.22448   0.22742   0.23445   0.24290
 Alpha virt. eigenvalues --    0.24620   0.25081   0.25295   0.25745   0.26401
 Alpha virt. eigenvalues --    0.26644   0.27469   0.27786   0.27854   0.28296
 Alpha virt. eigenvalues --    0.28528   0.29071   0.29502   0.29880   0.30294
 Alpha virt. eigenvalues --    0.30551   0.30705   0.30805   0.31264   0.31753
 Alpha virt. eigenvalues --    0.32102   0.32743   0.32985   0.33102   0.33314
 Alpha virt. eigenvalues --    0.33942   0.34063   0.34250   0.34960   0.35085
 Alpha virt. eigenvalues --    0.35573   0.35787   0.35919   0.36122   0.36519
 Alpha virt. eigenvalues --    0.36902   0.37212   0.37363   0.37560   0.37785
 Alpha virt. eigenvalues --    0.38416   0.38520   0.38907   0.39180   0.39459
 Alpha virt. eigenvalues --    0.39636   0.40508   0.40603   0.40826   0.41805
 Alpha virt. eigenvalues --    0.42250   0.42530   0.43115   0.43353   0.43761
 Alpha virt. eigenvalues --    0.44182   0.44645   0.44843   0.45246   0.45417
 Alpha virt. eigenvalues --    0.45789   0.46151   0.46681   0.47463   0.47620
 Alpha virt. eigenvalues --    0.47738   0.48435   0.48942   0.49606   0.49714
 Alpha virt. eigenvalues --    0.49984   0.50380   0.50886   0.51060   0.52404
 Alpha virt. eigenvalues --    0.52657   0.52990   0.53812   0.54181   0.54564
 Alpha virt. eigenvalues --    0.54887   0.56055   0.56343   0.56910   0.57484
 Alpha virt. eigenvalues --    0.57631   0.58144   0.59210   0.60045   0.61225
 Alpha virt. eigenvalues --    0.61524   0.62143   0.62661   0.63784   0.64064
 Alpha virt. eigenvalues --    0.64882   0.65134   0.65334   0.66130   0.66593
 Alpha virt. eigenvalues --    0.67349   0.67940   0.68399   0.69225   0.70635
 Alpha virt. eigenvalues --    0.71234   0.71662   0.72206   0.73338   0.73989
 Alpha virt. eigenvalues --    0.75077   0.75932   0.76626   0.76710   0.77031
 Alpha virt. eigenvalues --    0.78346   0.78413   0.78587   0.79245   0.79908
 Alpha virt. eigenvalues --    0.80283   0.81305   0.81377   0.81754   0.82649
 Alpha virt. eigenvalues --    0.82954   0.83545   0.83987   0.84334   0.84613
 Alpha virt. eigenvalues --    0.85627   0.86551   0.86714   0.87468   0.87869
 Alpha virt. eigenvalues --    0.88583   0.88743   0.89268   0.89418   0.90003
 Alpha virt. eigenvalues --    0.90608   0.91562   0.92119   0.92214   0.93341
 Alpha virt. eigenvalues --    0.94194   0.98478   0.98883   1.00306   1.00694
 Alpha virt. eigenvalues --    1.01767   1.02475   1.03200   1.03879   1.04847
 Alpha virt. eigenvalues --    1.06049   1.06610   1.07446   1.07697   1.08740
 Alpha virt. eigenvalues --    1.09811   1.10430   1.11074   1.12284   1.12986
 Alpha virt. eigenvalues --    1.14749   1.15414   1.16394   1.18320   1.18655
 Alpha virt. eigenvalues --    1.20157   1.20513   1.21651   1.22331   1.25269
 Alpha virt. eigenvalues --    1.26226   1.26847   1.28294   1.28925   1.29579
 Alpha virt. eigenvalues --    1.31146   1.32496   1.33584   1.34352   1.34636
 Alpha virt. eigenvalues --    1.35580   1.35751   1.37918   1.38278   1.40113
 Alpha virt. eigenvalues --    1.40801   1.42730   1.43172   1.43813   1.45119
 Alpha virt. eigenvalues --    1.46596   1.47959   1.49014   1.49290   1.50920
 Alpha virt. eigenvalues --    1.52888   1.54948   1.55819   1.56252   1.56481
 Alpha virt. eigenvalues --    1.56838   1.58001   1.58870   1.59975   1.60910
 Alpha virt. eigenvalues --    1.61323   1.63070   1.63285   1.63852   1.63888
 Alpha virt. eigenvalues --    1.65834   1.67046   1.67731   1.68860   1.69870
 Alpha virt. eigenvalues --    1.70015   1.70834   1.71975   1.72354   1.72937
 Alpha virt. eigenvalues --    1.73548   1.74880   1.75487   1.76775   1.79032
 Alpha virt. eigenvalues --    1.79546   1.81894   1.83080   1.86113   1.87065
 Alpha virt. eigenvalues --    1.87499   1.88340   1.89032   1.89260   1.90122
 Alpha virt. eigenvalues --    1.91767   1.92409   1.93316   1.93996   1.94792
 Alpha virt. eigenvalues --    1.96416   1.97669   1.98690   2.00497   2.01195
 Alpha virt. eigenvalues --    2.02477   2.04155   2.05598   2.06111   2.08724
 Alpha virt. eigenvalues --    2.09001   2.10680   2.12255   2.13654   2.15733
 Alpha virt. eigenvalues --    2.16817   2.18715   2.21431   2.22540   2.23878
 Alpha virt. eigenvalues --    2.27358   2.27839   2.29137   2.29927   2.33328
 Alpha virt. eigenvalues --    2.34563   2.37622   2.39376   2.40015   2.41853
 Alpha virt. eigenvalues --    2.45459   2.45788   2.48035   2.50389   2.51568
 Alpha virt. eigenvalues --    2.57123   2.59522   2.59929   2.63391   2.63993
 Alpha virt. eigenvalues --    2.64652   2.64884   2.66115   2.68167   2.69092
 Alpha virt. eigenvalues --    2.69825   2.71000   2.72577   2.73236   2.75217
 Alpha virt. eigenvalues --    2.77260   2.77851   2.78766   2.81389   2.81842
 Alpha virt. eigenvalues --    2.87771   2.88659   2.88981   2.93715   2.95150
 Alpha virt. eigenvalues --    2.96323   2.98326   3.01408   3.03181   3.05356
 Alpha virt. eigenvalues --    3.06649   3.08036   3.09412   3.10745   3.11652
 Alpha virt. eigenvalues --    3.12830   3.13632   3.13917   3.15069   3.17175
 Alpha virt. eigenvalues --    3.17436   3.20702   3.22591   3.23263   3.25462
 Alpha virt. eigenvalues --    3.27051   3.28624   3.31486   3.33917   3.36037
 Alpha virt. eigenvalues --    3.36640   3.37076   3.38095   3.40804   3.43919
 Alpha virt. eigenvalues --    3.44705   3.48249   3.48925   3.50773   3.52205
 Alpha virt. eigenvalues --    3.53662   3.54668   3.55232   3.55810   3.58406
 Alpha virt. eigenvalues --    3.60156   3.62648   3.71589   3.75905   3.78520
 Alpha virt. eigenvalues --    3.83432   3.84283   3.86580   3.89950   3.90235
 Alpha virt. eigenvalues --    3.91161   3.93433   3.93877   3.95224   3.96309
 Alpha virt. eigenvalues --    3.96907   3.98337   4.01294   4.07365   4.10419
 Alpha virt. eigenvalues --    4.11121   4.12684   4.13440   4.17754   4.18460
 Alpha virt. eigenvalues --    4.19716   4.22557   4.31193   4.32972   4.34916
 Alpha virt. eigenvalues --    4.36045   4.39757   4.76442   4.81485   4.86422
 Alpha virt. eigenvalues --    4.91294   5.05555   5.07779   5.10060   5.30958
 Alpha virt. eigenvalues --    5.32625   5.33799   5.36079   5.53065   5.56711
 Alpha virt. eigenvalues --    5.58276   5.90193   6.03737   6.16456   6.54851
 Alpha virt. eigenvalues --    6.58548   6.60266   6.61331   6.61544   6.67411
 Alpha virt. eigenvalues --    6.70965   6.96426   6.98188  10.06558  23.57427
 Alpha virt. eigenvalues --   23.69552  23.73635  23.75105  23.85991  23.91517
 Alpha virt. eigenvalues --   23.92333  24.02276  24.07016  24.10096  24.10650
 Alpha virt. eigenvalues --   24.19177  24.22917  24.30382  26.03144  26.33803
 Alpha virt. eigenvalues --   26.81066  35.77020  35.86724  50.21151  50.28624
 Alpha virt. eigenvalues --   50.29647  66.98176  67.00025  67.05399 216.16794
          Condensed to atoms (all electrons):
               1          2          3          4          5          6
     1  C   33.528319  -0.286609   0.810725  -0.309247  -0.100525  -0.305755
     2  N   -0.286609   8.375118   0.388540  -0.079212  -0.725252  -0.702504
     3  C    0.810725   0.388540   9.684385   0.692714   0.161485  -1.723216
     4  O   -0.309247  -0.079212   0.692714   8.113632  -0.189089  -0.138999
     5  N   -0.100525  -0.725252   0.161485  -0.189089   8.194703   0.701742
     6  C   -0.305755  -0.702504  -1.723216  -0.138999   0.701742   9.413160
     7  C   -0.009997   0.069942   0.440199   0.024992  -0.091650  -1.177197
     8  C   -0.011821  -0.023665  -0.340150  -0.001789  -0.041672   0.545203
     9  C   -7.372492   0.523278  -1.327974   0.277260  -0.144112  -0.529717
    10  C  -14.529422   0.186808  -0.983411   0.103346   0.071619  -0.046471
    11  C    0.987444  -0.032543   0.120518  -0.008771  -0.024366   0.012833
    12  C   -5.610719  -0.005348  -1.003202  -0.009672  -0.049111  -0.115094
    13  C    3.866542  -0.277070  -0.519759  -0.075181  -0.331506  -0.219303
    14  H   -0.057415   0.071529  -0.052081  -0.002427   0.021822   0.027047
    15  H   -0.030308   0.032003  -0.026873  -0.008245   0.095971   0.018144
    16  H    0.014205   0.010331   0.060654   0.003366  -0.074873   0.333837
    17  H    0.010376   0.007738   0.065931  -0.003535  -0.069741   0.400962
    18  H   -0.002862  -0.001804  -0.018456  -0.000312   0.009938  -0.069754
    19  H    0.002886   0.000782   0.027647  -0.000201   0.003758  -0.065013
    20  H    0.000105   0.000083   0.005286  -0.000002   0.000507  -0.023553
    21  H    0.000082  -0.000012   0.004792   0.000017  -0.002085   0.080097
    22  H   -0.000153  -0.000079  -0.007319  -0.000092   0.000591  -0.056995
    23  H    0.133748  -0.031967   0.100503   0.008691   0.007699   0.011038
    24  Cl  -0.234381  -0.019769  -0.065045  -0.000155  -0.000670  -0.002347
    25  H    0.095010  -0.029132  -0.011431   0.000171   0.000713  -0.000634
    26  C   -3.297602   0.042728  -0.405095   0.003183   0.000392  -0.029469
    27  H   -0.004742   0.000725   0.002664  -0.000011   0.000005   0.000023
    28  F    0.006734   0.000819   0.003690   0.000044  -0.000000   0.000015
    29  F    0.061255   0.000197   0.002517   0.000025   0.000005   0.000039
    30  F    0.081969   0.000071   0.005593  -0.000275  -0.000103  -0.000116
    31  O   -0.241349   0.035569   0.010164  -0.000925  -0.058766  -0.016345
    32  O   -0.006343  -0.040468  -0.057306   0.000223  -0.005291   0.082806
    33  C    0.265690  -0.005728   0.015198  -0.001069   0.043518   0.004987
    34  C   -0.223680  -0.050542  -0.068815  -0.001282  -0.071744   0.095115
    35  C   -0.001347   0.002135   0.005484   0.000114   0.012424  -0.017092
    36  H    0.001949   0.000112  -0.000285  -0.000001   0.000264   0.000190
    37  H    0.001392   0.000523   0.000570   0.000001  -0.000100  -0.000512
    38  H    0.000088  -0.000009  -0.000244  -0.000000   0.000176  -0.000014
    39  H    0.000131   0.000023   0.000220   0.000000  -0.000084  -0.000127
    40  H    0.000156  -0.000035  -0.000531  -0.000000   0.000140   0.000919
               7          8          9         10         11         12
     1  C   -0.009997  -0.011821  -7.372492 -14.529422   0.987444  -5.610719
     2  N    0.069942  -0.023665   0.523278   0.186808  -0.032543  -0.005348
     3  C    0.440199  -0.340150  -1.327974  -0.983411   0.120518  -1.003202
     4  O    0.024992  -0.001789   0.277260   0.103346  -0.008771  -0.009672
     5  N   -0.091650  -0.041672  -0.144112   0.071619  -0.024366  -0.049111
     6  C   -1.177197   0.545203  -0.529717  -0.046471   0.012833  -0.115094
     7  C    6.732609  -0.553619   0.017415  -0.003442  -0.000060   0.002169
     8  C   -0.553619   6.537510  -0.008622   0.000474   0.000042  -0.001591
     9  C    0.017415  -0.008622  23.161822   6.199586  -3.589464  -3.142346
    10  C   -0.003442   0.000474   6.199586  27.258472  -6.388808  -2.365179
    11  C   -0.000060   0.000042  -3.589464  -6.388808  22.139185  -3.455027
    12  C    0.002169  -0.001591  -3.142346  -2.365179  -3.455027  19.887172
    13  C    0.019559  -0.009119  -7.687212  -5.513142  -0.620207   2.391008
    14  H   -0.007081   0.000290  -0.036494  -0.004734   0.006308   0.029757
    15  H   -0.040488   0.010283  -0.038900  -0.008637   0.002139  -0.000748
    16  H    0.018571  -0.015149  -0.019117  -0.001777   0.000249   0.000151
    17  H   -0.074842  -0.024529   0.005630   0.000281  -0.000030   0.000237
    18  H    0.471938  -0.058020  -0.001888  -0.000104   0.000015   0.000024
    19  H    0.431873  -0.073514   0.000622   0.000021  -0.000003   0.000039
    20  H    0.039720   0.324586   0.000015  -0.000001   0.000000   0.000001
    21  H   -0.142982   0.410651   0.000054   0.000002  -0.000000  -0.000000
    22  H    0.000853   0.407824  -0.000168  -0.000010   0.000000   0.000000
    23  H   -0.000461   0.000093   0.242428  -0.176714   0.015869  -0.023410
    24  Cl  -0.000014  -0.000008   0.142839  -0.072829   0.401163  -1.241469
    25  H    0.000039   0.000002  -0.019581   0.031720   0.018516  -0.104870
    26  C    0.000527  -0.000280  -0.236770   2.543269  -3.144442  -0.238777
    27  H    0.000000   0.000000  -0.046433  -0.004972   0.153974   0.144157
    28  F   -0.000001  -0.000000  -0.035599   0.085490  -0.039507  -0.016550
    29  F   -0.000001   0.000000   0.083864  -0.307642   0.081032   0.102811
    30  F    0.000007  -0.000001  -0.035438  -0.202040   0.060662   0.013425
    31  O   -0.002073  -0.000235   0.038708   0.010212  -0.012872   0.038739
    32  O   -0.020973   0.009683  -0.002244   0.000756  -0.000528  -0.002420
    33  C    0.007334  -0.011983  -0.156447  -0.062078   0.026987  -0.076760
    34  C   -0.042381   0.010829  -0.099092  -0.020192   0.022759   0.072693
    35  C    0.012634  -0.004561  -0.003156  -0.000874   0.000933   0.003604
    36  H   -0.000217  -0.000021   0.000269   0.000041  -0.000111  -0.000723
    37  H    0.000491   0.000018   0.000259  -0.000013  -0.000083  -0.000980
    38  H    0.000317   0.000212   0.000024   0.000002  -0.000003  -0.000040
    39  H   -0.000035  -0.000014   0.000018   0.000000  -0.000001  -0.000027
    40  H   -0.000430   0.000040   0.000012   0.000003  -0.000002  -0.000019
              13         14         15         16         17         18
     1  C    3.866542  -0.057415  -0.030308   0.014205   0.010376  -0.002862
     2  N   -0.277070   0.071529   0.032003   0.010331   0.007738  -0.001804
     3  C   -0.519759  -0.052081  -0.026873   0.060654   0.065931  -0.018456
     4  O   -0.075181  -0.002427  -0.008245   0.003366  -0.003535  -0.000312
     5  N   -0.331506   0.021822   0.095971  -0.074873  -0.069741   0.009938
     6  C   -0.219303   0.027047   0.018144   0.333837   0.400962  -0.069754
     7  C    0.019559  -0.007081  -0.040488   0.018571  -0.074842   0.471938
     8  C   -0.009119   0.000290   0.010283  -0.015149  -0.024529  -0.058020
     9  C   -7.687212  -0.036494  -0.038900  -0.019117   0.005630  -0.001888
    10  C   -5.513142  -0.004734  -0.008637  -0.001777   0.000281  -0.000104
    11  C   -0.620207   0.006308   0.002139   0.000249  -0.000030   0.000015
    12  C    2.391008   0.029757  -0.000748   0.000151   0.000237   0.000024
    13  C   15.368563   0.053887   0.035264   0.003714  -0.000345   0.001200
    14  H    0.053887   0.315336   0.029192  -0.000041  -0.000148   0.000070
    15  H    0.035264   0.029192   0.340527   0.001779   0.002556   0.006430
    16  H    0.003714  -0.000041   0.001779   0.485444  -0.052003   0.005547
    17  H   -0.000345  -0.000148   0.002556  -0.052003   0.489639  -0.008567
    18  H    0.001200   0.000070   0.006430   0.005547  -0.008567   0.427194
    19  H   -0.000069   0.000043   0.001429  -0.010265   0.006689  -0.035763
    20  H    0.000017   0.000000  -0.000045  -0.000644   0.003471  -0.007882
    21  H   -0.000017   0.000000  -0.000074  -0.000283  -0.000124  -0.003668
    22  H    0.000039  -0.000000   0.000038   0.003586  -0.000957   0.006649
    23  H    0.009664  -0.000596   0.000039  -0.000029  -0.000032  -0.000000
    24  Cl   0.182998   0.002191  -0.000001   0.000001   0.000001   0.000000
    25  H    0.302479   0.012311  -0.000153  -0.000000  -0.000000  -0.000001
    26  C   -0.715299  -0.000654  -0.000571  -0.000274   0.000072  -0.000005
    27  H    0.020167  -0.000006   0.000000  -0.000000  -0.000000   0.000000
    28  F    0.002122   0.000002  -0.000000  -0.000000   0.000000  -0.000000
    29  F    0.018829   0.000002   0.000000   0.000000  -0.000000   0.000000
    30  F    0.008304  -0.000001   0.000000  -0.000001   0.000000  -0.000000
    31  O    0.212274   0.081419   0.012823   0.000013  -0.000030  -0.000033
    32  O   -0.007492   0.009738   0.075027  -0.001318   0.000777  -0.006984
    33  C   -0.077864  -0.013852  -0.009072  -0.000780   0.000673   0.003582
    34  C    0.202972   0.050573   0.058314  -0.000618   0.000197  -0.000951
    35  C    0.000908  -0.003803  -0.007213   0.000101   0.000002   0.002330
    36  H   -0.000652  -0.000325  -0.000110   0.000000  -0.000000   0.000005
    37  H   -0.000938  -0.000338  -0.000020   0.000000   0.000000   0.000003
    38  H   -0.000114  -0.000017  -0.000348  -0.000000   0.000000  -0.000052
    39  H   -0.000113  -0.000002   0.000060  -0.000000   0.000000  -0.000003
    40  H   -0.000073  -0.000016  -0.000371  -0.000000  -0.000000  -0.000046
              19         20         21         22         23         24
     1  C    0.002886   0.000105   0.000082  -0.000153   0.133748  -0.234381
     2  N    0.000782   0.000083  -0.000012  -0.000079  -0.031967  -0.019769
     3  C    0.027647   0.005286   0.004792  -0.007319   0.100503  -0.065045
     4  O   -0.000201  -0.000002   0.000017  -0.000092   0.008691  -0.000155
     5  N    0.003758   0.000507  -0.002085   0.000591   0.007699  -0.000670
     6  C   -0.065013  -0.023553   0.080097  -0.056995   0.011038  -0.002347
     7  C    0.431873   0.039720  -0.142982   0.000853  -0.000461  -0.000014
     8  C   -0.073514   0.324586   0.410651   0.407824   0.000093  -0.000008
     9  C    0.000622   0.000015   0.000054  -0.000168   0.242428   0.142839
    10  C    0.000021  -0.000001   0.000002  -0.000010  -0.176714  -0.072829
    11  C   -0.000003   0.000000  -0.000000   0.000000   0.015869   0.401163
    12  C    0.000039   0.000001  -0.000000   0.000000  -0.023410  -1.241469
    13  C   -0.000069   0.000017  -0.000017   0.000039   0.009664   0.182998
    14  H    0.000043   0.000000   0.000000  -0.000000  -0.000596   0.002191
    15  H    0.001429  -0.000045  -0.000074   0.000038   0.000039  -0.000001
    16  H   -0.010265  -0.000644  -0.000283   0.003586  -0.000029   0.000001
    17  H    0.006689   0.003471  -0.000124  -0.000957  -0.000032   0.000001
    18  H   -0.035763  -0.007882  -0.003668   0.006649  -0.000000   0.000000
    19  H    0.452035   0.006796  -0.004153  -0.008995   0.000000   0.000000
    20  H    0.006796   0.471465  -0.028092  -0.039857   0.000000  -0.000000
    21  H   -0.004153  -0.028092   0.460946  -0.027796   0.000000  -0.000000
    22  H   -0.008995  -0.039857  -0.027796   0.477738  -0.000000   0.000000
    23  H    0.000000   0.000000   0.000000  -0.000000   0.348381  -0.000040
    24  Cl   0.000000  -0.000000  -0.000000   0.000000  -0.000040  17.613317
    25  H   -0.000000   0.000000   0.000000  -0.000000  -0.000003  -0.013348
    26  C    0.000004   0.000000   0.000000  -0.000001   0.021769  -0.043721
    27  H    0.000000   0.000000   0.000000  -0.000000  -0.000202  -0.020417
    28  F    0.000000   0.000000   0.000000  -0.000000  -0.001690  -0.000130
    29  F   -0.000000   0.000000  -0.000000  -0.000000   0.000110   0.001599
    30  F    0.000000   0.000000   0.000000  -0.000000   0.002932  -0.000189
    31  O   -0.000078   0.000001   0.000000  -0.000002  -0.000016  -0.000121
    32  O   -0.000840   0.000144   0.000084  -0.000143  -0.000002  -0.000008
    33  C    0.001147   0.000280  -0.000125  -0.000053   0.000400  -0.002217
    34  C    0.001242   0.000010   0.000094  -0.000045   0.000072  -0.000027
    35  C    0.000200   0.000020  -0.000056   0.000024  -0.000001   0.000180
    36  H    0.000001   0.000000  -0.000000   0.000000   0.000000   0.000023
    37  H   -0.000002   0.000000  -0.000000   0.000000  -0.000000   0.000006
    38  H   -0.000008  -0.000000   0.000000  -0.000000   0.000000  -0.000000
    39  H    0.000000  -0.000000   0.000000  -0.000000  -0.000000   0.000000
    40  H    0.000002  -0.000000   0.000001  -0.000000   0.000000  -0.000000
              25         26         27         28         29         30
     1  C    0.095010  -3.297602  -0.004742   0.006734   0.061255   0.081969
     2  N   -0.029132   0.042728   0.000725   0.000819   0.000197   0.000071
     3  C   -0.011431  -0.405095   0.002664   0.003690   0.002517   0.005593
     4  O    0.000171   0.003183  -0.000011   0.000044   0.000025  -0.000275
     5  N    0.000713   0.000392   0.000005  -0.000000   0.000005  -0.000103
     6  C   -0.000634  -0.029469   0.000023   0.000015   0.000039  -0.000116
     7  C    0.000039   0.000527   0.000000  -0.000001  -0.000001   0.000007
     8  C    0.000002  -0.000280   0.000000  -0.000000   0.000000  -0.000001
     9  C   -0.019581  -0.236770  -0.046433  -0.035599   0.083864  -0.035438
    10  C    0.031720   2.543269  -0.004972   0.085490  -0.307642  -0.202040
    11  C    0.018516  -3.144442   0.153974  -0.039507   0.081032   0.060662
    12  C   -0.104870  -0.238777   0.144157  -0.016550   0.102811   0.013425
    13  C    0.302479  -0.715299   0.020167   0.002122   0.018829   0.008304
    14  H    0.012311  -0.000654  -0.000006   0.000002   0.000002  -0.000001
    15  H   -0.000153  -0.000571   0.000000  -0.000000   0.000000   0.000000
    16  H   -0.000000  -0.000274  -0.000000  -0.000000   0.000000  -0.000001
    17  H   -0.000000   0.000072  -0.000000   0.000000  -0.000000   0.000000
    18  H   -0.000001  -0.000005   0.000000  -0.000000   0.000000  -0.000000
    19  H   -0.000000   0.000004   0.000000   0.000000  -0.000000   0.000000
    20  H    0.000000   0.000000   0.000000   0.000000   0.000000   0.000000
    21  H    0.000000   0.000000   0.000000   0.000000  -0.000000   0.000000
    22  H   -0.000000  -0.000001  -0.000000  -0.000000  -0.000000  -0.000000
    23  H   -0.000003   0.021769  -0.000202  -0.001690   0.000110   0.002932
    24  Cl  -0.013348  -0.043721  -0.020417  -0.000130   0.001599  -0.000189
    25  H    0.331043   0.002539  -0.000320   0.000002  -0.000005  -0.000001
    26  C    0.002539  10.163605   0.064293   0.164242   0.092395   0.233479
    27  H   -0.000320   0.064293   0.406430  -0.000343   0.006475   0.000337
    28  F    0.000002   0.164242  -0.000343   8.992354  -0.040484  -0.052978
    29  F   -0.000005   0.092395   0.006475  -0.040484   9.065872  -0.022316
    30  F   -0.000001   0.233479   0.000337  -0.052978  -0.022316   8.999134
    31  O    0.008730  -0.000551   0.000007  -0.000001   0.000000  -0.000001
    32  O    0.000935   0.000048   0.000000   0.000000  -0.000000   0.000000
    33  C    0.012086  -0.006657  -0.000024  -0.000007   0.000007  -0.000006
    34  C   -0.003760  -0.000319  -0.000004  -0.000000   0.000000  -0.000000
    35  C    0.000340  -0.000071  -0.000000  -0.000000  -0.000000  -0.000000
    36  H   -0.000091   0.000001   0.000000   0.000000   0.000000  -0.000000
    37  H    0.000007  -0.000001   0.000000  -0.000000   0.000000   0.000000
    38  H    0.000000   0.000000   0.000000  -0.000000   0.000000   0.000000
    39  H   -0.000001  -0.000000   0.000000   0.000000  -0.000000   0.000000
    40  H   -0.000001   0.000000  -0.000000   0.000000   0.000000  -0.000000
              31         32         33         34         35         36
     1  C   -0.241349  -0.006343   0.265690  -0.223680  -0.001347   0.001949
     2  N    0.035569  -0.040468  -0.005728  -0.050542   0.002135   0.000112
     3  C    0.010164  -0.057306   0.015198  -0.068815   0.005484  -0.000285
     4  O   -0.000925   0.000223  -0.001069  -0.001282   0.000114  -0.000001
     5  N   -0.058766  -0.005291   0.043518  -0.071744   0.012424   0.000264
     6  C   -0.016345   0.082806   0.004987   0.095115  -0.017092   0.000190
     7  C   -0.002073  -0.020973   0.007334  -0.042381   0.012634  -0.000217
     8  C   -0.000235   0.009683  -0.011983   0.010829  -0.004561  -0.000021
     9  C    0.038708  -0.002244  -0.156447  -0.099092  -0.003156   0.000269
    10  C    0.010212   0.000756  -0.062078  -0.020192  -0.000874   0.000041
    11  C   -0.012872  -0.000528   0.026987   0.022759   0.000933  -0.000111
    12  C    0.038739  -0.002420  -0.076760   0.072693   0.003604  -0.000723
    13  C    0.212274  -0.007492  -0.077864   0.202972   0.000908  -0.000652
    14  H    0.081419   0.009738  -0.013852   0.050573  -0.003803  -0.000325
    15  H    0.012823   0.075027  -0.009072   0.058314  -0.007213  -0.000110
    16  H    0.000013  -0.001318  -0.000780  -0.000618   0.000101   0.000000
    17  H   -0.000030   0.000777   0.000673   0.000197   0.000002  -0.000000
    18  H   -0.000033  -0.006984   0.003582  -0.000951   0.002330   0.000005
    19  H   -0.000078  -0.000840   0.001147   0.001242   0.000200   0.000001
    20  H    0.000001   0.000144   0.000280   0.000010   0.000020   0.000000
    21  H    0.000000   0.000084  -0.000125   0.000094  -0.000056  -0.000000
    22  H   -0.000002  -0.000143  -0.000053  -0.000045   0.000024   0.000000
    23  H   -0.000016  -0.000002   0.000400   0.000072  -0.000001   0.000000
    24  Cl  -0.000121  -0.000008  -0.002217  -0.000027   0.000180   0.000023
    25  H    0.008730   0.000935   0.012086  -0.003760   0.000340  -0.000091
    26  C   -0.000551   0.000048  -0.006657  -0.000319  -0.000071   0.000001
    27  H    0.000007   0.000000  -0.000024  -0.000004  -0.000000   0.000000
    28  F   -0.000001   0.000000  -0.000007  -0.000000  -0.000000   0.000000
    29  F    0.000000  -0.000000   0.000007   0.000000  -0.000000   0.000000
    30  F   -0.000001   0.000000  -0.000006  -0.000000  -0.000000  -0.000000
    31  O    8.425473  -0.141006   0.318617  -0.258295   0.027231  -0.005379
    32  O   -0.141006   8.318632   0.371824  -0.154433   0.016045   0.000853
    33  C    0.318617   0.371824   6.584331  -1.649218   0.373771  -0.019849
    34  C   -0.258295  -0.154433  -1.649218   8.318023  -0.609700   0.400842
    35  C    0.027231   0.016045   0.373771  -0.609700   6.101552  -0.043420
    36  H   -0.005379   0.000853  -0.019849   0.400842  -0.043420   0.461052
    37  H   -0.006087   0.001994  -0.018002   0.403546  -0.045624  -0.034808
    38  H   -0.000117  -0.008938  -0.007161  -0.028121   0.394142  -0.007291
    39  H   -0.000635   0.004366   0.067060  -0.126663   0.401932  -0.003135
    40  H   -0.000413  -0.008746  -0.008578  -0.027283   0.393462   0.006010
              37         38         39         40
     1  C    0.001392   0.000088   0.000131   0.000156
     2  N    0.000523  -0.000009   0.000023  -0.000035
     3  C    0.000570  -0.000244   0.000220  -0.000531
     4  O    0.000001  -0.000000   0.000000  -0.000000
     5  N   -0.000100   0.000176  -0.000084   0.000140
     6  C   -0.000512  -0.000014  -0.000127   0.000919
     7  C    0.000491   0.000317  -0.000035  -0.000430
     8  C    0.000018   0.000212  -0.000014   0.000040
     9  C    0.000259   0.000024   0.000018   0.000012
    10  C   -0.000013   0.000002   0.000000   0.000003
    11  C   -0.000083  -0.000003  -0.000001  -0.000002
    12  C   -0.000980  -0.000040  -0.000027  -0.000019
    13  C   -0.000938  -0.000114  -0.000113  -0.000073
    14  H   -0.000338  -0.000017  -0.000002  -0.000016
    15  H   -0.000020  -0.000348   0.000060  -0.000371
    16  H    0.000000  -0.000000  -0.000000  -0.000000
    17  H    0.000000   0.000000   0.000000  -0.000000
    18  H    0.000003  -0.000052  -0.000003  -0.000046
    19  H   -0.000002  -0.000008   0.000000   0.000002
    20  H    0.000000  -0.000000  -0.000000  -0.000000
    21  H   -0.000000   0.000000   0.000000   0.000001
    22  H    0.000000  -0.000000  -0.000000  -0.000000
    23  H   -0.000000   0.000000  -0.000000   0.000000
    24  Cl   0.000006  -0.000000   0.000000  -0.000000
    25  H    0.000007   0.000000  -0.000001  -0.000001
    26  C   -0.000001   0.000000  -0.000000   0.000000
    27  H    0.000000   0.000000   0.000000  -0.000000
    28  F   -0.000000  -0.000000   0.000000   0.000000
    29  F    0.000000   0.000000  -0.000000   0.000000
    30  F    0.000000   0.000000   0.000000  -0.000000
    31  O   -0.006087  -0.000117  -0.000635  -0.000413
    32  O    0.001994  -0.008938   0.004366  -0.008746
    33  C   -0.018002  -0.007161   0.067060  -0.008578
    34  C    0.403546  -0.028121  -0.126663  -0.027283
    35  C   -0.045624   0.394142   0.401932   0.393462
    36  H   -0.034808  -0.007291  -0.003135   0.006010
    37  H    0.457938   0.005919  -0.003169  -0.007197
    38  H    0.005919   0.460656  -0.033726  -0.031926
    39  H   -0.003169  -0.033726   0.497620  -0.033538
    40  H   -0.007197  -0.031926  -0.033538   0.461067
 Mulliken charges:
               1
     1  C   -1.232037
     2  N   -0.437309
     3  C    0.001713
     4  O   -0.397283
     5  N   -0.346733
     6  C   -0.487931
     7  C   -0.123244
     8  C   -1.077376
     9  C   -0.160836
    10  C    0.200391
    11  C   -0.733803
    12  C    0.778095
    13  C   -0.645038
    14  H    0.468512
    15  H    0.450157
    16  H    0.235623
    17  H    0.239651
    18  H    0.282228
    19  H    0.261688
    20  H    0.247570
    21  H    0.252647
    22  H    0.245324
    23  H    0.331729
    24  Cl   0.372588
    25  H    0.366689
    26  C    0.788013
    27  H    0.278215
    28  F   -0.068223
    29  F   -0.146586
    30  F   -0.092447
    31  O   -0.474651
    32  O   -0.428450
    33  C    0.030041
    34  C   -0.200117
    35  C   -1.012650
    36  H    0.244805
    37  H    0.245207
    38  H    0.256595
    39  H    0.229841
    40  H    0.257393
 Sum of Mulliken charges =  -1.00000
 Mulliken charges with hydrogens summed into heavy atoms:
               1
     1  C   -1.232037
     2  N    0.031203
     3  C    0.001713
     4  O   -0.397283
     5  N    0.103424
     6  C   -0.012656
     7  C    0.420672
     8  C   -0.331834
     9  C    0.170893
    10  C    0.200391
    11  C   -0.455588
    12  C    0.778095
    13  C   -0.278349
    24  Cl   0.372588
    26  C    0.788013
    28  F   -0.068223
    29  F   -0.146586
    30  F   -0.092447
    31  O   -0.474651
    32  O   -0.428450
    33  C    0.030041
    34  C    0.289895
    35  C   -0.268822
 Electronic spatial extent (au):  <R**2>=          12119.1103
 Charge=             -1.0000 electrons
 Dipole moment (field-independent basis, Debye):
    X=             -1.8096    Y=             -0.3690    Z=             -0.1444  Tot=              1.8525
 Quadrupole moment (field-independent basis, Debye-Ang):
   XX=           -200.5823   YY=           -175.6452   ZZ=           -148.5264
[...]
 0000502,-0.00001954,0.00000882,-0.00000134,0.00000174,-0.00000350,-0.0
 0000391,0.00000567,-0.00001211,0.00000410,-0.00000063,-0.00000941,-0.0
 0000808,0.00000016,-0.00001266,0.00000695,-0.00000131,0.00001773,0.000
 02447,0.00000478,-0.00003866,-0.00001912,-0.00003642,-0.00001216,-0.00
 000121,-0.00001325,0.00000050,-0.00000014,-0.00000224,0.00000265,-0.00
 000083,0.00000623,0.00000515,-0.00000193,0.00000068,0.00000691,0.00000
 344,0.00000512,0.00217188,0.00003366,0.00380305,-0.00141079,-0.0061307
 5,0.00398986,-0.02309965,-0.00304826,-0.02837126,-0.03276922,-0.054650
 51,-0.03965761,0.01299867,0.00272106,0.01411411,0.03309551,0.06004194,
 -0.00023014,0.00009122,0.00001568,0.00019585,-0.00011038,-0.00001083,-
 0.00022630,0.00011068,0.00000687,0.00004791,-0.00011013,0.00000199,0.0
 0009070,-0.00019290,0.00002090,0.00002784,0.00000679,-0.00001761,-0.00
 000357,0.00001597,-0.00000081,0.00000758,-0.00000807,-0.00000070,0.000
 05859,-0.00005296,-0.00000465,-0.00003884,0.00000620,0.00000417,0.0000
 5493,0.00001523,-0.00000234,-0.00009538,-0.00006107,0.00000751,0.00008
 043,0.00002082,0.00000122,-0.00001334,0.00018035,-0.00000283,0.0000178
 4,0.00024403,-0.00002269,-0.00000662,-0.00000942,-0.00000291,-0.000001
 52,-0.00000507,0.00000956,0.00001317,0.00000055,-0.00001664,0.00000746
 ,0.00000661,0.00001209,-0.00000310,-0.00000259,0.00000625,-0.00000153,
 0.00000346,-0.00000079,-0.00000586,-0.00000676,-0.00000322,-0.00001175
 ,0.00000766,-0.00000022,0.00005034,0.00005305,0.00000173,-0.00004157,-
 0.00004117,-0.00002539,-0.00002260,0.00000042,-0.00000903,-0.00000096,
 -0.00000210,-0.00000152,0.00000403,0.00000029,0.00000301,0.00001236,-0
 .00000399,-0.00000097,0.00000965,0.00000466,0.00000604,0.00180378,-0.0
 0098428,0.00087123,0.00058978,-0.00039269,-0.00041181,-0.00130835,0.00
 271133,-0.00058720,-0.12761650,-0.03654359,-0.18253124,0.00577417,0.00
 186070,0.00596229,0.13929473,0.03912558,0.19640324,0.00005737,-0.00001
 705,-0.00000010,0.00004702,0.00011728,0.00002497,-0.00020908,0.0000005
 7,0.00003141,0.00005710,-0.00000721,-0.00001384,0.00006346,-0.00019703
 ,-0.00002428,-0.00000529,-0.00001119,-0.00000509,0.00000395,0.00002141
 ,0.00004383,0.00000085,-0.00000715,-0.00001162,-0.00001373,0.00000854,
 -0.00000716,0.00000310,0.00000421,-0.00000037,-0.00001042,0.00000317,-
 0.00000261,0.00003778,0.00001723,0.00000357,-0.00002276,-0.00001456,0.
 00000287,-0.00003827,-0.00023000,-0.00006555,-0.00002035,0.00026235,-0
 .00000188,-0.00000083,-0.00000883,-0.00000103,0.00000059,0.00000354,-0
 .00000262,0.00000570,0.00000686,-0.00001181,-0.00000324,-0.00000175,-0
 .00000795,0.00000087,0.00000472,-0.00000140,0.00000386,0.00000158,0.00
 000524,-0.00000395,-0.00000799,-0.00000242,-0.00000181,-0.00000022,0.0
 0000302,-0.00001541,-0.00001866,0.00000065,0.00003270,0.00000757,-0.00
 001113,0.00000357,-0.00001582,0.00000480,-0.00000041,0.00000229,0.0000
 0141,0.00000061,0.00000421,-0.00000400,-0.00000376,0.00000420,-0.00000
 047,-0.00000005,0.00000409,-0.00000012,0.00001932,0.00195944,-0.000829
 62,-0.00007863,-0.00224591,-0.00135413,-0.00483228,-0.00262854,0.00607
 638,-0.09160831,-0.03054569,0.09692538,-0.01184266,-0.00822289,0.02457
 196,0.00955161,0.00734664,-0.01936583,0.10148709,-0.00018245,0.0000891
 2,0.00000778,0.00023244,0.00005530,0.00004829,-0.00045254,0.00016604,0
 .00005674,0.00010375,-0.00018847,-0.00002762,0.00015352,-0.00059242,0.
 00002049,0.00010852,0.00001624,-0.00002263,-0.00001776,0.00002195,0.00
 003031,0.00001122,-0.00001427,-0.00001081,0.00004227,-0.00004960,-0.00
 000477,-0.00003181,0.00000407,-0.00000367,0.00004027,0.00000798,0.0000
 0052,-0.00004283,-0.00003216,-0.00000224,0.00006111,0.00001011,-0.0000
 2193,-0.00005874,0.00003579,-0.00012483,-0.00001160,0.00091363,-0.0001
 1304,-0.00002384,-0.00002509,-0.00000366,-0.00001222,-0.00000907,0.000
 01386,0.00004007,-0.00000038,-0.00003564,0.00001102,0.00001103,0.00001
 005,-0.00000320,-0.00000440,0.00000542,-0.00001283,0.00000519,-0.00000
 102,-0.00001133,-0.00001050,-0.00000073,-0.00001257,0.00000721,0.00000
 437,0.00002193,0.00002715,-0.00000627,-0.00003092,-0.00001316,0.000034
 84,-0.00001378,0.00000984,0.00001111,-0.00000061,0.00000050,0.00000210
 ,0.00000329,-0.00000059,-0.00000351,0.00000955,-0.00000594,-0.00000460
 ,0.00000283,-0.00000264,-0.00000218,0.00103754,0.00045111,-0.00437531,
 -0.00265201,-0.00575473,-0.00402379,-0.01330568,-0.00663389,0.03353310
 ,-0.03011967,-0.06798283,0.06945377,0.00816646,0.00480932,-0.01727564,
 0.00325245,0.00142240,-0.00632410,0.03188186,0.07394463,0.00018723,-0.
 00007792,-0.00002231,-0.00017958,0.00007704,0.00003091,0.00023531,-0.0
 0009116,-0.00003059,-0.00005174,0.00009033,0.00000820,-0.00008629,0.00
 018213,0.00004224,-0.00001278,0.00000133,0.00000677,-0.00000355,-0.000
 02123,-0.00002099,-0.00000529,0.00000780,0.00000443,-0.00004770,0.0000
 4033,0.00000742,0.00003177,-0.00001388,-0.00000322,-0.00004725,-0.0000
 0910,0.00000621,0.00008510,0.00005360,-0.00000547,-0.00006169,-0.00001
 423,0.00001549,0.00001540,-0.00009539,-0.00001165,-0.00002427,-0.00021
 941,-0.00006188,0.00000501,0.00001176,0.00000347,-0.00000218,-0.000000
 79,-0.00000258,-0.00001256,-0.00000030,0.00001644,-0.00000073,-0.00000
 250,-0.00000348,0.00000099,-0.00000083,-0.00000318,-0.00000036,-0.0000
 0398,-0.00000166,0.00000623,0.00000964,0.00000422,0.00001087,-0.000006
 30,-0.00000373,-0.00004325,-0.00004209,0.00000727,0.00002264,0.0000315
 7,-0.00002533,0.00001862,0.00000287,-0.00001314,-0.00000071,0.00000208
 ,-0.00000198,-0.00000445,-0.00000284,0.00000766,-0.00001288,0.00000351
 ,0.00000602,-0.00000668,-0.00000239,0.00000096,-0.00140419,0.00027488,
 0.00129579,-0.00103951,0.00045162,-0.00020245,0.00094537,-0.00281503,0
 .00095780,0.09566863,0.06641172,-0.24247613,0.00107015,0.00049219,-0.0
 0274900,0.00981383,0.00766399,-0.02161087,-0.10596075,-0.07078768,0.26
 267253,0.00001580,0.00000049,0.00000739,0.00000027,0.00008073,-0.00001
 775,-0.00003642,-0.00002297,0.00001736,0.00000973,0.00002880,-0.000009
 62,-0.00000220,0.00000829,-0.00002773,0.00001353,0.00000066,0.00002235
 ,-0.00000999,-0.00001618,-0.00002848,-0.00000087,-0.00000053,0.0000080
 4,-0.00000025,0.00000606,-0.00000377,-0.00000458,0.00000604,0.00000073
 ,0.00000012,0.00001020,-0.00000134,0.00000442,-0.00000691,0.00000078,-
 0.00000753,-0.00001251,-0.00001347,-0.00000277,-0.00012301,0.00001354,
 -0.00000127,-0.00001597,0.00002690,-0.00000405,0.00000554,-0.00000327,
 0.00000247,0.00000564,-0.00000451,0.00001432,-0.00000708,0.00001784,0.
 00000028,0.00000116,-0.00000183,0.00000154,-0.00000015,-0.00000219,-0.
 00000797,-0.00000188,-0.00000517,0.00000186,0.00000725,0.00000232,-0.0
 0000004,0.00000015,0.00000305,-0.00000084,0.00000525,-0.00000324,0.000
 01226,-0.00001976,0.00001610,0.00000474,-0.00003067,0.00001066,-0.0000
 0164,0.00000099,0.00000205,-0.00000039,0.00001167,-0.00001112,-0.00000
 479,0.00000779,-0.00000102,0.00000047,0.00000864,0.00000015,0.00045272
 ,0.00034158,-0.00040529,0.00109273,0.00023577,-0.00073975,-0.00101187,
 -0.00153164,0.00041532,-0.01275543,-0.00806079,0.02662878,-0.09158362,
 -0.03187179,0.09567512,0.00069780,-0.00097755,-0.00042889,-0.00446979,
 0.00364344,0.00036394,0.10155475,0.00013716,-0.00005445,-0.00001306,-0
 .00012936,0.00006607,0.00001779,0.00018351,-0.00012663,-0.00000891,-0.
 00003542,0.00011562,0.00000167,-0.00005173,0.00021089,0.00002427,-0.00
 002945,-0.00000551,0.00001555,-0.00000487,-0.00004416,-0.00004335,-0.0
 0001214,0.00001808,0.00001382,-0.00002926,0.00003621,0.00000120,0.0000
 1569,0.00000298,-0.00000283,-0.00002867,0.00000523,0.00000339,0.000047
 05,0.00001747,-0.00000541,-0.00004755,-0.00001776,0.00001048,0.0000193
 8,-0.00012499,-0.00001391,-0.00003638,-0.00029835,-0.00003884,0.000003
 84,0.00001753,0.00000406,0.00000048,-0.00000020,-0.00000898,-0.0000303
 3,-0.00000631,0.00002169,-0.00000174,0.00000015,0.00000258,0.00000012,
 0.00000108,-0.00000602,0.00000653,-0.00000722,0.00000077,0.00001327,0.
 00001194,0.00000338,0.00000718,-0.00000486,-0.00000086,-0.00002259,-0.
 00001694,0.00000122,0.00002289,-0.00000474,-0.00000715,0.00001860,-0.0
 0004455,0.00000056,-0.00000094,0.00000085,0.00000074,-0.00000317,0.000
 01378,-0.00000708,-0.00001475,0.00001389,0.00000337,-0.00000108,0.0000
 1290,0.00000312,-0.00076345,0.00020313,0.00035523,-0.00066831,-0.00045
 200,0.00057542,0.00143019,0.00050036,-0.00122501,0.00688486,0.00525626
 ,-0.01636027,-0.03282690,-0.06951159,0.06925087,-0.00080034,0.00069763
 ,0.00040997,0.00323488,-0.00177489,-0.00081651,0.03251178,0.07249840,0
 .00005218,-0.00003378,-0.00000898,-0.00011903,-0.00008808,0.00002671,0
 .00021472,-0.00003129,-0.00002973,-0.00005917,0.00001602,0.00001157,-0
 .00009176,0.00008858,0.00003247,0.00005806,0.00001694,0.00000982,-0.00
 002082,-0.00004568,-0.00007109,-0.00000393,0.00001128,0.00001944,-0.00
 001574,0.00001446,0.00000321,0.00001653,-0.00001093,-0.00000028,-0.000
 01593,-0.00000820,0.00000169,0.00001737,0.00001906,-0.00000081,-0.0000
 1467,0.00000482,0.00000824,0.00002128,0.00010975,-0.00002003,-0.000005
 18,-0.00008076,-0.00003828,-0.00001016,0.00001243,0.00000073,-0.000009
 12,-0.00000871,0.00000479,0.00000540,-0.00002332,0.00001986,0.00000649
 ,0.00000621,0.00001227,-0.00000174,-0.00000925,0.00000034,-0.00001470,
 -0.00000467,-0.00001133,0.00000777,0.00001771,0.00000680,0.00000636,-0
 .00000265,-0.00000264,-0.00001131,-0.00001438,0.00000221,-0.00000217,0
 .00000988,-0.00000791,0.00000594,0.00002378,-0.00001120,0.00000001,0.0
 0000002,-0.00000116,-0.00000210,-0.00000921,0.00000939,-0.00000205,-0.
 00000426,0.00000266,-0.00000414,-0.00000769,-0.00000032,-0.00083753,-0
 .00061137,0.00009373,-0.00206034,0.00017512,0.00112819,0.00258776,0.00
 193732,-0.00040857,0.00174588,0.00039861,-0.00403416,0.09604953,0.0668
 8930,-0.25236257,0.00029867,-0.00034276,0.00071457,0.00074268,-0.00054
 545,0.00151818,-0.10612151,-0.07471484,0.27105624,0.00009825,-0.000006
 75,-0.00000887,0.00007531,0.00034801,-0.00000857,-0.00026463,0.0000066
 2,0.00002597,0.00007740,0.00003874,-0.00000882,0.00008623,-0.00006547,
 0.00000048,-0.00005904,-0.00001877,-0.00000374,0.00001484,0.00002969,0
 .00001311,0.00001027,-0.00001126,-0.00000358,-0.00002029,0.00001233,0.
 00000122,0.,0.00000516,0.00000058,-0.00001707,0.00001272,0.00000248,0.
 00004905,0.00002095,-0.00000220,-0.00003647,-0.00003512,0.00000039,-0.
 00006909,-0.00050473,0.00000401,-0.00001118,0.00004645,0.00000679,0.00
 000907,-0.00000483,-0.00000196,0.00001270,0.00000218,0.00000030,-0.000
 00459,0.00001477,-0.00002443,-0.00000139,0.00000925,0.00001288,-0.0000
 0221,-0.00000026,0.00000495,0.00001115,0.00000400,0.00000100,-0.000006
 66,-0.00000896,-0.00000360,-0.00000163,0.00000037,0.00000102,-0.000019
 94,-0.00001251,0.00000072,0.00004311,-0.00001098,-0.00000039,0.0000011
 1,-0.00003143,-0.00000038,-0.00000231,0.00000347,0.00000057,-0.0000002
 6,0.00001067,-0.00000600,-0.00000652,0.00000869,0.00000169,0.00000195,
 0.00000981,0.00000362,-0.00041411,0.00340924,0.00029675,0.00231269,-0.
 00055601,-0.00031307,-0.00714681,-0.00217479,0.00111438,0.00679875,0.0
 3135439,0.00066669,-0.05641164,-0.04665481,-0.00199715,0.00102244,-0.0
 0080875,-0.00067282,0.00110949,-0.00096209,0.00020848,-0.00355567,-0.0
 1220985,-0.00238037,0.06010670,-0.00039655,0.00010848,0.00003132,0.000
 19923,-0.00051176,-0.00002361,-0.00007196,0.00031269,-0.00000383,-0.00
 001415,-0.00032058,0.00000804,0.00000864,-0.00036164,-0.00001665,0.000
 11407,0.00003721,-0.00003953,-0.00000155,0.00003680,0.00003545,0.00001
 684,-0.00001437,-0.00001287,0.00007545,-0.00009073,-0.00000416,-0.0000
 2494,-0.00003051,-0.00000389,0.00008348,-0.00002571,-0.00000589,-0.000
 16455,-0.00005409,0.00001076,0.00014604,0.00009087,-0.00001073,0.00000
 312,0.00085770,0.00001979,0.00010354,0.00057778,0.00003569,-0.00001817
 ,-0.00003170,-0.00000627,-0.00001600,-0.00001393,0.00002635,0.00003998
 ,0.00000931,-0.00004250,0.00001210,0.00001083,0.00001805,-0.00000473,-
 0.00000705,0.00001322,-0.00001445,0.00001359,-0.00000131,-0.00001530,-
 0.00002043,-0.00000545,-0.00001439,0.00000973,0.00000091,0.00007361,0.
 00004289,-0.00000416,-0.00010054,0.00004810,0.00000813,-0.00005640,0.0
 0018333,-0.00000524,0.00000331,-0.00000477,-0.00000089,0.00000992,-0.0
 0005911,0.00003213,0.00005062,-0.00005419,-0.00001146,-0.00000087,-0.0
 0005396,-0.00001197,0.00173916,-0.00302743,-0.00047591,0.00067311,-0.0
 0105415,-0.00023441,0.00141549,0.00258966,-0.00007414,-0.00502293,-0.0
 1492369,-0.00004985,-0.04653516,-0.30064555,-0.00840818,0.00030384,0.0
 0030019,0.00061090,0.00012748,0.00041729,-0.00063509,-0.00143547,-0.00
 816386,-0.00044902,0.04973490,0.32862886,-0.00003922,0.00000545,0.0000
 0201,0.00000058,-0.00008635,-0.00000040,0.00003468,0.00002121,-0.00000
 861,-0.00001225,-0.00002791,0.00000124,-0.00000806,-0.00001437,0.00002
 861,0.00001082,0.00000591,-0.00000304,-0.00000267,-0.00001118,-0.00001
 727,0.00000181,0.00000162,0.00000588,0.00000748,-0.00000751,0.00000243
 ,-0.00000034,-0.00000423,-0.00000157,0.00000883,-0.00000277,-0.0000016
 5,-0.00001853,-0.00000682,0.00000245,0.00001540,0.00001204,-0.00000680
 ,0.00001075,0.00013414,-0.00000470,0.00000407,0.00002685,-0.00002910,-
 0.00000263,-0.00000049,0.00000031,-0.00000141,-0.00000662,0.00000403,-
 0.00000144,0.00000172,-0.00001539,0.00000484,0.00001144,0.00001652,-0.
 00000337,-0.00000460,0.00000278,-0.00000037,0.00000087,-0.00000239,0.0
 0000036,0.00000019,0.00000040,-0.00000071,0.00000046,0.00000074,0.0000
 0760,0.00000446,-0.00000179,-0.00001257,0.00000492,0.00000404,-0.00000
 362,0.00001765,0.00000056,-0.00000043,-0.00000034,0.00000092,0.0000006
 1,-0.00000539,0.00000242,0.00000421,-0.00000510,-0.00000131,-0.0000007
 1,-0.00000535,-0.00000160,0.00018135,-0.00074218,-0.00001381,-0.000238
 10,-0.00001152,0.00067046,0.00135566,0.00048395,0.00044621,-0.00161454
 ,-0.00589297,-0.00142374,-0.00200312,-0.00841843,-0.05044211,0.0000350
 6,0.00047697,0.00010733,-0.00035374,-0.00014386,-0.00009193,0.00393228
 ,0.02868075,0.00316282,0.00109618,0.00986387,0.04754342,-0.00000623,0.
 00001840,-0.00000820,0.00005173,0.00010151,0.00001845,-0.00012482,-0.0
 0000891,-0.00000286,0.00003275,0.00001764,0.00000410,0.00004578,-0.000
 02335,0.00003723,-0.00001017,-0.00000072,-0.00000184,-0.00000755,-0.00
 000136,-0.00003470,0.00000415,-0.00000399,0.00000893,0.00000744,-0.000
 00470,0.00000092,-0.00001268,0.00001023,0.00000381,0.00000338,0.000012
 33,0.00000316,0.00000309,-0.00001167,-0.00000252,-0.00000008,-0.000014
 52,0.00001428,-0.00001192,-0.00014353,-0.00001863,-0.00001210,0.000005
 65,-0.00003808,0.00000064,0.00000519,-0.00000083,0.00000399,-0.0000016
 8,0.00000199,0.00000622,0.00000402,0.00000785,0.00000692,0.00000602,0.
 00000916,-0.00000320,-0.00000218,0.00000297,-0.00000062,-0.00000160,-0
 .00000338,-0.00000022,0.00000450,0.00000014,-0.00000259,0.00000153,-0.
 00000213,0.00000303,0.00001150,0.00000342,0.00000973,-0.00002316,-0.00
 001805,-0.00000005,-0.00004136,-0.00001123,-0.00000120,0.00000051,-0.0
 0000168,-0.00000065,0.00001253,-0.00000188,-0.00000599,0.00001039,0.00
 000371,0.00000623,0.00001529,0.00000800,0.00076626,0.00046963,0.000226
 91,0.00189612,0.00007910,0.00046607,-0.00180392,-0.00200414,-0.0001604
 5,-0.02022895,-0.00461483,-0.02177238,-0.16589246,-0.03334697,-0.13062
 511,-0.00407504,0.00346166,0.00195429,0.00069500,-0.00086507,0.0003187
 8,0.00958216,0.00321088,0.00996686,-0.00378902,-0.00102584,-0.00239472
 ,0.18286485,0.00014569,-0.00005822,-0.00000484,-0.00015010,0.00005783,
 0.00001070,0.00021849,-0.00013244,-0.00001525,-0.00004559,0.00012003,-
 0.00000177,-0.00007727,0.00022271,-0.00000416,-0.00000609,-0.00000538,
 0.00002503,-0.00000766,-0.00003305,-0.00000712,-0.00002088,0.00002056,
 0.00000202,-0.00003146,0.00003767,0.00000223,0.00001791,0.00000098,-0.
 00000089,-0.00003232,0.00000332,0.00000002,0.00004992,0.00002114,0.000
 00208,-0.00005119,-0.00001633,-0.00000348,0.00002270,-0.00011298,-0.00
 000194,-0.00002987,-0.00030403,-0.00001461,0.00000206,0.00001662,0.000
 00262,-0.00000302,0.00001024,-0.00001571,-0.00001600,-0.00001361,0.000
 05372,-0.00001100,-0.00002207,-0.00003677,0.00000896,0.00000797,-0.000
 01155,0.00000194,-0.00000909,0.00000199,0.00001307,0.00001437,0.000003
 38,0.00000850,-0.00000529,-0.00000005,-0.00002365,-0.00001869,0.000000
 51,0.00002351,-0.00000311,0.00000144,0.00001918,-0.00004051,0.00000175
 ,-0.00000071,0.00000068,0.00000035,-0.00000331,0.00001284,-0.00000687,
 -0.00001455,0.00001313,0.00000342,-0.00000249,0.00001121,0.00000190,-0
 .00089770,0.00015962,-0.00005052,-0.00106831,-0.00035672,-0.00038158,0
 .00202123,0.00056502,0.00070895,0.01163493,0.00317879,0.01378325,-0.03
 494729,-0.05652302,-0.03779773,0.00321305,-0.00175611,-0.00063519,-0.0
 0084363,0.00066914,-0.00014973,0.00720694,0.00095855,0.00729501,-0.021
 00505,-0.00480606,-0.02435648,0.03468107,0.05811426,-0.00003794,0.0000
 2761,0.00000045,0.00010388,0.00006568,-0.00000113,-0.00018241,0.000027
 18,0.00000761,0.00005240,-0.00001479,0.00000053,0.00009282,-0.00006420
 ,0.00001837,-0.00007337,-0.00001374,-0.00002338,0.00002193,0.00002445,
 0.00003634,0.00000383,-0.00000284,-0.00001392,0.00001218,-0.00001551,-
 0.00000006,-0.00001200,0.00000609,0.00000161,0.00001053,0.00000578,0.0
 0000065,-0.00000980,-0.00001068,-0.00000121,0.00001158,-0.00000208,0.0
 0000423,-0.00001922,-0.00007848,-0.00000843,-0.00000782,0.00004529,-0.
 00002170,0.00001165,-0.00000888,0.00000277,0.00001137,-0.00000640,0.00
 000412,-0.00001910,0.00002990,-0.00005563,-0.00000556,0.00001833,0.000
 02297,-0.00000320,-0.00000388,0.00000942,0.00002557,0.00000434,0.00000
 409,-0.00000626,-0.00001543,-0.00000418,-0.00000534,0.00000217,-0.0000
 0061,0.00000816,0.00001046,0.00000070,0.00000048,-0.00000415,-0.000002
 79,-0.00000702,-0.00001683,-0.00000733,-0.00000058,0.00000007,-0.00000
 066,0.00000094,0.00000500,0.00000074,0.00000090,0.00000324,0.00000122,
 0.00000562,0.00000754,0.00000474,0.00050355,0.00050967,-0.00020363,0.0
 0165915,-0.00034484,0.00021010,-0.00188204,-0.00128326,0.00037776,0.00
 506312,0.00203196,0.00547774,-0.13113806,-0.03584350,-0.19100031,0.001
 53413,-0.00101687,0.00110858,-0.00039865,0.00063225,0.00072954,-0.0193
 3476,-0.00612887,-0.02083686,0.00197169,-0.00017760,0.00006165,0.14203
 765,0.04159582,0.20409588\\-0.00000058,-0.00000217,-0.00000048,-0.0000
 0190,-0.00000625,0.00000257,0.00000336,0.00000044,0.00000611,-0.000001
 64,-0.00000193,-0.00000253,-0.00000125,0.00000510,-0.00000485,0.000000
 59,0.00000105,0.00000088,0.00000103,0.00000152,0.00000114,-0.00000036,
 0.00000021,-0.00000067,0.00000072,-0.00000078,0.00000077,-0.00000033,-
 0.00000032,-0.00000043,-0.00000048,-0.00000099,-0.00000042,-0.00000069
 ,-0.00000138,-0.00000020,0.00000027,-0.00000045,-0.00000100,-0.0000007
 8,0.00000972,-0.00000302,0.00000031,-0.00000546,0.00000048,-0.00000005
 ,0.00000090,-0.00000002,-0.00000033,0.00000050,-0.00000030,0.00000077,
 0.00000082,0.00000006,-0.00000001,0.00000007,-0.00000004,-0.00000001,0
 .00000154,0.00000005,0.00000041,0.00000097,0.00000029,-0.00000050,0.00
 000144,0.00000010,-0.00000032,-0.00000041,0.00000011,0.00000005,-0.000
 00121,0.00000011,0.00000017,-0.00000072,0.00000008,-0.00000081,0.00000
 035,0.00000086,-0.00000041,-0.00000115,0.00000019,-0.00000121,-0.00000
 129,-0.00000049,-0.00000199,-0.00000147,-0.00000004,-0.00000003,-0.000
 00036,0.00000047,-0.00000155,-0.00000590,0.00000172,0.00000736,0.00000
 702,0.00000317,-0.00000500,0.00000069,-0.00000257,-0.00000273,0.000000
 76,-0.00000626,0.00000309,-0.00000066,0.00000300,0.00000014,-0.0000003
 5,0.00000171,0.00000147,-0.00000070,0.00000206,0.00000146,-0.00000031,
 -0.00000098,0.00000135,0.00000043,-0.00000092,0.00000039,0.00000073,-0
 .00000070\\\@


 MOM AND DAD WENT TO ALPHA CENTAURI AND ALL
 I GOT WAS THIS DUMB T-SHIRT.
 Job cpu time:       0 days 11 hours 31 minutes  3.8 seconds.
 File lengths (MBytes):  RWF=   1250 Int=      0 D2E=      0 Chk=     24 Scr=      1
 Normal termination of Gaussian 09 at Thu Nov 14 23:41:41 2019.
pbs_rusage has been removed.
Please contact help@nci.org.au if you require this functionality.
