 Entering Gaussian System, Link 0=/apps/gaussian/g09e01/g09/g09
 Initial command:
 /apps/gaussian/g09e01/g09/l1.exe "/jobfs/local/3595159.r-man2/Gau-39270.inp" -scrdir="/jobfs/local/3595159.r-man2/"
 Entering Link 1 = /apps/gaussian/g09e01/g09/l1.exe PID=     39272.
  
 Copyright (c) 1988,1990,1992,1993,1995,1998,2003,2009,2015,
            Gaussian, Inc.  All Rights Reserved.
  
 This is part of the Gaussian(R) 09 program.  It is based on
 the Gaussian(R) 03 system (copyright 2003, Gaussian, Inc.),
 the Gaussian(R) 98 system (copyright 1998, Gaussian, Inc.),
 the Gaussian(R) 94 system (copyright 1995, Gaussian, Inc.),
 the Gaussian 92(TM) system (copyright 1992, Gaussian, Inc.),
 the Gaussian 90(TM) system (copyright 1990, Gaussian, Inc.),
 the Gaussian 88(TM) system (copyright 1988, Gaussian, Inc.),
 the Gaussian 86(TM) system (copyright 1986, Carnegie Mellon
 University), and the Gaussian 82(TM) system (copyright 1983,
 Carnegie Mellon University). Gaussian is a federally registered
 trademark of Gaussian, Inc.
  
 This software contains proprietary and confidential information,
 including trade secrets, belonging to Gaussian, Inc.
  
 This software is provided under written license and may be
 used, copied, transmitted, or stored only in accord with that
 written license.
  
 The following legend is applicable only to US Government
 contracts under FAR:
  
                    RESTRICTED RIGHTS LEGEND
  
 Use, reproduction and disclosure by the US Government is
 subject to restrictions as set forth in subparagraphs (a)
 and (c) of the Commercial Computer Software - Restricted
 Rights clause in FAR 52.227-19.
  
 Gaussian, Inc.
 340 Quinnipiac St., Bldg. 40, Wallingford CT 06492
  
  
 ---------------------------------------------------------------
 Warning -- This program may not be used in any manner that
 competes with the business of Gaussian, Inc. or will provide
 assistance to any competitor of Gaussian, Inc.  The licensee
 of this program is prohibited from giving any competitor of
 Gaussian, Inc. access to this program.  By using this program,
 the user acknowledges that Gaussian, Inc. is engaged in the
 business of creating and licensing software in the field of
 computational chemistry and represents and warrants to the
 licensee that it is not a competitor of Gaussian, Inc. and that
 it will not use this program in any manner prohibited above.
 ---------------------------------------------------------------
  

 Cite this work as:
 Gaussian 09, Revision E.01,
 M. J. Frisch, G. W. Trucks, H. B. Schlegel, G. E. Scuseria, 
 M. A. Robb, J. R. Cheeseman, G. Scalmani, V. Barone, B. Mennucci, 
 G. A. Petersson, H. Nakatsuji, M. Caricato, X. Li, H. P. Hratchian, 
 A. F. Izmaylov, J. Bloino, G. Zheng, J. L. Sonnenberg, M. Hada, 
 M. Ehara, K. Toyota, R. Fukuda, J. Hasegawa, M. Ishida, T. Nakajima, 
 Y. Honda, O. Kitao, H. Nakai, T. Vreven, J. A. Montgomery, Jr., 
 J. E. Peralta, F. Ogliaro, M. Bearpark, J. J. Heyd, E. Brothers, 
 K. N. Kudin, V. N. Staroverov, T. Keith, R. Kobayashi, J. Normand, 
 K. Raghavachari, A. Rendell, J. C. Burant, S. S. Iyengar, J. Tomasi, 
 M. Cossi, N. Rega, J. M. Millam, M. Klene, J. E. Knox, J. B. Cross, 
 V. Bakken, C. Adamo, J. Jaramillo, R. Gomperts, R. E. Stratmann, 
 O. Yazyev, A. J. Austin, R. Cammi, C. Pomelli, J. W. Ochterski, 
 R. L. Martin, K. Morokuma, V. G. Zakrzewski, G. A. Voth, 
 P. Salvador, J. J. Dannenberg, S. Dapprich, A. D. Daniels, 
 O. Farkas, J. B. Foresman, J. V. Ortiz, J. Cioslowski, 
 and D. J. Fox, Gaussian, Inc., Wallingford CT, 2013.
 
 ******************************************
 Gaussian 09:  ES64L-G09RevE.01 30-Nov-2015
                14-Nov-2019 
 ******************************************
 %chk=NM3_carboxy.M062X_6-311pGd_opt_water_GD3.chk
 %mem=196608000
 %nproc=8
 Will use up to    8 processors via shared memory.
 ----------------------------------------------------------------------
 # M062X/6-311+G* SCF=Tight INT(grid=ultrafine) OPT IOP(2/17=4) Empiric
 alDispersion=GD3 SCRF=(SMD,Solvent=h2o) maxdisk=2684354560
 ----------------------------------------------------------------------
 1/14=-1,18=20,19=15,26=4,38=1/1,3;
 2/9=110,12=2,17=4,18=5,40=1/2;
 3/5=4,6=6,7=11,11=2,16=1,25=1,30=1,70=32201,71=1,72=1,74=-55,75=-5,124=31/1,2,3;
 4//1;
 5/5=2,32=2,38=5,53=1/2;
 6/7=2,8=2,9=2,10=2,28=1/1;
 7//1,2,3,16;
 1/14=-1,18=20,19=15,26=4/3(2);
 2/9=110,17=4/2;
 99//99;
 2/9=110,17=4/2;
 3/5=4,6=6,7=11,11=2,16=1,25=1,30=1,70=32205,71=1,72=1,74=-55,75=-5,124=31/1,2,3;
 4/5=5,16=3,69=1/1;
 5/5=2,32=2,38=5,53=1/2;
 7//1,2,3,16;
 1/14=-1,18=20,19=15,26=4/3(-5);
 2/9=110,17=4/2;
 6/7=2,8=2,9=2,10=2,19=2,28=1/1;
 99/9=1/99;
 ----------------------------------------
 NM3_carboxy.M062X_6-311pGd_opt_water_GD3
 ----------------------------------------
 Symbolic Z-matrix:
 Charge = -1 Multiplicity = 1
 C                    -5.95315   1.22709   0.09444 
 N                    -4.68607   0.66032   0.03003 
 C                    -3.47704   1.32509  -0.04063 
 O                    -3.37987   2.55943  -0.06075 
 N                    -2.40804   0.51009  -0.09601 
 C                    -1.05974   1.05216  -0.17956 
 C                    -0.04202  -0.07593  -0.23749 
 C                     1.37802   0.46917  -0.32593 
 C                    -6.20996   2.5709    0.38651 
 C                    -7.52777   3.01306   0.43989 
 C                    -8.61335   2.17617   0.22762 
 C                    -8.3304    0.84498  -0.05214 
 C                    -7.03912   0.36138  -0.12394 
 H                    -4.66195  -0.36327  -0.08375 
 H                    -2.52427  -0.50551  -0.03761 
 H                    -0.86166   1.68993   0.68791 
 H                    -0.97063   1.68264  -1.06963 
 H                    -0.25598  -0.71132  -1.10265 
 H                    -0.14818  -0.70486   0.65199 
 H                     1.5073    1.08515  -1.21975 
 H                     2.10925  -0.34019  -0.36959 
 H                     1.61585   1.08786   0.5434 
 H                    -5.39874   3.25735   0.57503 
 Cl                   -9.65776  -0.25642  -0.33164 
 H                    -6.85631  -0.68359  -0.34792 
 C                    -7.76138   4.45056   0.79971 
 H                    -9.63291   2.53498   0.27436 
 F                    -9.01294   4.85368   0.54359 
 F                    -7.54472   4.67959   2.11016 
 F                    -6.93979   5.28058   0.13506 
 O                    -4.75953  -2.16581  -0.29482 
 O                    -2.5753   -2.38487   0.08713 
 C                    -3.72259  -2.86384  -0.09835 
 C                    -3.90932  -4.37699  -0.09191 
 C                    -2.64551  -5.18149   0.16653 
 H                    -4.35267  -4.64662  -1.05542 
 H                    -4.67386  -4.59997   0.65839 
 H                    -1.88874  -4.98872  -0.59651 
 H                    -2.86361  -6.25162   0.1587 
 H                    -2.21025  -4.93591   1.1373 
 
 Add virtual bond connecting atoms O31        and H14        Dist= 3.43D+00.
 Add virtual bond connecting atoms O32        and H15        Dist= 3.56D+00.

 GradGradGradGradGradGradGradGradGradGradGradGradGradGradGradGradGradGrad
 Berny optimization.
 Initialization pass.
                           ----------------------------
                           !    Initial Parameters    !
                           ! (Angstroms and Degrees)  !
 --------------------------                            --------------------------
 ! Name  Definition              Value          Derivative Info.                !
 --------------------------------------------------------------------------------
 ! R1    R(1,2)                  1.3896         estimate D2E/DX2                !
 ! R2    R(1,9)                  1.399          estimate D2E/DX2                !
 ! R3    R(1,13)                 1.4059         estimate D2E/DX2                !
 ! R4    R(2,3)                  1.3816         estimate D2E/DX2                !
 ! R5    R(2,14)                 1.0302         estimate D2E/DX2                !
 ! R6    R(3,4)                  1.2383         estimate D2E/DX2                !
 ! R7    R(3,5)                  1.3454         estimate D2E/DX2                !
 ! R8    R(5,6)                  1.4556         estimate D2E/DX2                !
 ! R9    R(5,15)                 1.0239         estimate D2E/DX2                !
 ! R10   R(6,7)                  1.5204         estimate D2E/DX2                !
 ! R11   R(6,16)                 1.0948         estimate D2E/DX2                !
 ! R12   R(6,17)                 1.0944         estimate D2E/DX2                !
 ! R13   R(7,8)                  1.5236         estimate D2E/DX2                !
 ! R14   R(7,18)                 1.0945         estimate D2E/DX2                !
 ! R15   R(7,19)                 1.0945         estimate D2E/DX2                !
 ! R16   R(8,20)                 1.0932         estimate D2E/DX2                !
 ! R17   R(8,21)                 1.0916         estimate D2E/DX2                !
 ! R18   R(8,22)                 1.0932         estimate D2E/DX2                !
 ! R19   R(9,10)                 1.391          estimate D2E/DX2                !
 ! R20   R(9,23)                 1.0793         estimate D2E/DX2                !
 ! R21   R(10,11)                1.3871         estimate D2E/DX2                !
 ! R22   R(10,26)                1.5002         estimate D2E/DX2                !
 ! R23   R(11,12)                1.3894         estimate D2E/DX2                !
 ! R24   R(11,27)                1.0819         estimate D2E/DX2                !
 ! R25   R(12,13)                1.3807         estimate D2E/DX2                !
 ! R26   R(12,24)                1.7473         estimate D2E/DX2                !
 ! R27   R(13,25)                1.0842         estimate D2E/DX2                !
 ! R28   R(14,31)                1.8175         estimate D2E/DX2                !
 ! R29   R(15,32)                1.8842         estimate D2E/DX2                !
 ! R30   R(26,28)                1.3396         estimate D2E/DX2                !
 ! R31   R(26,29)                1.3478         estimate D2E/DX2                !
 ! R32   R(26,30)                1.3438         estimate D2E/DX2                !
 ! R33   R(31,33)                1.2653         estimate D2E/DX2                !
 ! R34   R(32,33)                1.257          estimate D2E/DX2                !
 ! R35   R(33,34)                1.5246         estimate D2E/DX2                !
 ! R36   R(34,35)                1.5203         estimate D2E/DX2                !
 ! R37   R(34,36)                1.0944         estimate D2E/DX2                !
 ! R38   R(34,37)                1.0942         estimate D2E/DX2                !
 ! R39   R(35,38)                1.0918         estimate D2E/DX2                !
 ! R40   R(35,39)                1.0922         estimate D2E/DX2                !
 ! R41   R(35,40)                1.0919         estimate D2E/DX2                !
 ! A1    A(2,1,9)              124.6717         estimate D2E/DX2                !
 ! A2    A(2,1,13)             116.4878         estimate D2E/DX2                !
 ! A3    A(9,1,13)             118.8246         estimate D2E/DX2                !
 ! A4    A(1,2,3)              127.164          estimate D2E/DX2                !
 ! A5    A(1,2,14)             115.5784         estimate D2E/DX2                !
 ! A6    A(3,2,14)             116.8696         estimate D2E/DX2                !
 ! A7    A(2,3,4)              123.3077         estimate D2E/DX2                !
 ! A8    A(2,3,5)              113.9514         estimate D2E/DX2                !
 ! A9    A(4,3,5)              122.7391         estimate D2E/DX2                !
 ! A10   A(3,5,6)              120.8481         estimate D2E/DX2                !
 ! A11   A(3,5,15)             120.5522         estimate D2E/DX2                !
 ! A12   A(6,5,15)             118.5432         estimate D2E/DX2                !
 ! A13   A(5,6,7)              110.2366         estimate D2E/DX2                !
 ! A14   A(5,6,16)             109.8202         estimate D2E/DX2                !
 ! A15   A(5,6,17)             109.6732         estimate D2E/DX2                !
 ! A16   A(7,6,16)             109.9574         estimate D2E/DX2                !
 ! A17   A(7,6,17)             109.9959         estimate D2E/DX2                !
 ! A18   A(16,6,17)            107.104          estimate D2E/DX2                !
 ! A19   A(6,7,8)              111.138          estimate D2E/DX2                !
 ! A20   A(6,7,18)             109.268          estimate D2E/DX2                !
 ! A21   A(6,7,19)             109.2961         estimate D2E/DX2                !
 ! A22   A(8,7,18)             110.1209         estimate D2E/DX2                !
 ! A23   A(8,7,19)             110.0682         estimate D2E/DX2                !
 ! A24   A(18,7,19)            106.8476         estimate D2E/DX2                !
 ! A25   A(7,8,20)             111.0546         estimate D2E/DX2                !
 ! A26   A(7,8,21)             111.1841         estimate D2E/DX2                !
 ! A27   A(7,8,22)             111.0439         estimate D2E/DX2                !
 ! A28   A(20,8,21)            107.8091         estimate D2E/DX2                !
 ! A29   A(20,8,22)            107.7931         estimate D2E/DX2                !
 ! A30   A(21,8,22)            107.7995         estimate D2E/DX2                !
 ! A31   A(1,9,10)             119.1608         estimate D2E/DX2                !
 ! A32   A(1,9,23)             120.6267         estimate D2E/DX2                !
 ! A33   A(10,9,23)            120.2113         estimate D2E/DX2                !
 ! A34   A(9,10,11)            122.942          estimate D2E/DX2                !
 ! A35   A(9,10,26)            117.4727         estimate D2E/DX2                !
 ! A36   A(11,10,26)           119.537          estimate D2E/DX2                !
 ! A37   A(10,11,12)           116.7121         estimate D2E/DX2                !
 ! A38   A(10,11,27)           122.063          estimate D2E/DX2                !
 ! A39   A(12,11,27)           121.2248         estimate D2E/DX2                !
 ! A40   A(11,12,13)           122.4462         estimate D2E/DX2                !
 ! A41   A(11,12,24)           118.7793         estimate D2E/DX2                !
 ! A42   A(13,12,24)           118.7737         estimate D2E/DX2                !
 ! A43   A(1,13,12)            119.9112         estimate D2E/DX2                !
 ! A44   A(1,13,25)            119.6916         estimate D2E/DX2                !
 ! A45   A(12,13,25)           120.3972         estimate D2E/DX2                !
 ! A46   A(10,26,28)           112.8296         estimate D2E/DX2                !
 ! A47   A(10,26,29)           111.7767         estimate D2E/DX2                !
 ! A48   A(10,26,30)           112.2121         estimate D2E/DX2                !
 ! A49   A(28,26,29)           106.5552         estimate D2E/DX2                !
 ! A50   A(28,26,30)           106.9054         estimate D2E/DX2                !
 ! A51   A(29,26,30)           106.1204         estimate D2E/DX2                !
 ! A52   A(14,31,33)           119.018          estimate D2E/DX2                !
 ! A53   A(15,32,33)           113.267          estimate D2E/DX2                !
 ! A54   A(31,33,32)           124.1019         estimate D2E/DX2                !
 ! A55   A(31,33,34)           116.6015         estimate D2E/DX2                !
 ! A56   A(32,33,34)           119.2966         estimate D2E/DX2                !
 ! A57   A(33,34,35)           115.0934         estimate D2E/DX2                !
 ! A58   A(33,34,36)           106.8835         estimate D2E/DX2                !
 ! A59   A(33,34,37)           106.9018         estimate D2E/DX2                !
 ! A60   A(35,34,36)           110.8591         estimate D2E/DX2                !
 ! A61   A(35,34,37)           110.8822         estimate D2E/DX2                !
 ! A62   A(36,34,37)           105.6917         estimate D2E/DX2                !
 ! A63   A(34,35,38)           111.3435         estimate D2E/DX2                !
 ! A64   A(34,35,39)           110.5653         estimate D2E/DX2                !
 ! A65   A(34,35,40)           111.3164         estimate D2E/DX2                !
 ! A66   A(38,35,39)           107.8421         estimate D2E/DX2                !
 ! A67   A(38,35,40)           107.779          estimate D2E/DX2                !
 ! A68   A(39,35,40)           107.8405         estimate D2E/DX2                !
 ! A69   L(2,14,31,7,-1)       184.4028         estimate D2E/DX2                !
 ! A70   L(5,15,32,7,-1)       175.0817         estimate D2E/DX2                !
 ! A71   L(2,14,31,7,-2)       180.5141         estimate D2E/DX2                !
 ! A72   L(5,15,32,7,-2)       179.119          estimate D2E/DX2                !
 ! D1    D(9,1,2,3)            -14.4948         estimate D2E/DX2                !
 ! D2    D(9,1,2,14)           172.9322         estimate D2E/DX2                !
 ! D3    D(13,1,2,3)           166.9805         estimate D2E/DX2                !
 ! D4    D(13,1,2,14)           -5.5926         estimate D2E/DX2                !
 ! D5    D(2,1,9,10)          -179.0883         estimate D2E/DX2                !
 ! D6    D(2,1,9,23)             0.51           estimate D2E/DX2                !
 ! D7    D(13,1,9,10)           -0.5954         estimate D2E/DX2                !
 ! D8    D(13,1,9,23)          179.0029         estimate D2E/DX2                !
 ! D9    D(2,1,13,12)          178.8183         estimate D2E/DX2                !
 ! D10   D(2,1,13,25)           -1.1738         estimate D2E/DX2                !
 ! D11   D(9,1,13,12)            0.2031         estimate D2E/DX2                !
 ! D12   D(9,1,13,25)         -179.789          estimate D2E/DX2                !
 ! D13   D(1,2,3,4)             -0.2998         estimate D2E/DX2                !
 ! D14   D(1,2,3,5)           -179.8316         estimate D2E/DX2                !
 ! D15   D(14,2,3,4)           172.1899         estimate D2E/DX2                !
 ! D16   D(14,2,3,5)            -7.3419         estimate D2E/DX2                !
 ! D17   D(1,2,31,33)         -165.4143         estimate D2E/DX2                !
 ! D18   D(3,2,31,33)           21.6083         estimate D2E/DX2                !
 ! D19   D(2,3,5,6)            179.7363         estimate D2E/DX2                !
 ! D20   D(2,3,5,15)            -3.0375         estimate D2E/DX2                !
 ! D21   D(4,3,5,6)              0.2015         estimate D2E/DX2                !
 ! D22   D(4,3,5,15)           177.4277         estimate D2E/DX2                !
 ! D23   D(3,5,6,7)           -179.6681         estimate D2E/DX2                !
 ! D24   D(3,5,6,16)            59.0296         estimate D2E/DX2                !
 ! D25   D(3,5,6,17)           -58.4134         estimate D2E/DX2                !
 ! D26   D(15,5,6,7)             3.0511         estimate D2E/DX2                !
 ! D27   D(15,5,6,16)         -118.2512         estimate D2E/DX2                !
 ! D28   D(15,5,6,17)          124.3058         estimate D2E/DX2                !
 ! D29   D(3,5,32,33)           16.3713         estimate D2E/DX2                !
 ! D30   D(6,5,32,33)         -166.9605         estimate D2E/DX2                !
 ! D31   D(5,6,7,8)            179.979          estimate D2E/DX2                !
 ! D32   D(5,6,7,18)            58.2531         estimate D2E/DX2                !
 ! D33   D(5,6,7,19)           -58.3423         estimate D2E/DX2                !
 ! D34   D(16,6,7,8)           -58.8005         estimate D2E/DX2                !
 ! D35   D(16,6,7,18)          179.4737         estimate D2E/DX2                !
 ! D36   D(16,6,7,19)           62.8782         estimate D2E/DX2                !
 ! D37   D(17,6,7,8)            58.9168         estimate D2E/DX2                !
 ! D38   D(17,6,7,18)          -62.8091         estimate D2E/DX2                !
 ! D39   D(17,6,7,19)         -179.4045         estimate D2E/DX2                !
 ! D40   D(6,7,8,20)           -59.8411         estimate D2E/DX2                !
 ! D41   D(6,7,8,21)          -179.8855         estimate D2E/DX2                !
 ! D42   D(6,7,8,22)            60.0895         estimate D2E/DX2                !
 ! D43   D(18,7,8,20)           61.3861         estimate D2E/DX2                !
 ! D44   D(18,7,8,21)          -58.6582         estimate D2E/DX2                !
 ! D45   D(18,7,8,22)         -178.6833         estimate D2E/DX2                !
 ! D46   D(19,7,8,20)          178.9317         estimate D2E/DX2                !
 ! D47   D(19,7,8,21)           58.8874         estimate D2E/DX2                !
 ! D48   D(19,7,8,22)          -61.1377         estimate D2E/DX2                !
 ! D49   D(1,9,10,11)            0.6129         estimate D2E/DX2                !
 ! D50   D(1,9,10,26)          178.0702         estimate D2E/DX2                !
 ! D51   D(23,9,10,11)        -178.9871         estimate D2E/DX2                !
 ! D52   D(23,9,10,26)          -1.5298         estimate D2E/DX2                !
 ! D53   D(9,10,11,12)          -0.2058         estimate D2E/DX2                !
 ! D54   D(9,10,11,27)         179.8856         estimate D2E/DX2                !
 ! D55   D(26,10,11,12)       -177.6127         estimate D2E/DX2                !
 ! D56   D(26,10,11,27)          2.4787         estimate D2E/DX2                !
 ! D57   D(9,10,26,28)         166.2903         estimate D2E/DX2                !
 ! D58   D(9,10,26,29)         -73.6374         estimate D2E/DX2                !
 ! D59   D(9,10,26,30)          45.4467         estimate D2E/DX2                !
 ! D60   D(11,10,26,28)        -16.1624         estimate D2E/DX2                !
 ! D61   D(11,10,26,29)        103.91           estimate D2E/DX2                !
 ! D62   D(11,10,26,30)       -137.006          estimate D2E/DX2                !
 ! D63   D(10,11,12,13)         -0.2118         estimate D2E/DX2                !
 ! D64   D(10,11,12,24)       -179.888          estimate D2E/DX2                !
 ! D65   D(27,11,12,13)        179.6976         estimate D2E/DX2                !
 ! D66   D(27,11,12,24)          0.0214         estimate D2E/DX2                !
 ! D67   D(11,12,13,1)           0.2103         estimate D2E/DX2                !
 ! D68   D(11,12,13,25)       -179.7976         estimate D2E/DX2                !
 ! D69   D(24,12,13,1)         179.8866         estimate D2E/DX2                !
 ! D70   D(24,12,13,25)         -0.1213         estimate D2E/DX2                !
 ! D71   D(14,31,33,32)         -8.5625         estimate D2E/DX2                !
 ! D72   D(14,31,33,34)        171.4353         estimate D2E/DX2                !
 ! D73   D(15,32,33,31)         -2.7937         estimate D2E/DX2                !
 ! D74   D(15,32,33,34)        177.2085         estimate D2E/DX2                !
 ! D75   D(31,33,34,35)       -179.1729         estimate D2E/DX2                !
 ! D76   D(31,33,34,36)         57.2525         estimate D2E/DX2                !
 ! D77   D(31,33,34,37)        -55.5545         estimate D2E/DX2                !
 ! D78   D(32,33,34,35)          0.825          estimate D2E/DX2                !
 ! D79   D(32,33,34,36)       -122.7496         estimate D2E/DX2                !
 ! D80   D(32,33,34,37)        124.4434         estimate D2E/DX2                !
 ! D81   D(33,34,35,38)        -60.3394         estimate D2E/DX2                !
 ! D82   D(33,34,35,39)        179.7959         estimate D2E/DX2                !
 ! D83   D(33,34,35,40)         59.951          estimate D2E/DX2                !
 ! D84   D(36,34,35,38)         61.1021         estimate D2E/DX2                !
 ! D85   D(36,34,35,39)        -58.7626         estimate D2E/DX2                !
 ! D86   D(36,34,35,40)       -178.6074         estimate D2E/DX2                !
 ! D87   D(37,34,35,38)        178.1767         estimate D2E/DX2                !
 ! D88   D(37,34,35,39)         58.312          estimate D2E/DX2                !
 ! D89   D(37,34,35,40)        -61.5328         estimate D2E/DX2                !
 --------------------------------------------------------------------------------
 Trust Radius=3.00D-01 FncErr=1.00D-07 GrdErr=1.00D-06
 Number of steps in this run=    212 maximum allowed number of steps=    240.
 GradGradGradGradGradGradGradGradGradGradGradGradGradGradGradGradGradGrad

                          Input orientation:                          
 ---------------------------------------------------------------------
 Center     Atomic      Atomic             Coordinates (Angstroms)
 Number     Number       Type             X           Y           Z
 ---------------------------------------------------------------------
      1          6           0       -5.953146    1.227086    0.094436
      2          7           0       -4.686073    0.660317    0.030033
      3          6           0       -3.477038    1.325095   -0.040627
      4          8           0       -3.379870    2.559426   -0.060746
      5          7           0       -2.408039    0.510087   -0.096010
      6          6           0       -1.059737    1.052165   -0.179561
      7          6           0       -0.042021   -0.075930   -0.237493
      8          6           0        1.378024    0.469173   -0.325925
      9          6           0       -6.209962    2.570897    0.386508
     10          6           0       -7.527765    3.013061    0.439891
     11          6           0       -8.613353    2.176166    0.227621
     12          6           0       -8.330400    0.844978   -0.052136
     13          6           0       -7.039118    0.361381   -0.123943
     14          1           0       -4.661947   -0.363272   -0.083752
     15          1           0       -2.524273   -0.505508   -0.037610
     16          1           0       -0.861657    1.689933    0.687910
     17          1           0       -0.970627    1.682639   -1.069633
     18          1           0       -0.255982   -0.711319   -1.102646
     19          1           0       -0.148181   -0.704861    0.651994
     20          1           0        1.507299    1.085147   -1.219754
     21          1           0        2.109248   -0.340190   -0.369592
     22          1           0        1.615854    1.087862    0.543404
     23          1           0       -5.398739    3.257351    0.575026
     24         17           0       -9.657759   -0.256416   -0.331639
     25          1           0       -6.856310   -0.683591   -0.347918
     26          6           0       -7.761378    4.450564    0.799709
     27          1           0       -9.632913    2.534983    0.274362
     28          9           0       -9.012940    4.853680    0.543590
     29          9           0       -7.544715    4.679588    2.110159
     30          9           0       -6.939786    5.280579    0.135061
     31          8           0       -4.759533   -2.165814   -0.294822
     32          8           0       -2.575303   -2.384866    0.087131
     33          6           0       -3.722592   -2.863843   -0.098354
     34          6           0       -3.909323   -4.376989   -0.091913
     35          6           0       -2.645509   -5.181489    0.166533
     36          1           0       -4.352670   -4.646622   -1.055423
     37          1           0       -4.673858   -4.599971    0.658393
     38          1           0       -1.888740   -4.988723   -0.596511
     39          1           0       -2.863614   -6.251619    0.158698
     40          1           0       -2.210250   -4.935912    1.137302
 ---------------------------------------------------------------------
                    Distance matrix (angstroms):
                    1          2          3          4          5
     1  C    0.000000
     2  N    1.389551   0.000000
     3  C    2.481725   1.381552   0.000000
     4  O    2.901889   2.306734   1.238314   0.000000
     5  N    3.621897   2.286458   1.345386   2.268367   0.000000
     6  C    4.904195   3.653462   2.436624   2.769291   1.455592
     7  C    6.062131   4.709655   3.714966   4.256475   2.441614
     8  C    7.382221   6.077541   4.938180   5.203559   3.793258
     9  C    1.398959   2.469743   3.033701   2.865238   4.351365
    10  C    2.405924   3.711954   4.414580   4.202554   5.723955
    11  C    2.827577   4.214306   5.213254   5.255415   6.433232
    12  C    2.412224   3.649927   4.877065   5.239002   5.931983
    13  C    1.405870   2.376951   3.691084   4.269132   4.633550
    14  H    2.056255   1.030176   2.063116   3.191616   2.417230
    15  H    3.844020   2.457051   2.063705   3.182201   1.023891
    16  H    5.146814   4.014855   2.739359   2.767291   2.097108
    17  H    5.136933   4.007361   2.732908   2.755187   2.094988
    18  H    6.135805   4.773892   3.956016   4.641337   2.671422
    19  H    6.143363   4.779435   3.960017   4.648374   2.672558
    20  H    7.576641   6.332480   5.127527   5.234618   4.113802
    21  H    8.226414   6.880196   5.838492   6.215592   4.604748
    22  H    7.583583   6.337242   5.131757   5.242877   4.115142
    23  H    2.158775   2.747635   2.793846   2.228707   4.116070
    24  Cl   4.013287   5.068419   6.386484   6.885800   7.293934
    25  H    2.159183   2.580478   3.943187   4.762905   4.612530
    26  C    3.762701   4.941242   5.369384   4.849164   6.707302
    27  H    3.909431   5.295781   6.281548   6.262063   7.512401
    28  F    4.766158   6.047298   6.590784   6.112307   7.930990
    29  F    4.303022   5.352878   5.694252   5.153042   6.974049
    30  F    4.172039   5.141700   5.259976   4.485088   6.583898
    31  O    3.617735   2.845688   3.727714   4.928099   3.567842
    32  O    4.945309   3.705637   3.820112   5.011509   2.905559
    33  C    4.663501   3.655746   4.196526   5.434218   3.620974
    34  C    5.968048   5.098299   5.718676   6.956662   5.112473
    35  C    7.212177   6.189445   6.562773   7.778992   5.702575
    36  H    6.195494   5.427059   6.120289   7.339131   5.594077
    37  H    5.992430   5.297699   6.085015   7.310851   5.640545
    38  H    7.458759   6.334767   6.534217   7.712656   5.545907
    39  H    8.091994   7.149319   7.604118   8.828884   6.781820
    40  H    7.285560   6.218804   6.495573   7.680067   5.587404
                    6          7          8          9         10
     6  C    0.000000
     7  C    1.520428   0.000000
     8  C    2.510773   1.523642   0.000000
     9  C    5.399241   6.740814   7.905842   0.000000
    10  C    6.787063   8.126320   9.293595   1.391030   0.000000
    11  C    7.647633   8.874458  10.151249   2.440767   1.387066
    12  C    7.274730   8.341442   9.719551   2.769017   2.363661
    13  C    6.019408   7.011669   8.420255   2.414543   2.754649
    14  H    3.871505   4.631405   6.101873   3.350648   4.459455
    15  H    2.142746   2.527066   4.032499   4.819590   6.135411
    16  H    1.094755   2.155561   2.744865   5.428748   6.800675
    17  H    1.094379   2.155767   2.746227   5.509989   6.858917
    18  H    2.146621   1.094526   2.160285   6.959914   8.314401
    19  H    2.146988   1.094537   2.159626   6.895380   8.265966
    20  H    2.769976   2.171020   1.093190   8.021450   9.386355
    21  H    3.466588   2.171461   1.091634   8.846207  10.235799
    22  H    2.771776   2.170890   1.093194   7.966644   9.344672
    23  H    4.925361   6.361240   7.383099   1.079278   2.147252
    24  Cl   8.698361   9.617893  11.059612   4.516274   3.977639
    25  H    6.053218   6.842220   8.314662   3.398358   3.838845
    26  C    7.577603   9.008519  10.032307   2.471998   1.500153
    27  H    8.712298   9.953094  11.219119   3.424975   2.165087
    28  F    8.844654  10.265892  11.311591   3.618350   2.367357
    29  F    7.775343   9.187864  10.162547   3.033004   2.359533
    30  F    7.249375   8.741290   9.620192   2.817489   2.362262
    31  O    4.904811   5.160022   6.679351   5.000438   5.918079
    32  O    3.765800   3.442976   4.893358   6.153045   7.334094
    33  C    4.736297   4.619353   6.097300   5.996540   7.021898
    34  C    6.132172   5.785873   7.176077   7.334503   8.245530
    35  C    6.441498   5.745270   6.954230   8.535409   9.542631
    36  H    6.639782   6.335766   7.716500   7.590868   8.425433
    37  H    6.760967   6.536320   7.955525   7.338589   8.133313
    38  H    6.111745   5.260685   6.366600   8.762827   9.843845
    39  H    7.530846   6.801286   7.962123   9.438576  10.376303
    40  H    6.238179   5.496427   6.650691   8.538944   9.588979
                   11         12         13         14         15
    11  C    0.000000
    12  C    1.389384   0.000000
    13  C    2.428015   1.380735   0.000000
    14  H    4.707368   3.862437   2.485494   0.000000
    15  H    6.658726   5.961135   4.598128   2.142898   0.000000
    16  H    7.780558   7.552730   6.370649   4.387859   2.847916
    17  H    7.767734   7.476846   6.282247   4.333999   2.875217
    18  H    8.941635   8.289864   6.936820   4.535615   2.514319
    19  H    8.952069   8.357422   7.015979   4.586075   2.482157
    20  H   10.281674   9.909658   8.646727   6.438013   4.492351
    21  H   11.030090  10.511501   9.178516   6.777264   4.648339
    22  H   10.291784   9.967027   8.711009   6.473786   4.474043
    23  H    3.409310   3.848052   3.400888   3.753100   4.774619
    24  Cl   2.705737   1.747305   2.698535   5.003100   7.143887
    25  H    3.405387   2.144051   1.084228   2.233298   4.346786
    26  C    2.495202   3.748289   4.253964   5.793099   7.258858
    27  H    1.081867   2.158532   3.407486   5.765296   7.737873
    28  F    2.725544   4.109798   4.952002   6.822118   8.435727
    29  F    3.309540   4.471806   4.888124   6.209190   7.530138
    30  F    3.527999   4.652247   4.927013   6.090113   7.280479
    31  O    5.829036   4.677056   3.407700   1.817480   2.796277
    32  O    7.568408   6.600942   5.245195   2.910348   1.884185
    33  C    7.030469   5.915182   4.626237   2.671227   2.646017
    34  C    8.073031   6.842254   5.678802   4.083679   4.112138
    35  C    9.473858   8.287587   7.078954   5.229138   4.682005
    36  H    8.145554   6.854676   5.758884   4.403054   4.639807
    37  H    7.849919   6.597168   5.551713   4.301226   4.676512
    38  H    9.860793   8.707663   7.441325   5.417416   4.562400
    39  H   10.202539   8.960574   7.826013   6.161608   5.759469
    40  H    9.612955   8.502334   7.278051   5.330181   4.594291
                   16         17         18         19         20
    16  H    0.000000
    17  H    1.760932   0.000000
    18  H    3.055968   2.498568   0.000000
    19  H    2.499075   3.056235   1.757960   0.000000
    20  H    3.101113   2.553361   2.519953   3.073790   0.000000
    21  H    3.750465   3.750670   2.503881   2.504518   1.765419
    22  H    2.553710   3.105726   3.074135   2.517434   1.766499
    23  H    4.801526   4.979236   6.709163   6.578252   7.458758
    24  Cl   9.066375   8.931451   9.444300   9.570825  11.280384
    25  H    6.530116   6.384448   6.643396   6.782276   8.592932
    26  C    7.432343   7.567703   9.305641   9.195705  10.065418
    27  H    8.821567   8.807270  10.018057  10.029921  11.333081
    28  F    8.744915   8.794133  10.505409  10.463894  11.313119
    29  F    7.458156   7.893757   9.618192   9.264300  10.293070
    30  F    7.081104   7.072998   9.061346   9.067447   9.528401
    31  O    5.570097   5.455890   4.801053   4.929037   7.120213
    32  O    4.461110   4.523018   3.097673   3.005396   5.515123
    33  C    5.435074   5.402517   4.202303   4.242716   6.648595
    34  C    6.834027   6.805216   5.273103   5.308871   7.774751
    35  C    7.118314   7.172837   5.225235   5.149030   7.644497
    36  H    7.441660   7.176208   5.680818   6.010863   8.198744
    37  H    7.355041   7.494744   6.143330   5.971069   8.605504
    38  H    6.878159   6.750841   4.606328   4.789549   6.986659
    39  H    8.207078   8.248918   6.251852   6.195436   8.650615
    40  H    6.776612   7.086074   5.165628   4.731748   7.458487
                   21         22         23         24         25
    21  H    0.000000
    22  H    1.765313   0.000000
    23  H    8.378811   7.342493   0.000000
    24  Cl  11.767366  11.387148   5.595342   0.000000
    25  H    8.972158   8.701153   4.302018   2.833877   0.000000
    26  C   11.033940   9.965237   2.656370   5.199218   5.338141
    27  H   12.106182  11.344660   4.305861   2.856531   4.296042
    28  F   12.309072  11.276199   3.951165   5.224453   6.008928
    29  F   11.160033   9.963496   2.997433   5.898430   5.939675
    30  F   10.664555   9.536488   2.581055   6.185750   5.984276
    31  O    7.107648   7.206567   5.529551   5.257354   2.568321
    32  O    5.131697   5.462035   6.328068   7.407216   4.627162
    33  C    6.360248   6.672844   6.382156   6.486856   3.825698
    34  C    7.252314   7.797167   7.806811   7.076800   4.731961
    35  C    6.806859   7.589863   8.886009   8.583482   6.182765
    36  H    7.795647   8.429937   8.137899   6.923997   4.740716
    37  H    8.075458   8.480870   7.891129   6.684751   4.594974
    38  H    6.135492   7.106791   9.038270   9.100689   6.578199
    39  H    7.742961   8.607068   9.849908   9.074320   6.870313
    40  H    6.484555   7.160841   8.809777   8.917447   6.471011
                   26         27         28         29         30
    26  C    0.000000
    27  H    2.729117   0.000000
    28  F    1.339592   2.415203   0.000000
    29  F    1.347841   3.511417   2.154096   0.000000
    30  F    1.343761   3.848458   2.155715   2.151311   0.000000
    31  O    7.347484   6.794946   8.250315   7.771789   7.770912
    32  O    8.609660   8.605221   9.697839   8.870976   8.821001
    33  C    8.403502   8.013622   9.378701   8.740109   8.759933
    34  C    9.672590   8.981592  10.566741  10.004338  10.124418
    35  C   10.924718  10.410542  11.890793  11.181268  11.309141
    36  H    9.890378   9.012477  10.701901  10.353176  10.327620
    37  H    9.563730   8.697544  10.402516   9.821388  10.150546
    38  H   11.204349  10.832210  12.203563  11.523556  11.467642
    39  H   11.787099  11.092392  12.700000  12.050402  12.231407
    40  H   10.910313  10.566687  11.935879  11.039059  11.302641
                   31         32         33         34         35
    31  O    0.000000
    32  O    2.228169   0.000000
    33  C    1.265342   1.257019   0.000000
    34  C    2.377672   2.404209   1.524638   0.000000
    35  C    3.711636   2.798631   2.569388   1.520277   0.000000
    36  H    2.626492   3.095158   2.119264   1.094354   2.166485
    37  H    2.615546   3.104346   2.119366   1.094163   2.166631
    38  H    4.037485   2.778274   2.850665   2.170621   1.091830
    39  H    4.527029   3.878146   3.504418   2.161146   1.092158
    40  H    4.027812   2.782796   2.847366   2.170303   1.091856
                   36         37         38         39         40
    36  H    0.000000
    37  H    1.744278   0.000000
    38  H    2.529542   3.079414   0.000000
    39  H    2.503476   2.500923   1.765113   0.000000
    40  H    3.079236   2.532108   1.764161   1.765116   0.000000
 Stoichiometry    C14H17ClF3N2O3(1-)
 Framework group  C1[X(C14H17ClF3N2O3)]
 Deg. of freedom   114
 Full point group                 C1      NOp   1
 Largest Abelian subgroup         C1      NOp   1
 Largest concise Abelian subgroup C1      NOp   1
                         Standard orientation:                         
 ---------------------------------------------------------------------
 Center     Atomic      Atomic             Coordinates (Angstroms)
 Number     Number       Type             X           Y           Z
 ---------------------------------------------------------------------
      1          6           0        0.933626    0.106877   -0.085651
      2          7           0       -0.415301   -0.226271   -0.069509
      3          6           0       -0.964094   -1.490140   -0.170243
      4          8           0       -0.285368   -2.518030   -0.297498
      5          7           0       -2.308708   -1.506703   -0.127780
      6          6           0       -3.043219   -2.759445   -0.227168
      7          6           0       -4.539599   -2.498430   -0.160677
      8          6           0       -5.329051   -3.797536   -0.263497
      9          6           0        1.980822   -0.805849    0.079874
     10          6           0        3.292465   -0.342971    0.062613
     11          6           0        3.617895    0.995514   -0.100193
     12          6           0        2.558778    1.881525   -0.253958
     13          6           0        1.241249    1.468555   -0.251994
     14          1           0       -1.070079    0.568744   -0.091420
     15          1           0       -2.835544   -0.640896    0.017736
     16          1           0       -2.744494   -3.430313    0.584736
     17          1           0       -2.792099   -3.260180   -1.167311
     18          1           0       -4.824202   -1.819761   -0.970860
     19          1           0       -4.776403   -1.988355    0.778344
     20          1           0       -5.118693   -4.311457   -1.205144
     21          1           0       -6.403627   -3.610801   -0.217860
     22          1           0       -5.073157   -4.478050    0.552892
     23          1           0        1.777266   -1.855653    0.225885
     24         17           0        2.907337    3.580535   -0.465966
     25          1           0        0.440452    2.188558   -0.377977
     26          6           0        4.383808   -1.347314    0.287834
     27          1           0        4.643339    1.340205   -0.109615
     28          9           0        5.596713   -0.877530   -0.032588
     29          9           0        4.449833   -1.733241    1.577553
     30          9           0        4.197547   -2.469047   -0.428209
     31          8           0       -2.113737    2.055771   -0.143970
     32          8           0       -3.938294    0.859149    0.307496
     33          6           0       -3.342959    1.953220    0.138142
     34          6           0       -4.123143    3.256012    0.274397
     35          6           0       -5.591563    3.093663    0.633041
     36          1           0       -4.010298    3.794480   -0.671610
     37          1           0       -3.603379    3.861236    1.023225
     38          1           0       -6.124674    2.517658   -0.125974
     39          1           0       -6.076545    4.068794    0.715029
     40          1           0       -5.712260    2.578669    1.588219
 ---------------------------------------------------------------------
 Rotational constants (GHZ):      0.2733814      0.1125167      0.0818421
 Standard basis: 6-311+G(d) (5D, 7F)
 There are   588 symmetry adapted cartesian basis functions of A   symmetry.
 There are   565 symmetry adapted basis functions of A   symmetry.
   565 basis functions,   930 primitive gaussians,   588 cartesian basis functions
    92 alpha electrons       92 beta electrons
       nuclear repulsion energy      2078.7155232026 Hartrees.
 NAtoms=   40 NActive=   40 NUniq=   40 SFac= 1.00D+00 NAtFMM=   60 NAOKFM=F Big=F
 Integral buffers will be    131072 words long.
 Raffenetti 2 integral format.
 Two-electron integral symmetry is turned on.
 Nuclear repulsion after empirical dispersion term =     2078.7130905410 Hartrees.
 ------------------------------------------------------------------------------
 Polarizable Continuum Model (PCM)
 =================================
 Model                : PCM (using non-symmetric T matrix).
 Atomic radii         : SMD-Coulomb.
 Polarization charges : Total charges.
 Charge compensation  : None.
 Solution method      : On-the-fly selection.
 Cavity type          : VdW (van der Waals Surface) (Alpha=1.000).
 Cavity algorithm     : GePol (No added spheres)
                        Default sphere list used, NSphG=   40.
                        Lebedev-Laikov grids with approx.  5.0 points / Ang**2.
                        Smoothing algorithm: York/Karplus (Gamma=1.0000).
                        Polarization charges: spherical gaussians, with
                                              point-specific exponents (IZeta= 3).
                        Self-potential: point-specific (ISelfS= 7).
                        Self-field    : sphere-specific E.n sum rule (ISelfD= 2).
 1st derivatives      : Analytical E(r).r(x)/FMM algorithm (CHGder, D1EAlg=3).
                        Cavity 1st derivative terms included.
 Solvent              : Water, Eps=  78.355300 Eps(inf)=   1.777849
 ------------------------------------------------------------------------------
 ------------------------------------------------------------------------------
 Atomic radii for non-electrostatic terms: SMD-CDS.
 ------------------------------------------------------------------------------
 Nuclear repulsion after PCM non-electrostatic terms =     2078.7278435388 Hartrees.
 One-electron integrals computed using PRISM.
 NBasis=   565 RedAO= T EigKep=  1.02D-06  NBF=   565
 NBsUse=   563 1.00D-06 EigRej=  6.01D-07 NBFU=   563
 ExpMin= 4.38D-02 ExpMax= 1.06D+05 ExpMxC= 3.62D+03 IAcc=3 IRadAn=         5 AccDes= 0.00D+00
 Harris functional with IExCor= 1009 and IRadAn=       5 diagonalized for initial guess.
 HarFok:  IExCor= 1009 AccDes= 0.00D+00 IRadAn=         5 IDoV= 1 UseB2=F ITyADJ=14
 ICtDFT=  3500011 ScaDFX=  1.000000  1.000000  1.000000  1.000000
 FoFCou: FMM=F IPFlag=           0 FMFlag=      100000 FMFlg1=           0
         NFxFlg=           0 DoJE=T BraDBF=F KetDBF=T FulRan=T
         wScrn=  0.000000 ICntrl=     500 IOpCl=  0 I1Cent=   200000004 NGrid=           0
         NMat0=    1 NMatS0=      1 NMatT0=    0 NMatD0=    1 NMtDS0=    0 NMtDT0=    0
 Petite list used in FoFCou.
 Requested convergence on RMS density matrix=1.00D-08 within 128 cycles.
 Requested convergence on MAX density matrix=1.00D-06.
 Requested convergence on             energy=1.00D-06.
 No special actions if energy rises.
 Inv3:  Mode=1 IEnd=    30108672.
 Iteration    1 A*A^-1 deviation from unit magnitude is 4.66D-15 for   3154.
 Iteration    1 A*A^-1 deviation from orthogonality  is 3.68D-15 for   1672    189.
 Iteration    1 A^-1*A deviation from unit magnitude is 5.44D-15 for   3154.
 Iteration    1 A^-1*A deviation from orthogonality  is 1.66D-09 for   1997   1434.
 Iteration    2 A*A^-1 deviation from unit magnitude is 3.00D-15 for    494.
 Iteration    2 A*A^-1 deviation from orthogonality  is 3.62D-15 for   2098    625.
 Iteration    2 A^-1*A deviation from unit magnitude is 8.88D-16 for   1212.
 Iteration    2 A^-1*A deviation from orthogonality  is 3.40D-16 for    249    242.
 Error on total polarization charges =  0.05750
 SCF Done:  E(RM062X) =  -1638.74941912     A.U. after   15 cycles
            NFock= 15  Conv=0.49D-08     -V/T= 2.0030
 SMD-CDS (non-electrostatic) energy       (kcal/mol) =       9.26
 (included in total energy above)

 **********************************************************************

            Population analysis using the SCF density.

 **********************************************************************

 Orbital symmetries:
       Occupied  (A) (A) (A) (A) (A) (A) (A) (A) (A) (A) (A) (A)
                 (A) (A) (A) (A) (A) (A) (A) (A) (A) (A) (A) (A)
                 (A) (A) (A) (A) (A) (A) (A) (A) (A) (A) (A) (A)
                 (A) (A) (A) (A) (A) (A) (A) (A) (A) (A) (A) (A)
                 (A) (A) (A) (A) (A) (A) (A) (A) (A) (A) (A) (A)
                 (A) (A) (A) (A) (A) (A) (A) (A) (A) (A) (A) (A)
                 (A) (A) (A) (A) (A) (A) (A) (A) (A) (A) (A) (A)
                 (A) (A) (A) (A) (A) (A) (A) (A)
       Virtual   (A) (A) (A) (A) (A) (A) (A) (A) (A) (A) (A) (A)
                 (A) (A) (A) (A) (A) (A) (A) (A) (A) (A) (A) (A)
                 (A) (A) (A) (A) (A) (A) (A) (A) (A) (A) (A) (A)
                 (A) (A) (A) (A) (A) (A) (A) (A) (A) (A) (A) (A)
                 (A) (A) (A) (A) (A) (A) (A) (A) (A) (A) (A) (A)
                 (A) (A) (A) (A) (A) (A) (A) (A) (A) (A) (A) (A)
                 (A) (A) (A) (A) (A) (A) (A) (A) (A) (A) (A) (A)
                 (A) (A) (A) (A) (A) (A) (A) (A) (A) (A) (A) (A)
                 (A) (A) (A) (A) (A) (A) (A) (A) (A) (A) (A) (A)
                 (A) (A) (A) (A) (A) (A) (A) (A) (A) (A) (A) (A)
                 (A) (A) (A) (A) (A) (A) (A) (A) (A) (A) (A) (A)
                 (A) (A) (A) (A) (A) (A) (A) (A) (A) (A) (A) (A)
                 (A) (A) (A) (A) (A) (A) (A) (A) (A) (A) (A) (A)
                 (A) (A) (A) (A) (A) (A) (A) (A) (A) (A) (A) (A)
                 (A) (A) (A) (A) (A) (A) (A) (A) (A) (A) (A) (A)
                 (A) (A) (A) (A) (A) (A) (A) (A) (A) (A) (A) (A)
                 (A) (A) (A) (A) (A) (A) (A) (A) (A) (A) (A) (A)
                 (A) (A) (A) (A) (A) (A) (A) (A) (A) (A) (A) (A)
                 (A) (A) (A) (A) (A) (A) (A) (A) (A) (A) (A) (A)
                 (A) (A) (A) (A) (A) (A) (A) (A) (A) (A) (A) (A)
                 (A) (A) (A) (A) (A) (A) (A) (A) (A) (A) (A) (A)
                 (A) (A) (A) (A) (A) (A) (A) (A) (A) (A) (A) (A)
                 (A) (A) (A) (A) (A) (A) (A) (A) (A) (A) (A) (A)
                 (A) (A) (A) (A) (A) (A) (A) (A) (A) (A) (A) (A)
                 (A) (A) (A) (A) (A) (A) (A) (A) (A) (A) (A) (A)
                 (A) (A) (A) (A) (A) (A) (A) (A) (A) (A) (A) (A)
                 (A) (A) (A) (A) (A) (A) (A) (A) (A) (A) (A) (A)
                 (A) (A) (A) (A) (A) (A) (A) (A) (A) (A) (A) (A)
                 (A) (A) (A) (A) (A) (A) (A) (A) (A) (A) (A) (A)
                 (A) (A) (A) (A) (A) (A) (A) (A) (A) (A) (A) (A)
                 (A) (A) (A) (A) (A) (A) (A) (A) (A) (A) (A) (A)
                 (A) (A) (A) (A) (A) (A) (A) (A) (A) (A) (A) (A)
                 (A) (A) (A) (A) (A) (A) (A) (A) (A) (A) (A) (A)
                 (A) (A) (A) (A) (A) (A) (A) (A) (A) (A) (A) (A)
                 (A) (A) (A) (A) (A) (A) (A) (A) (A) (A) (A) (A)
                 (A) (A) (A) (A) (A) (A) (A) (A) (A) (A) (A) (A)
                 (A) (A) (A) (A) (A) (A) (A) (A) (A) (A) (A) (A)
                 (A) (A) (A) (A) (A) (A) (A) (A) (A) (A) (A) (A)
                 (A) (A) (A) (A) (A) (A) (A) (A) (A) (A) (A) (A)
                 (A) (A) (A)
 The electronic state is 1-A.
 Alpha  occ. eigenvalues -- -102.68395 -25.28544 -25.28280 -25.28089 -19.59311
 Alpha  occ. eigenvalues --  -19.57922 -19.57619 -14.77312 -14.75499 -10.80838
 Alpha  occ. eigenvalues --  -10.67568 -10.63872 -10.61947 -10.61145 -10.58208
 Alpha  occ. eigenvalues --  -10.56384 -10.56146 -10.56098 -10.55780 -10.52674
 Alpha  occ. eigenvalues --  -10.52458 -10.51541 -10.51347  -9.82668  -7.55174
 Alpha  occ. eigenvalues --   -7.54512  -7.54497  -1.47684  -1.38395  -1.37937
 Alpha  occ. eigenvalues --   -1.17827  -1.16688  -1.06870  -1.05863  -1.02663
 Alpha  occ. eigenvalues --   -1.00343  -0.95531  -0.89312  -0.87266  -0.85740
 Alpha  occ. eigenvalues --   -0.84433  -0.81757  -0.77800  -0.74057  -0.72429
 Alpha  occ. eigenvalues --   -0.72194  -0.70037  -0.69965  -0.68030  -0.66268
 Alpha  occ. eigenvalues --   -0.65744  -0.62528  -0.59553  -0.59441  -0.58533
 Alpha  occ. eigenvalues --   -0.58270  -0.57611  -0.55553  -0.55247  -0.53987
 Alpha  occ. eigenvalues --   -0.53848  -0.53472  -0.52926  -0.52863  -0.52023
 Alpha  occ. eigenvalues --   -0.51971  -0.51484  -0.50704  -0.50221  -0.49054
 Alpha  occ. eigenvalues --   -0.48452  -0.46399  -0.46341  -0.45533  -0.45476
 Alpha  occ. eigenvalues --   -0.44325  -0.43631  -0.42148  -0.41755  -0.41457
 Alpha  occ. eigenvalues --   -0.39629  -0.39525  -0.39020  -0.38836  -0.38148
 Alpha  occ. eigenvalues --   -0.35836  -0.34003  -0.32921  -0.32488  -0.32341
 Alpha  occ. eigenvalues --   -0.31760  -0.27605
 Alpha virt. eigenvalues --   -0.00972   0.00586   0.01169   0.02223   0.02570
 Alpha virt. eigenvalues --    0.03298   0.03352   0.03483   0.04254   0.04523
 Alpha virt. eigenvalues --    0.04919   0.05100   0.05406   0.05674   0.06032
 Alpha virt. eigenvalues --    0.06594   0.06978   0.07169   0.07419   0.07782
 Alpha virt. eigenvalues --    0.07972   0.08075   0.08699   0.09040   0.09577
 Alpha virt. eigenvalues --    0.09837   0.09946   0.10287   0.10541   0.11044
 Alpha virt. eigenvalues --    0.11300   0.12003   0.12213   0.12356   0.12750
 Alpha virt. eigenvalues --    0.13135   0.13577   0.14048   0.14165   0.14646
 Alpha virt. eigenvalues --    0.15318   0.16069   0.16095   0.16542   0.17184
 Alpha virt. eigenvalues --    0.17514   0.18002   0.18310   0.18754   0.18981
 Alpha virt. eigenvalues --    0.19293   0.19741   0.20208   0.20361   0.20635
 Alpha virt. eigenvalues --    0.20851   0.21027   0.21530   0.21901   0.22424
 Alpha virt. eigenvalues --    0.22642   0.22768   0.23023   0.23385   0.23806
 Alpha virt. eigenvalues --    0.24118   0.24466   0.24923   0.25241   0.25277
 Alpha virt. eigenvalues --    0.25641   0.26188   0.26461   0.26716   0.26749
 Alpha virt. eigenvalues --    0.27025   0.27252   0.27560   0.27811   0.27997
 Alpha virt. eigenvalues --    0.28326   0.29126   0.29133   0.29221   0.29422
 Alpha virt. eigenvalues --    0.29846   0.30203   0.30676   0.31159   0.31270
 Alpha virt. eigenvalues --    0.31929   0.32167   0.32349   0.32664   0.32952
 Alpha virt. eigenvalues --    0.33599   0.33781   0.33848   0.34168   0.34508
 Alpha virt. eigenvalues --    0.34987   0.35353   0.36297   0.36726   0.37106
 Alpha virt. eigenvalues --    0.37349   0.37491   0.38622   0.38766   0.39120
 Alpha virt. eigenvalues --    0.39389   0.39719   0.40339   0.40691   0.41358
 Alpha virt. eigenvalues --    0.42233   0.42857   0.43626   0.43936   0.44868
 Alpha virt. eigenvalues --    0.45032   0.45263   0.46298   0.47045   0.47278
 Alpha virt. eigenvalues --    0.47988   0.48231   0.48740   0.49263   0.49451
 Alpha virt. eigenvalues --    0.50509   0.51038   0.51269   0.51640   0.52156
 Alpha virt. eigenvalues --    0.53225   0.53541   0.54694   0.54972   0.55469
 Alpha virt. eigenvalues --    0.56423   0.57057   0.57142   0.58063   0.58670
 Alpha virt. eigenvalues --    0.59626   0.60558   0.61459   0.61998   0.63338
 Alpha virt. eigenvalues --    0.64082   0.64340   0.65168   0.65940   0.66240
 Alpha virt. eigenvalues --    0.67501   0.67900   0.69142   0.69369   0.70159
 Alpha virt. eigenvalues --    0.70307   0.70878   0.71085   0.71261   0.72161
 Alpha virt. eigenvalues --    0.72624   0.72965   0.73101   0.73904   0.74256
 Alpha virt. eigenvalues --    0.74798   0.75274   0.75294   0.75749   0.76363
 Alpha virt. eigenvalues --    0.77244   0.77615   0.78175   0.79288   0.79772
 Alpha virt. eigenvalues --    0.80081   0.80744   0.80794   0.81374   0.82385
 Alpha virt. eigenvalues --    0.82882   0.85142   0.86645   0.88388   0.89472
 Alpha virt. eigenvalues --    0.90457   0.91215   0.92119   0.92576   0.93357
 Alpha virt. eigenvalues --    0.93454   0.94038   0.95605   0.96899   0.97221
 Alpha virt. eigenvalues --    0.97393   0.98295   0.99863   1.00418   1.00582
 Alpha virt. eigenvalues --    1.03124   1.03439   1.05105   1.06131   1.06214
 Alpha virt. eigenvalues --    1.07302   1.08526   1.09551   1.10133   1.12546
 Alpha virt. eigenvalues --    1.13824   1.14654   1.14982   1.16988   1.17475
 Alpha virt. eigenvalues --    1.18290   1.18942   1.19707   1.21899   1.23198
 Alpha virt. eigenvalues --    1.23838   1.24088   1.24849   1.25367   1.26232
 Alpha virt. eigenvalues --    1.27591   1.29162   1.30040   1.31311   1.31671
 Alpha virt. eigenvalues --    1.33490   1.33530   1.35966   1.37027   1.38555
 Alpha virt. eigenvalues --    1.40089   1.40889   1.43166   1.43240   1.44349
 Alpha virt. eigenvalues --    1.46610   1.46697   1.47883   1.49379   1.50007
 Alpha virt. eigenvalues --    1.50754   1.50948   1.51824   1.53199   1.53465
 Alpha virt. eigenvalues --    1.54195   1.56124   1.57399   1.57894   1.59223
 Alpha virt. eigenvalues --    1.59574   1.59916   1.60555   1.61995   1.62054
 Alpha virt. eigenvalues --    1.62871   1.63441   1.64449   1.64942   1.66449
 Alpha virt. eigenvalues --    1.68397   1.70222   1.70819   1.74054   1.75356
 Alpha virt. eigenvalues --    1.76877   1.77368   1.78030   1.78370   1.78646
 Alpha virt. eigenvalues --    1.79140   1.80594   1.81677   1.82364   1.83398
 Alpha virt. eigenvalues --    1.85168   1.85653   1.87316   1.88055   1.88555
 Alpha virt. eigenvalues --    1.90237   1.92415   1.92801   1.94106   1.95485
 Alpha virt. eigenvalues --    1.97089   1.98617   2.00523   2.01385   2.02378
 Alpha virt. eigenvalues --    2.05330   2.06823   2.08364   2.11081   2.12334
 Alpha virt. eigenvalues --    2.12956   2.15762   2.17274   2.17437   2.18432
 Alpha virt. eigenvalues --    2.23196   2.23954   2.25391   2.27576   2.29533
 Alpha virt. eigenvalues --    2.30490   2.34504   2.35785   2.36561   2.38424
 Alpha virt. eigenvalues --    2.41146   2.45956   2.48167   2.50009   2.54387
 Alpha virt. eigenvalues --    2.54593   2.56314   2.56712   2.57401   2.59109
 Alpha virt. eigenvalues --    2.59856   2.60443   2.60632   2.61222   2.62246
 Alpha virt. eigenvalues --    2.66311   2.66970   2.67771   2.68753   2.71436
 Alpha virt. eigenvalues --    2.72066   2.74987   2.77564   2.78515   2.83442
 Alpha virt. eigenvalues --    2.83842   2.86385   2.86560   2.91287   2.92197
 Alpha virt. eigenvalues --    2.93353   2.94794   2.96360   2.97869   2.98850
 Alpha virt. eigenvalues --    3.00121   3.00648   3.02377   3.02877   3.04380
 Alpha virt. eigenvalues --    3.05243   3.08317   3.09582   3.11154   3.11756
 Alpha virt. eigenvalues --    3.13573   3.16629   3.18634   3.21586   3.23621
 Alpha virt. eigenvalues --    3.25468   3.26020   3.26951   3.28840   3.30676
 Alpha virt. eigenvalues --    3.31498   3.31790   3.35210   3.37444   3.38181
 Alpha virt. eigenvalues --    3.38971   3.40392   3.40977   3.41676   3.43542
 Alpha virt. eigenvalues --    3.45204   3.46979   3.52004   3.59588   3.62672
 Alpha virt. eigenvalues --    3.67549   3.70192   3.72566   3.75588   3.76465
 Alpha virt. eigenvalues --    3.80317   3.82292   3.83856   3.84241   3.85011
 Alpha virt. eigenvalues --    3.86504   3.87114   3.88211   3.88793   3.97077
 Alpha virt. eigenvalues --    4.00202   4.00822   4.01535   4.01819   4.05578
 Alpha virt. eigenvalues --    4.07856   4.09088   4.11924   4.20655   4.21998
 Alpha virt. eigenvalues --    4.22401   4.27084   4.30407   4.64260   4.68588
 Alpha virt. eigenvalues --    4.76430   4.80402   4.92765   4.98290   5.01006
 Alpha virt. eigenvalues --    5.18476   5.19304   5.20665   5.23589   5.39375
 Alpha virt. eigenvalues --    5.41687   5.44004   5.74761   5.89983   6.01949
 Alpha virt. eigenvalues --    6.45702   6.48999   6.50980   6.52061   6.52935
 Alpha virt. eigenvalues --    6.57861   6.62061   6.86708   6.90086   9.97083
 Alpha virt. eigenvalues --   23.46497  23.61526  23.63708  23.65127  23.76365
 Alpha virt. eigenvalues --   23.81825  23.83309  23.92379  23.94108  23.95648
 Alpha virt. eigenvalues --   23.98819  24.09800  24.12072  24.20357  25.93610
 Alpha virt. eigenvalues --   26.24389  26.73193  35.64600  35.74256  50.06606
 Alpha virt. eigenvalues --   50.15042  50.15544  66.88473  66.90791  66.95925
 Alpha virt. eigenvalues --  216.07291
          Condensed to atoms (all electrons):
               1          2          3          4          5          6
     1  C   30.707831  -0.177315  -1.328609   0.025496  -0.216077  -0.790962
     2  N   -0.177315   7.971993   0.485430  -0.127752  -0.468420  -0.380888
     3  C   -1.328609   0.485430   8.212596   0.608334   0.255291  -1.085499
     4  O    0.025496  -0.127752   0.608334   8.311511  -0.166970  -0.129019
     5  N   -0.216077  -0.468420   0.255291  -0.166970   7.800638   0.391416
     6  C   -0.790962  -0.380888  -1.085499  -0.129019   0.391416   8.530892
     7  C   -0.019582   0.035277   0.229289   0.026098  -0.050995  -1.007422
     8  C   -0.023413  -0.015619  -0.249470  -0.002046  -0.045597   0.390238
     9  C   -1.169503   0.095288  -0.148074   0.043725   0.006140   0.039218
    10  C  -10.179937   0.108541  -0.492590   0.029811   0.088635   0.059567
    11  C   -9.117125   0.066369   1.252950  -0.043238  -0.007176   0.068832
    12  C   -0.815445  -0.040665  -1.117234   0.013342  -0.007672  -0.091728
    13  C    3.744029  -0.268130  -0.807999  -0.018987  -0.174048  -0.186858
    14  H    0.007990   0.134930  -0.039015  -0.004034   0.037776   0.020918
    15  H   -0.031396   0.039876  -0.031176  -0.008289   0.160528   0.003607
    16  H    0.013872  -0.000192   0.001124  -0.001059  -0.053018   0.437175
    17  H    0.000528   0.012200   0.077613   0.001581  -0.058332   0.326529
    18  H    0.000434  -0.000997  -0.002529  -0.000352   0.010072  -0.067911
    19  H   -0.000520  -0.000250   0.009371  -0.000152   0.008309  -0.074067
    20  H   -0.000097  -0.000060  -0.003962  -0.000036   0.000228  -0.036968
    21  H    0.000142   0.000014   0.006623   0.000016  -0.001544   0.086838
    22  H   -0.000073  -0.000013  -0.001249  -0.000029   0.000519  -0.043766
    23  H   -0.092891  -0.014287   0.062559  -0.004870   0.000896   0.005897
    24  Cl  -0.086303  -0.012596  -0.062298  -0.000003   0.000114  -0.002193
    25  H    0.081405  -0.029262  -0.003460  -0.000034   0.000300  -0.000524
    26  C   -3.826563   0.035294   0.046689  -0.017072   0.009973   0.008675
    27  H    0.016808   0.000471   0.000850   0.000001   0.000004   0.000007
    28  F    0.077268   0.000243   0.000858   0.000014  -0.000001   0.000018
    29  F   -0.009401   0.000612  -0.001804   0.000239   0.000035  -0.000064
    30  F    0.067181   0.000600   0.006754  -0.000619   0.000003   0.000186
    31  O   -0.188930   0.022700  -0.010743  -0.001321  -0.039574   0.000528
    32  O    0.012595  -0.034523  -0.040761  -0.000415  -0.010447   0.046860
    33  C    0.129134  -0.003856  -0.002177  -0.000539   0.020421   0.010212
    34  C   -0.115821  -0.021056  -0.036618  -0.000785  -0.043809   0.038679
    35  C   -0.002021  -0.000787   0.002366   0.000029   0.006787  -0.011128
    36  H    0.000975   0.000166   0.000338   0.000000  -0.000019  -0.000519
    37  H    0.000475   0.000380  -0.000387   0.000000   0.000230   0.000019
    38  H    0.000105   0.000063  -0.000207  -0.000000   0.000030   0.000541
    39  H    0.000063   0.000008   0.000083   0.000000  -0.000041  -0.000012
    40  H   -0.000123  -0.000023  -0.000151  -0.000000   0.000045  -0.000130
               7          8          9         10         11         12
     1  C   -0.019582  -0.023413  -1.169503 -10.179937  -9.117125  -0.815445
     2  N    0.035277  -0.015619   0.095288   0.108541   0.066369  -0.040665
     3  C    0.229289  -0.249470  -0.148074  -0.492590   1.252950  -1.117234
     4  O    0.026098  -0.002046   0.043725   0.029811  -0.043238   0.013342
     5  N   -0.050995  -0.045597   0.006140   0.088635  -0.007176  -0.007672
     6  C   -1.007422   0.390238   0.039218   0.059567   0.068832  -0.091728
     7  C    6.633537  -0.459264  -0.013321  -0.006134   0.000821   0.000378
     8  C   -0.459264   6.622689   0.007339   0.002505   0.000462  -0.001086
     9  C   -0.013321   0.007339  19.249945   4.127954  -5.799948  -2.087392
    10  C   -0.006134   0.002505   4.127954  34.522069 -21.335756   4.152513
    11  C    0.000821   0.000462  -5.799948 -21.335756  65.012016 -21.159298
    12  C    0.000378  -0.001086  -2.087392   4.152513 -21.159298  24.918977
    13  C    0.016965  -0.007931  -5.636284  -3.602002  -7.617232   5.094079
    14  H   -0.004816   0.000183   0.053095   0.020679   0.012468  -0.016944
    15  H   -0.034440   0.006737  -0.006338  -0.003875   0.001091  -0.002059
    16  H   -0.037610  -0.017438  -0.016178  -0.001523   0.000048   0.000223
    17  H   -0.015919  -0.021954   0.010902   0.001083   0.000047   0.000006
    18  H    0.453295  -0.063382  -0.001571  -0.000120   0.000001   0.000061
    19  H    0.455884  -0.072013   0.001197   0.000097   0.000003  -0.000020
    20  H    0.026479   0.358143  -0.000038  -0.000001   0.000000   0.000000
    21  H   -0.159034   0.417474   0.000015   0.000000  -0.000000   0.000000
    22  H    0.043789   0.344984  -0.000033  -0.000005  -0.000000   0.000000
    23  H   -0.000146   0.000050   0.349153  -0.051009   0.041752  -0.028517
    24  Cl  -0.000044  -0.000008   0.088874  -0.097712  -0.354607  -0.852469
    25  H    0.000103   0.000004   0.012874   0.033904   0.059264  -0.129286
    26  C   -0.000115   0.000103  -2.992239  -1.277857   6.522633  -3.299352
    27  H   -0.000000   0.000000  -0.026810   0.157185  -0.085219   0.222719
    28  F   -0.000000   0.000000   0.245017  -0.034294  -0.368070   0.187120
    29  F   -0.000002  -0.000000  -0.098558   0.208476  -0.148124   0.034673
    30  F    0.000002  -0.000000  -0.032652  -0.107691  -0.049576   0.046080
    31  O   -0.004043   0.000261  -0.023499  -0.002349  -0.011726   0.034852
    32  O   -0.003708   0.011203  -0.006499  -0.000043  -0.000792  -0.001665
    33  C   -0.004062  -0.014954  -0.020253  -0.018488   0.008400  -0.042370
    34  C   -0.022571   0.006458  -0.046039  -0.011320   0.002224   0.041042
    35  C    0.006987  -0.004930  -0.001163  -0.000150   0.000762   0.003960
    36  H    0.000689   0.000044   0.000111  -0.000012  -0.000027  -0.000496
    37  H   -0.000224  -0.000027   0.000110   0.000051  -0.000065  -0.000028
    38  H   -0.000279  -0.000071   0.000009   0.000001  -0.000002  -0.000013
    39  H   -0.000070   0.000001   0.000006  -0.000000  -0.000000  -0.000016
    40  H    0.000661   0.000307  -0.000023  -0.000003  -0.000001  -0.000015
              13         14         15         16         17         18
     1  C    3.744029   0.007990  -0.031396   0.013872   0.000528   0.000434
     2  N   -0.268130   0.134930   0.039876  -0.000192   0.012200  -0.000997
     3  C   -0.807999  -0.039015  -0.031176   0.001124   0.077613  -0.002529
     4  O   -0.018987  -0.004034  -0.008289  -0.001059   0.001581  -0.000352
     5  N   -0.174048   0.037776   0.160528  -0.053018  -0.058332   0.010072
     6  C   -0.186858   0.020918   0.003607   0.437175   0.326529  -0.067911
     7  C    0.016965  -0.004816  -0.034440  -0.037610  -0.015919   0.453295
     8  C   -0.007931   0.000183   0.006737  -0.017438  -0.021954  -0.063382
     9  C   -5.636284   0.053095  -0.006338  -0.016178   0.010902  -0.001571
    10  C   -3.602002   0.020679  -0.003875  -0.001523   0.001083  -0.000120
    11  C   -7.617232   0.012468   0.001091   0.000048   0.000047   0.000001
    12  C    5.094079  -0.016944  -0.002059   0.000223   0.000006   0.000061
    13  C   16.131366  -0.091306   0.011832   0.002958  -0.001989   0.001035
    14  H   -0.091306   0.286251   0.018574   0.000135  -0.000208   0.000036
    15  H    0.011832   0.018574   0.305987   0.000750   0.002592   0.001049
    16  H    0.002958   0.000135   0.000750   0.445136  -0.048175   0.005828
    17  H   -0.001989  -0.000208   0.002592  -0.048175   0.444076  -0.008740
    18  H    0.001035   0.000036   0.001049   0.005828  -0.008740   0.443304
    19  H   -0.000408   0.000059   0.001618  -0.008600   0.005775  -0.040079
    20  H    0.000015   0.000000  -0.000034  -0.000692   0.002970  -0.007577
    21  H   -0.000008   0.000000  -0.000036  -0.000019  -0.000046  -0.004002
    22  H    0.000021  -0.000000  -0.000031   0.002976  -0.000710   0.006517
    23  H   -0.016302  -0.000432   0.000034   0.000001  -0.000014  -0.000000
    24  Cl   0.489830   0.001110  -0.000007   0.000001   0.000001   0.000000
    25  H    0.271145   0.011053  -0.000090  -0.000000   0.000001  -0.000000
    26  C   -1.220110   0.000904  -0.000240  -0.000082   0.000033  -0.000002
    27  H    0.023632  -0.000005   0.000000  -0.000000  -0.000000   0.000000
    28  F    0.017765   0.000001  -0.000000  -0.000000   0.000000  -0.000000
    29  F    0.007884   0.000002  -0.000000  -0.000000   0.000000  -0.000000
    30  F    0.013041  -0.000001   0.000000  -0.000000  -0.000000   0.000000
    31  O    0.221399   0.047162   0.018843  -0.000038  -0.000016  -0.000144
    32  O   -0.004444   0.013136   0.052581  -0.000164  -0.000277  -0.002415
    33  C   -0.093211  -0.004263  -0.004648   0.000308  -0.000391   0.002615
    34  C    0.122347   0.015736   0.026337  -0.000027  -0.000309  -0.000566
    35  C    0.001927  -0.000209  -0.003439   0.000014   0.000062   0.000957
    36  H   -0.000867  -0.000016   0.000011   0.000000   0.000000   0.000001
    37  H    0.000294  -0.000344  -0.000080   0.000000   0.000000   0.000001
    38  H   -0.000049  -0.000019  -0.000159  -0.000000  -0.000000  -0.000029
    39  H   -0.000071  -0.000001   0.000029  -0.000000  -0.000000   0.000000
    40  H    0.000062   0.000008  -0.000107   0.000000  -0.000000  -0.000011
              19         20         21         22         23         24
     1  C   -0.000520  -0.000097   0.000142  -0.000073  -0.092891  -0.086303
     2  N   -0.000250  -0.000060   0.000014  -0.000013  -0.014287  -0.012596
     3  C    0.009371  -0.003962   0.006623  -0.001249   0.062559  -0.062298
     4  O   -0.000152  -0.000036   0.000016  -0.000029  -0.004870  -0.000003
     5  N    0.008309   0.000228  -0.001544   0.000519   0.000896   0.000114
     6  C   -0.074067  -0.036968   0.086838  -0.043766   0.005897  -0.002193
     7  C    0.455884   0.026479  -0.159034   0.043789  -0.000146  -0.000044
     8  C   -0.072013   0.358143   0.417474   0.344984   0.000050  -0.000008
     9  C    0.001197  -0.000038   0.000015  -0.000033   0.349153   0.088874
    10  C    0.000097  -0.000001   0.000000  -0.000005  -0.051009  -0.097712
    11  C    0.000003   0.000000  -0.000000  -0.000000   0.041752  -0.354607
    12  C   -0.000020   0.000000   0.000000   0.000000  -0.028517  -0.852469
    13  C   -0.000408   0.000015  -0.000008   0.000021  -0.016302   0.489830
    14  H    0.000059   0.000000   0.000000  -0.000000  -0.000432   0.001110
    15  H    0.001618  -0.000034  -0.000036  -0.000031   0.000034  -0.000007
    16  H   -0.008600  -0.000692  -0.000019   0.002976   0.000001   0.000001
    17  H    0.005775   0.002970  -0.000046  -0.000710  -0.000014   0.000001
    18  H   -0.040079  -0.007577  -0.004002   0.006517  -0.000000   0.000000
    19  H    0.446130   0.006506  -0.003927  -0.007942  -0.000000   0.000000
    20  H    0.006506   0.447141  -0.024211  -0.036708  -0.000000  -0.000000
    21  H   -0.003927  -0.024211   0.426059  -0.024126   0.000000   0.000000
    22  H   -0.007942  -0.036708  -0.024126   0.446905  -0.000000  -0.000000
    23  H   -0.000000  -0.000000   0.000000  -0.000000   0.348762   0.000256
    24  Cl   0.000000  -0.000000   0.000000  -0.000000   0.000256  17.620685
    25  H   -0.000000  -0.000000   0.000000  -0.000000  -0.000016  -0.016719
    26  C    0.000004   0.000000   0.000000  -0.000000   0.063824  -0.075586
    27  H    0.000000  -0.000000   0.000000   0.000000  -0.000154  -0.014690
    28  F    0.000000  -0.000000   0.000000   0.000000   0.000015   0.000370
    29  F    0.000000   0.000000   0.000000  -0.000000  -0.002100  -0.000674
    30  F    0.000000   0.000000   0.000000   0.000000   0.002942  -0.000367
    31  O    0.000171  -0.000001  -0.000001  -0.000000   0.000003   0.000232
    32  O   -0.001672  -0.000009  -0.000060   0.000028   0.000004   0.000016
    33  C    0.002495   0.000130  -0.000178   0.000079   0.000008  -0.001912
    34  C   -0.000992  -0.000024   0.000142  -0.000032   0.000019   0.000944
    35  C    0.000954   0.000026  -0.000068   0.000018  -0.000000   0.000075
    36  H   -0.000000   0.000000  -0.000000   0.000000  -0.000000   0.000000
    37  H    0.000002   0.000000  -0.000000   0.000000   0.000000   0.000012
    38  H   -0.000017  -0.000000   0.000001  -0.000000   0.000000   0.000000
    39  H    0.000000  -0.000000  -0.000000  -0.000000  -0.000000   0.000000
    40  H   -0.000040  -0.000000   0.000000  -0.000000  -0.000000   0.000000
              25         26         27         28         29         30
     1  C    0.081405  -3.826563   0.016808   0.077268  -0.009401   0.067181
     2  N   -0.029262   0.035294   0.000471   0.000243   0.000612   0.000600
     3  C   -0.003460   0.046689   0.000850   0.000858  -0.001804   0.006754
     4  O   -0.000034  -0.017072   0.000001   0.000014   0.000239  -0.000619
     5  N    0.000300   0.009973   0.000004  -0.000001   0.000035   0.000003
     6  C   -0.000524   0.008675   0.000007   0.000018  -0.000064   0.000186
     7  C    0.000103  -0.000115  -0.000000  -0.000000  -0.000002   0.000002
     8  C    0.000004   0.000103   0.000000   0.000000  -0.000000  -0.000000
     9  C    0.012874  -2.992239  -0.026810   0.245017  -0.098558  -0.032652
    10  C    0.033904  -1.277857   0.157185  -0.034294   0.208476  -0.107691
    11  C    0.059264   6.522633  -0.085219  -0.368070  -0.148124  -0.049576
    12  C   -0.129286  -3.299352   0.222719   0.187120   0.034673   0.046080
    13  C    0.271145  -1.220110   0.023632   0.017765   0.007884   0.013041
    14  H    0.011053   0.000904  -0.000005   0.000001   0.000002  -0.000001
    15  H   -0.000090  -0.000240   0.000000  -0.000000  -0.000000   0.000000
    16  H   -0.000000  -0.000082  -0.000000  -0.000000  -0.000000  -0.000000
    17  H    0.000001   0.000033  -0.000000   0.000000   0.000000  -0.000000
    18  H   -0.000000  -0.000002   0.000000  -0.000000  -0.000000   0.000000
    19  H   -0.000000   0.000004   0.000000   0.000000   0.000000   0.000000
    20  H   -0.000000   0.000000  -0.000000  -0.000000   0.000000   0.000000
    21  H    0.000000   0.000000   0.000000   0.000000   0.000000   0.000000
    22  H   -0.000000  -0.000000   0.000000   0.000000  -0.000000   0.000000
    23  H   -0.000016   0.063824  -0.000154   0.000015  -0.002100   0.002942
    24  Cl  -0.016719  -0.075586  -0.014690   0.000370  -0.000674  -0.000367
    25  H    0.344540   0.005643  -0.000274  -0.000004   0.000000  -0.000001
    26  C    0.005643  10.973709   0.009810   0.023047   0.190584   0.222477
    27  H   -0.000274   0.009810   0.352026   0.008642   0.000154   0.000458
    28  F   -0.000004   0.023047   0.008642   9.039957  -0.039800  -0.018901
    29  F    0.000000   0.190584   0.000154  -0.039800   8.979711  -0.049097
    30  F   -0.000001   0.222477   0.000458  -0.018901  -0.049097   8.997639
    31  O    0.005122  -0.000475  -0.000000   0.000000  -0.000000  -0.000001
    32  O    0.000497  -0.000040   0.000000  -0.000000  -0.000000  -0.000000
    33  C    0.009356  -0.002196  -0.000011   0.000000   0.000001   0.000002
    34  C   -0.004718  -0.000335  -0.000000   0.000000   0.000000   0.000000
    35  C    0.000079  -0.000018  -0.000000  -0.000000  -0.000000  -0.000000
    36  H    0.000021  -0.000001   0.000000   0.000000  -0.000000   0.000000
    37  H   -0.000049   0.000002   0.000000   0.000000   0.000000  -0.000000
    38  H   -0.000000   0.000000   0.000000  -0.000000   0.000000   0.000000
    39  H   -0.000000  -0.000000   0.000000  -0.000000  -0.000000  -0.000000
    40  H    0.000000  -0.000000   0.000000   0.000000  -0.000000   0.000000
              31         32         33         34         35         36
     1  C   -0.188930   0.012595   0.129134  -0.115821  -0.002021   0.000975
     2  N    0.022700  -0.034523  -0.003856  -0.021056  -0.000787   0.000166
     3  C   -0.010743  -0.040761  -0.002177  -0.036618   0.002366   0.000338
     4  O   -0.001321  -0.000415  -0.000539  -0.000785   0.000029   0.000000
     5  N   -0.039574  -0.010447   0.020421  -0.043809   0.006787  -0.000019
     6  C    0.000528   0.046860   0.010212   0.038679  -0.011128  -0.000519
     7  C   -0.004043  -0.003708  -0.004062  -0.022571   0.006987   0.000689
     8  C    0.000261   0.011203  -0.014954   0.006458  -0.004930   0.000044
     9  C   -0.023499  -0.006499  -0.020253  -0.046039  -0.001163   0.000111
    10  C   -0.002349  -0.000043  -0.018488  -0.011320  -0.000150  -0.000012
    11  C   -0.011726  -0.000792   0.008400   0.002224   0.000762  -0.000027
    12  C    0.034852  -0.001665  -0.042370   0.041042   0.003960  -0.000496
    13  C    0.221399  -0.004444  -0.093211   0.122347   0.001927  -0.000867
    14  H    0.047162   0.013136  -0.004263   0.015736  -0.000209  -0.000016
    15  H    0.018843   0.052581  -0.004648   0.026337  -0.003439   0.000011
    16  H   -0.000038  -0.000164   0.000308  -0.000027   0.000014   0.000000
    17  H   -0.000016  -0.000277  -0.000391  -0.000309   0.000062   0.000000
    18  H   -0.000144  -0.002415   0.002615  -0.000566   0.000957   0.000001
    19  H    0.000171  -0.001672   0.002495  -0.000992   0.000954  -0.000000
    20  H   -0.000001  -0.000009   0.000130  -0.000024   0.000026   0.000000
    21  H   -0.000001  -0.000060  -0.000178   0.000142  -0.000068  -0.000000
    22  H   -0.000000   0.000028   0.000079  -0.000032   0.000018   0.000000
    23  H    0.000003   0.000004   0.000008   0.000019  -0.000000  -0.000000
    24  Cl   0.000232   0.000016  -0.001912   0.000944   0.000075   0.000000
    25  H    0.005122   0.000497   0.009356  -0.004718   0.000079   0.000021
    26  C   -0.000475  -0.000040  -0.002196  -0.000335  -0.000018  -0.000001
    27  H   -0.000000   0.000000  -0.000011  -0.000000  -0.000000   0.000000
    28  F    0.000000  -0.000000   0.000000   0.000000  -0.000000   0.000000
    29  F   -0.000000  -0.000000   0.000001   0.000000  -0.000000  -0.000000
    30  F   -0.000001  -0.000000   0.000002   0.000000  -0.000000   0.000000
    31  O    8.614614  -0.143760   0.252882  -0.174752   0.018371  -0.005542
    32  O   -0.143760   8.507613   0.330813  -0.145269  -0.005235   0.003467
    33  C    0.252882   0.330813   5.890519  -0.881185   0.269029  -0.021563
    34  C   -0.174752  -0.145269  -0.881185   7.236960  -0.373913   0.405592
    35  C    0.018371  -0.005235   0.269029  -0.373913   6.036312  -0.048545
    36  H   -0.005542   0.003467  -0.021563   0.405592  -0.048545   0.417475
    37  H   -0.004766   0.000927  -0.026858   0.399986  -0.039215  -0.031860
    38  H   -0.000585  -0.003988  -0.016026  -0.017718   0.382475  -0.006992
    39  H   -0.000707   0.002575   0.058442  -0.117089   0.408480  -0.002631
    40  H   -0.000266  -0.002496  -0.023526  -0.011172   0.382933   0.005415
              37         38         39         40
     1  C    0.000475   0.000105   0.000063  -0.000123
     2  N    0.000380   0.000063   0.000008  -0.000023
     3  C   -0.000387  -0.000207   0.000083  -0.000151
     4  O    0.000000  -0.000000   0.000000  -0.000000
     5  N    0.000230   0.000030  -0.000041   0.000045
     6  C    0.000019   0.000541  -0.000012  -0.000130
     7  C   -0.000224  -0.000279  -0.000070   0.000661
     8  C   -0.000027  -0.000071   0.000001   0.000307
     9  C    0.000110   0.000009   0.000006  -0.000023
    10  C    0.000051   0.000001  -0.000000  -0.000003
    11  C   -0.000065  -0.000002  -0.000000  -0.000001
    12  C   -0.000028  -0.000013  -0.000016  -0.000015
    13  C    0.000294  -0.000049  -0.000071   0.000062
    14  H   -0.000344  -0.000019  -0.000001   0.000008
    15  H   -0.000080  -0.000159   0.000029  -0.000107
    16  H    0.000000  -0.000000  -0.000000   0.000000
    17  H    0.000000  -0.000000  -0.000000  -0.000000
    18  H    0.000001  -0.000029   0.000000  -0.000011
    19  H    0.000002  -0.000017   0.000000  -0.000040
    20  H    0.000000  -0.000000  -0.000000  -0.000000
    21  H   -0.000000   0.000001  -0.000000   0.000000
    22  H    0.000000  -0.000000  -0.000000  -0.000000
    23  H    0.000000   0.000000  -0.000000  -0.000000
    24  Cl   0.000012   0.000000   0.000000   0.000000
    25  H   -0.000049  -0.000000  -0.000000   0.000000
    26  C    0.000002   0.000000  -0.000000  -0.000000
    27  H    0.000000   0.000000   0.000000   0.000000
    28  F    0.000000  -0.000000  -0.000000   0.000000
    29  F    0.000000   0.000000  -0.000000  -0.000000
[...]
 ,-0.00000829,0.00000149,0.00000341,0.00000548,-0.00000158,-0.00000183,
 0.00000133,-0.00000371,0.00000004,0.00000032,-0.00000195,-0.00000228,-
 0.00000103,-0.00000072,0.00000201,-0.00000016,0.00000301,0.00000264,0.
 00000078,-0.00001213,0.00000658,-0.00000068,-0.00000010,0.00000477,-0.
 00000181,0.00000018,0.00000019,-0.00000012,0.00000151,-0.00000231,-0.0
 0000017,0.00000002,-0.00000115,-0.00000055,-0.00000053,-0.00000174,0.0
 0000001,0.00013247,-0.00002836,0.00369250,-0.00330932,-0.00587803,0.00
 383979,-0.01079874,-0.00579899,-0.03373925,-0.02520288,-0.06406945,-0.
 06326903,0.00771744,0.00412956,0.01778511,0.02594201,0.06999011,-0.000
 01632,-0.00000098,-0.00000911,0.00001333,-0.00002328,-0.00000898,-0.00
 003790,0.00001631,0.00000104,0.00000707,-0.00002170,-0.00000007,0.0000
 0481,-0.00005224,0.00001339,0.00001149,-0.00000323,-0.00000109,-0.0000
 0091,-0.00000316,-0.00000378,0.00000090,0.00000062,0.00000205,0.000007
 41,-0.00000221,0.00000535,-0.00000560,0.00000284,0.00000226,0.00000371
 ,0.00000356,0.00000271,-0.00000304,-0.00000331,-0.00000818,0.00000476,
 0.00000298,0.00000374,-0.00000450,0.00000817,0.00001989,0.00001357,0.0
 0007092,-0.00002860,-0.00000265,-0.00000271,-0.00000068,-0.00000250,-0
 .00000231,0.00000044,-0.00000048,0.00000060,-0.00000243,-0.00000065,0.
 00000064,0.00000205,-0.00000064,-0.00000072,0.00000034,-0.00000065,0.0
 0000015,-0.00000028,-0.00000088,-0.00000049,-0.00000057,-0.00000040,0.
 00000091,0.,0.00000468,0.00000101,0.00000164,-0.00000046,-0.00000399,0
 .00000099,-0.00000095,-0.00000171,-0.00000052,-0.00000117,0.00000054,0
 .00000044,0.00000021,-0.00000056,-0.00000100,0.00000023,-0.00000022,0.
 00000137,0.00000073,-0.00000007,-0.00000155,0.00054702,0.00004681,0.00
 111244,0.00062085,-0.00050674,-0.00049954,-0.00032986,0.00186437,0.000
 33530,-0.09407515,-0.06080205,-0.25395669,-0.00118861,-0.00018760,-0.0
 0303676,0.10384052,0.06470731,0.27397455,0.00001082,0.00000435,0.00000
 813,0.00001718,0.00003436,0.00001331,-0.00009947,0.00001306,0.00000951
 ,0.00002309,-0.00002149,-0.00000571,0.00001989,-0.00013881,0.00001497,
 0.00002119,-0.00000325,0.00000274,-0.00000140,0.00000198,-0.00000282,0
 .00000090,0.00000080,0.00000001,-0.00000384,-0.00000065,-0.00000490,0.
 00000080,0.00000088,0.00000016,-0.00000121,-0.00000044,0.00000085,0.00
 000396,0.00000404,-0.00000327,-0.00000133,-0.00000317,0.00000126,0.000
 00273,-0.00013041,-0.00003838,0.00000312,0.00018587,-0.00003048,-0.000
 00325,-0.00000324,-0.00000066,-0.00000520,-0.00000421,0.00000129,0.000
 00087,0.00000274,-0.00000239,-0.00000127,0.00000030,0.00000381,-0.0000
 0059,-0.00000094,0.00000059,-0.00000039,-0.00000004,0.00000017,-0.0000
 0065,-0.00000113,-0.00000035,0.00000025,0.00000022,0.00000069,0.000000
 43,-0.00000324,0.00000035,0.00000740,-0.00000422,0.00000314,-0.0000002
 2,-0.00000123,0.00000101,0.00000012,0.00000005,0.00000031,-0.00000035,
 0.00000042,-0.00000033,0.,0.00000065,0.00000003,0.00000038,0.00000045,
 0.00000002,0.00050963,0.00227016,-0.00131416,0.00036350,-0.00237903,-0
 .00061280,-0.00661828,-0.00198036,0.00378807,-0.17286200,-0.03757122,0
 .12985054,-0.01876794,-0.00506069,0.01863021,0.00918210,0.00351647,-0.
 00851020,0.18979606,-0.00006492,0.00002528,0.00000008,0.00004633,-0.00
 006855,0.00004984,-0.00014435,0.00008076,0.00002554,0.00002462,-0.0001
 1547,-0.00001648,0.00005337,-0.00034027,0.00007672,0.00006764,0.000004
 01,0.00000462,-0.00000485,0.00000281,-0.00000842,0.00000165,0.00000257
 ,0.00000102,0.00001488,-0.00001457,-0.00000493,-0.00000615,-0.00000185
 ,-0.00000114,0.00001191,0.00000057,-0.00000203,-0.00001079,-0.00000722
 ,0.00000008,0.00001860,0.00000948,0.00000188,0.00001517,0.00019951,-0.
 00008052,0.00003879,0.00057349,-0.00015441,-0.00001211,-0.00000865,-0.
 00000237,-0.00001526,-0.00001155,0.00000472,0.00000161,0.00000246,0.00
 000044,-0.00000126,0.00000002,0.00000744,-0.00000155,-0.00000211,0.000
 00148,-0.00000354,-0.00000002,0.00000011,-0.00000108,-0.00000122,-0.00
 000074,-0.00000018,0.00000183,0.00000104,0.00000398,0.00000411,0.00000
 031,-0.00001630,0.00000085,0.00000201,0.00000030,0.00000503,0.00000376
 ,0.00000060,-0.00000052,0.00000035,0.00000162,-0.00000193,-0.00000027,
 -0.00000020,-0.00000094,-0.00000296,-0.00000038,-0.00000147,0.00000013
 ,0.00114591,-0.00002051,-0.00332957,-0.00199120,-0.00625731,-0.0043785
 2,-0.02214945,-0.00443003,0.02772968,-0.03828018,-0.05842319,0.0427725
 7,0.01357663,0.00321158,-0.01391502,0.00679500,0.00168743,-0.00626123,
 0.03902231,0.06428172,0.00002844,-0.00000387,-0.00000516,-0.00001231,0
 .00005467,0.00001053,0.00000872,-0.00001757,0.00000289,0.00000070,0.00
 002582,-0.00000342,-0.00000038,0.00003118,0.00001096,-0.00001102,-0.00
 000079,0.00000122,0.00000189,0.00000179,-0.00000453,-0.00000073,0.0000
 0055,0.00000153,-0.00000651,0.00000658,0.00000306,0.00000224,0.0000017
 1,0.00000017,-0.00000334,0.00000015,0.00000170,0.00000343,0.00000077,-
 0.00000162,-0.00000614,-0.00000437,0.00000076,0.00000386,-0.00008662,-
 0.00002007,-0.00000770,-0.00005364,-0.00002366,0.00000224,0.00000208,0
 .00000100,0.00000242,0.00000218,-0.00000117,0.00000057,-0.00000078,0.0
 0000123,-0.00000030,-0.00000074,-0.00000124,0.00000053,0.00000024,-0.0
 0000076,0.00000058,-0.00000005,0.00000003,0.00000066,0.00000031,0.0000
 0040,0.00000014,-0.00000048,-0.00000023,-0.00000313,-0.00000193,-0.000
 00064,0.00000446,0.00000300,-0.00000126,0.00000130,-0.00000173,-0.0000
 0033,-0.00000004,0.00000009,-0.00000004,-0.00000118,0.00000078,-0.0000
 0021,-0.00000035,0.00000015,0.00000021,-0.00000019,0.00000027,-0.00000
 024,-0.00089107,0.00084115,0.00061955,-0.00018689,-0.00004242,-0.00072
 581,-0.00112903,-0.00271670,0.00049525,0.12903927,0.04082902,-0.172950
 28,-0.00571282,-0.00215360,0.00551433,0.01962967,0.00697681,-0.0200967
 6,-0.14009063,-0.04349858,0.18530513,0.00001863,0.00000292,0.00001001,
 -0.00000309,0.00005429,0.00000062,-0.00002032,-0.00000863,0.00000411,0
 .00000565,0.00001515,-0.00000165,0.00000167,0.00001572,-0.00000513,-0.
 00000624,-0.00000200,0.00000047,0.00000159,0.00000372,0.00000248,-0.00
 000093,0.00000006,-0.00000027,-0.00000757,0.00000141,-0.00000495,0.000
 00116,0.00000035,-0.00000033,0.00000257,0.00000151,-0.00000317,0.00000
 048,-0.00000229,0.00000516,-0.00000442,-0.00000439,-0.00000670,0.00000
 287,-0.00008441,-0.00001395,-0.00000599,-0.00003452,0.00000774,0.00000
 176,0.00000060,0.00000007,0.00000181,0.00000093,0.00000007,-0.00000003
 ,0.00000222,0.00000031,0.00000112,0.00000160,-0.00000010,0.00000012,0.
 00000027,-0.00000030,0.00000135,-0.00000004,0.00000018,0.00000001,-0.0
 0000055,0.00000005,0.00000085,0.00000038,0.00000024,-0.00000156,0.0000
 0073,-0.00000087,0.00000335,0.00000007,0.00000196,0.00000027,-0.000003
 41,0.00000142,0.00000035,0.,-0.00000002,-0.00000101,0.00000145,0.00000
 040,-0.00000015,0.00000138,-0.00000021,0.00000032,0.00000154,0.0000002
 2,0.00018912,0.00072071,-0.00019182,0.00137584,0.00007343,-0.00015607,
 -0.00062174,-0.00221535,-0.00001084,-0.01956308,-0.00502483,0.01994597
 ,-0.17484654,-0.03387513,0.13061366,0.00103947,-0.00072182,-0.00024325
 ,-0.00381222,0.00359155,-0.00159215,0.19079185,0.00000480,-0.00000048,
 -0.00000539,-0.00000332,0.00000363,0.00000126,0.00001355,-0.00000744,-
 0.00000153,-0.00000181,0.00000810,0.00000091,-0.00000579,0.00002471,-0
 .00000169,-0.00000176,-0.00000012,-0.00000096,-0.00000115,-0.00000460,
 -0.00000691,-0.00000086,0.00000194,0.00000184,-0.00000129,-0.00000067,
 0.00000331,0.00000072,-0.00000014,-0.00000081,-0.00000138,-0.00000068,
 0.00000012,0.00000097,0.00000191,0.00000045,-0.00000138,-0.00000044,0.
 00000099,-0.00000387,-0.00000544,0.00000162,-0.00000107,-0.00004012,0.
 00001667,-0.00000013,0.00000160,0.00000137,-0.00000016,0.00000030,-0.0
 0000089,0.00000194,0.00000378,0.00000450,-0.00000049,0.00000054,-0.000
 00101,0.00000046,0.00000045,-0.00000035,0.00000019,-0.00000021,0.00000
 019,0.00000089,0.00000079,0.00000046,-0.00000013,-0.00000023,-0.000000
 18,-0.00000044,-0.00000065,-0.00000018,0.00000042,-0.00000035,-0.00000
 032,0.00000025,0.00000035,-0.00000059,-0.00000001,-0.00000001,-0.00000
 014,0.,0.00000004,0.00000024,0.00000004,0.00000019,0.00000007,0.000000
 09,-0.00000010,0.00000022,-0.00003307,0.00001622,0.00030320,0.00048197
 ,-0.00039356,-0.00019132,-0.00037702,0.00036287,-0.00084710,0.01259627
 ,0.00310547,-0.01387793,-0.03536809,-0.05685311,0.03599380,-0.00090352
 ,0.00064138,0.00008491,0.00307998,-0.00159716,0.00065231,0.03530032,0.
 05841016,-0.00000216,-0.00000464,-0.00000421,-0.00000784,-0.00001701,0
 .00000024,0.00002337,-0.00000579,-0.00000115,-0.00000543,0.00000411,-0
 .00000014,-0.00000447,0.00001685,0.00000177,0.00000085,0.00000083,-0.0
 0000019,-0.00000180,-0.00000494,0.00000071,0.00000041,-0.00000017,0.00
 000012,0.00000246,0.00000203,0.00000261,0.00000009,0.00000075,0.000001
 06,-0.00000281,-0.00000040,0.00000274,0.00000118,0.00000111,-0.0000059
 2,0.00000068,0.00000132,0.00000478,0.00000280,0.00002075,-0.00000050,-
 0.00000597,-0.00002885,-0.00000751,-0.00000065,0.00000114,0.00000017,-
 0.00000023,0.00000151,-0.00000088,-0.00000025,-0.00000429,0.00000292,0
 .00000120,0.00000014,-0.00000497,0.00000037,0.00000083,-0.00000050,-0.
 00000229,0.00000044,0.00000014,0.00000011,0.00000091,0.00000029,-0.000
 00055,-0.00000041,-0.00000018,0.00000033,-0.00000107,0.00000069,0.0000
 0004,-0.00000066,0.00000006,0.00000003,0.00000020,-0.00000061,-0.00000
 024,0.00000006,0.00000019,0.00000012,-0.00000045,-0.00000058,-0.000000
 07,-0.00000051,0.00000023,-0.00000002,-0.00000043,-0.00000059,-0.00014
 210,-0.00032808,-0.00014264,-0.00076649,0.00051374,0.00009824,0.001072
 23,0.00048375,0.00033042,-0.00556143,-0.00211199,0.00558035,0.13176456
 ,0.03439412,-0.18395345,0.00046315,-0.00062315,0.00070286,-0.00134961,
 0.00100197,0.00109490,-0.14293707,-0.03972019,0.19443843,0.00008294,-0
 .00000425,-0.00000264,0.00000059,0.00023672,0.00002751,-0.00008248,-0.
 00003143,0.00001225,0.00002791,0.00005985,-0.00000521,0.00000911,0.000
 03492,-0.00000369,-0.00001812,-0.00000547,0.00000024,0.00000225,0.0000
 0515,-0.00000010,0.00000078,-0.00000141,0.00000023,-0.00002138,0.00001
 258,0.00000180,0.00000349,0.00000520,0.00000216,-0.00000711,0.00000482
 ,0.00000016,0.00001148,0.00000339,-0.00000033,-0.00001767,-0.00001802,
 -0.00000061,-0.00001560,-0.00038065,-0.00005493,-0.00000898,-0.0000746
 8,0.00000068,0.00000420,0.00000195,-0.00000026,0.00000428,0.00000203,-
 0.00000008,0.00000035,0.,-0.00000092,0.00000034,0.00000011,0.00000080,
 0.00000007,-0.00000017,0.00000002,0.00000167,0.00000030,-0.00000012,0.
 00000017,-0.00000017,-0.00000012,0.00000085,-0.00000023,-0.00000028,-0
 .00000499,-0.00000305,-0.00000054,0.00001438,0.00000207,0.00000110,0.0
 0000030,-0.00001024,-0.00000204,-0.00000042,0.00000081,-0.00000006,-0.
 00000304,0.00000339,0.,0.,0.00000273,0.00000271,0.00000086,0.00000325,
 -0.00000055,-0.00103059,0.00367978,-0.00023936,0.00146363,-0.00012906,
 0.00025437,-0.00552684,-0.00169151,-0.00117762,0.00670303,0.03053460,0
 .00055914,-0.05928433,-0.05670369,-0.00022288,0.00118139,-0.00093059,-
 0.00000649,0.00118693,-0.00085186,0.00048439,-0.00446637,-0.02113474,-
 0.00225935,0.06330462,-0.00008635,0.00000601,0.00000224,0.00002030,-0.
 00019687,-0.00002249,0.00002734,0.00005892,-0.00000849,-0.00001548,-0.
 00008434,0.00000483,-0.00000478,-0.00010792,0.00000568,0.00002967,0.00
 000388,-0.00000180,-0.00000279,-0.00000185,0.00000021,0.00000189,0.000
 00120,0.00000051,0.00001904,-0.00001808,-0.00000281,-0.00000636,-0.000
 00648,-0.00000063,0.00001478,0.00000094,-0.00000248,-0.00001614,-0.000
 00557,0.00000022,0.00001937,0.00001705,0.00000103,-0.00000122,0.000365
 15,0.00004890,0.00003314,0.00021169,-0.00001059,-0.00000671,-0.0000049
 6,-0.00000131,-0.00000625,-0.00000475,0.00000225,-0.00000004,0.0000015
 9,-0.00000313,0.00000094,0.00000127,0.00000309,-0.00000098,-0.00000079
 ,0.00000084,-0.00000221,0.00000082,0.00000015,-0.00000130,-0.00000131,
 -0.00000121,-0.00000004,0.00000159,0.00000031,0.00000698,0.00000358,0.
 00000106,-0.00001366,0.00000007,-0.00000108,-0.00000144,0.00001287,0.0
 0000504,-0.00000018,-0.00000031,-0.00000010,0.00000367,-0.00000425,-0.
 00000039,0.00000015,-0.00000310,-0.00000375,-0.00000043,-0.00000363,0.
 00000016,0.00128385,-0.00289953,0.00025780,0.00004952,-0.00113319,0.00
 005942,0.00228241,0.00303094,0.00040033,-0.00490566,-0.01566760,-0.000
 46676,-0.05489160,-0.30741742,-0.00236588,-0.00015472,0.00059288,0.000
 37654,-0.00001042,0.00057765,-0.00043925,-0.00110392,-0.00414331,0.000
 24563,0.05873021,0.33254071,0.00001699,0.00000065,0.00000212,0.0000006
 7,0.00004973,0.00000540,-0.00001621,-0.00000734,0.00000126,0.00000561,
 0.00001350,-0.00000096,0.00000246,0.00000954,0.00000565,-0.00000387,-0
 .00000106,0.00000004,0.00000034,0.00000054,-0.00000289,0.00000041,-0.0
 0000046,0.00000081,-0.00000509,0.00000227,-0.00000026,0.00000132,0.000
 00105,-0.00000003,-0.00000099,0.00000045,-0.00000119,0.00000174,-0.000
 00001,0.00000316,-0.00000352,-0.00000371,-0.00000352,-0.00000353,-0.00
 008254,-0.00001003,-0.00000422,-0.00001844,-0.00000558,0.00000051,0.00
 000087,0.00000027,0.00000142,0.00000030,-0.00000009,0.00000026,-0.0000
 0017,0.00000100,0.00000035,-0.00000068,0.00000005,-0.00000003,-0.00000
 020,0.00000002,0.00000008,0.00000010,-0.00000014,0.00000021,0.00000013
 ,0.00000013,0.00000017,-0.00000009,-0.00000010,-0.00000130,-0.00000045
 ,-0.00000056,0.00000291,0.00000045,0.00000038,0.00000002,-0.00000210,-
 0.00000028,0.00000022,0.,-0.00000006,-0.00000052,0.00000072,0.00000020
 ,-0.00000005,0.00000070,0.00000034,0.00000019,0.00000070,0.00000017,-0
 .00025087,0.00076869,0.00004247,0.00023776,0.00001224,0.00022569,-0.00
 123544,-0.00036044,0.00064748,0.00164036,0.00608263,-0.00117453,-0.000
 29105,-0.00267580,-0.04879141,0.00051588,-0.00000696,0.00009873,-0.000
 08736,-0.00035444,0.00011183,0.00343905,0.02320780,0.00085914,0.001352
 63,0.00223336,0.04647647,0.00001591,-0.00000080,-0.00000739,-0.0000047
 1,0.00004899,0.00000634,-0.00000855,-0.00000963,0.00000007,0.00000403,
 0.00001654,-0.00000025,0.00000141,0.00002143,0.00000556,-0.00000661,-0
 .00000269,-0.00000083,0.00000195,0.00000127,0.00000287,-0.00000121,-0.
 00000006,0.00000012,-0.00000269,0.00000419,0.00000440,-0.00000094,0.00
 000290,0.00000189,0.00000092,0.00000259,0.00000127,-0.00000038,-0.0000
 0347,-0.00000309,-0.00000369,-0.00000403,0.00000292,0.00000118,-0.0000
 8189,-0.00000873,-0.00000732,-0.00004217,-0.00000199,0.00000153,0.0000
 0162,0.00000018,0.00000101,0.00000115,-0.00000075,0.00000097,0.0000007
 8,-0.00000025,0.00000083,0.00000144,-0.00000162,0.00000011,-0.00000021
 ,-0.00000079,0.00000014,0.00000034,0.00000010,0.00000035,-0.00000012,0
 .00000017,0.00000004,0.00000025,-0.00000050,-0.00000012,-0.00000011,0.
 00000052,0.00000335,0.,-0.00000166,0.00000070,-0.00000360,-0.00000254,
 -0.00000016,0.00000034,-0.00000014,-0.00000089,0.00000073,0.,-0.000000
 04,0.00000062,0.00000160,0.00000004,0.00000072,-0.00000027,0.00002741,
 0.00054600,0.00023972,0.00092220,0.00027336,0.00042481,-0.00012798,-0.
 00191079,-0.00001816,-0.01155292,-0.00671221,-0.02596152,-0.08872744,-
 0.02444549,-0.09298531,-0.00409114,0.00368858,-0.00064800,0.00102826,-
 0.00087683,0.00044043,0.00991906,0.00635860,0.01971687,-0.00351772,-0.
 00129059,-0.00531750,0.09612313,0.00000156,-0.00000291,0.00000088,-0.0
 0000257,-0.00000181,0.00000282,0.00001317,-0.00000746,-0.00000182,-0.0
 0000258,0.00000735,-0.00000095,-0.00000246,0.00002495,0.00000027,-0.00
 000334,0.00000121,0.00000142,0.00000055,0.00000336,0.00000340,0.000000
 68,0.00000065,0.00000125,0.00000036,0.00000141,-0.00000107,-0.00000127
 ,0.,0.00000248,0.00000254,0.00000269,-0.00000012,-0.00000186,-0.000002
 76,-0.00000255,-0.00000150,0.00000118,0.00000015,-0.00000029,-0.000001
 31,-0.00000699,-0.00000242,-0.00004099,0.00000247,0.00000026,0.0000003
 6,0.00000083,-0.00000085,0.00000176,-0.00000134,-0.00000197,-0.0000034
 8,0.00000042,-0.00000006,0.00000163,-0.00000428,0.00000062,-0.00000009
 ,-0.00000085,-0.00000043,0.00000005,-0.00000019,0.00000023,-0.00000047
 ,-0.00000009,0.00000044,0.00000023,0.00000039,0.00000040,0.00000020,0.
 00000017,-0.00000072,-0.00000050,0.00000088,0.00000157,-0.00000114,0.0
 0000070,0.,0.00000003,0.00000019,-0.00000067,0.00000025,-0.00000050,-0
 .00000043,0.00000013,-0.00000041,-0.00000007,0.00000021,-0.00000053,0.
 00008679,0.00002863,-0.00029178,0.00038148,-0.00029906,0.00034422,-0.0
 0069951,0.00037418,0.00061888,0.00690017,0.00404868,0.01740615,-0.0253
 0492,-0.06180462,-0.05735884,0.00310947,-0.00160035,0.00069133,-0.0008
 2089,0.00063339,-0.00040848,0.00328894,0.00046441,0.00616083,-0.011352
 65,-0.00572355,-0.02887155,0.02441225,0.06389356,0.00000710,0.00000043
 ,-0.00000517,0.00000643,0.00003781,0.00000610,-0.00002627,0.00000030,0
 .00000022,0.00000718,0.00000416,-0.00000011,0.00000600,-0.00000851,0.0
 0000561,-0.00000365,-0.00000257,0.00000030,0.00000205,0.00000366,-0.00
 000785,-0.00000093,-0.00000063,0.00000287,0.00000028,0.00000391,0.0000
 0394,-0.00000148,0.00000369,0.00000235,0.00000091,0.00000145,0.0000010
 2,-0.00000097,-0.00000384,-0.00000245,-0.00000221,-0.00000222,0.000001
 53,-0.00000257,-0.00005596,-0.00000896,0.00000545,0.00001219,-0.000007
 74,0.00000042,-0.00000018,0.00000015,0.00000096,-0.00000128,-0.0000005
 0,0.00000004,-0.00000012,-0.00000120,0.00000003,0.00000195,0.00000337,
 -0.00000029,-0.00000082,0.00000011,0.00000170,-0.00000050,-0.00000066,
 0.00000016,0.00000027,-0.00000002,-0.00000059,0.00000009,-0.00000036,0
 .00000036,0.00000063,0.00000050,0.00000141,-0.00000004,-0.00000064,-0.
 00000007,-0.00000407,-0.00000220,-0.00000031,0.00000027,0.00000006,-0.
 00000052,0.00000062,-0.00000020,0.00000005,0.00000055,0.00000133,0.000
 00041,0.00000083,-0.00000074,0.00019456,0.00057740,-0.00000108,0.00106
 797,-0.00039141,0.00058257,-0.00120387,-0.00127493,-0.00007923,-0.0013
 8988,-0.00021500,-0.00350577,-0.09404714,-0.05533435,-0.26478974,-0.00
 086981,0.00054445,0.00137499,-0.00027709,0.00032586,0.00066074,-0.0088
 6532,-0.00561877,-0.01899904,0.00127801,-0.00031749,0.00150882,0.10411
 147,0.06171219,0.28325711\\-0.00000248,-0.00000041,-0.00000101,-0.0000
 0438,-0.00000916,-0.00000614,0.00000541,0.00000203,0.00000739,-0.00000
 333,0.00000378,-0.00000196,-0.00000295,0.00000137,-0.00000092,-0.00000
 029,0.00000114,0.00000114,-0.00000042,0.00000096,0.00000344,0.00000004
 ,0.00000215,0.00000452,-0.00000039,-0.00000243,0.00000215,-0.00000035,
 -0.00000018,-0.00000440,-0.00000054,-0.00000161,-0.00000521,-0.0000013
 4,-0.00000165,-0.00000284,0.00000370,0.00000171,-0.00000288,0.00000063
 ,0.00001073,0.00000063,0.00000036,-0.00000600,0.00000151,-0.00000150,0
 .00000085,0.00000287,0.00000085,0.00000114,0.00000288,0.00000144,0.000
 00124,0.00000317,-0.00000017,0.00000121,0.00000292,0.00000083,0.000001
 76,0.00000476,0.00000031,0.00000210,0.00000509,-0.00000081,0.00000166,
 0.00000459,-0.00000074,-0.00000030,-0.00000207,0.00000063,-0.00000206,
 -0.00000466,0.00000090,-0.00000332,-0.00000329,-0.00000262,-0.00000037
 ,-0.00000251,-0.00000163,-0.00000149,-0.00000466,-0.00000187,-0.000002
 58,-0.00000475,-0.00000354,-0.00000175,0.00000022,-0.00000181,-0.00000
 187,-0.00000432,0.00000536,-0.00000947,0.00000117,0.00000846,-0.000006
 13,0.00000375,-0.00000579,-0.00000023,0.00000145,-0.00000012,0.0000095
 4,-0.00000730,0.00000140,0.00000535,0.00000126,0.00000168,0.00000042,-
 0.00000029,-0.00000007,0.00000047,0.00000137,0.00000274,0.00000113,0.0
 0000079,0.00000112,-0.00000011,0.00000030,0.00000128,0.00000035,0.0000
 0180\\\@


 THE WORLD OF CHEMICAL REACTIONS IS LIKE A STAGE,
 ON WHICH SCENE AFTER SCENE IS CEASELESSLY PLAYED.
 THE ACTORS ON IT ARE THE ELEMENTS.
   -- CLEMENS WINKLER   BER. 30,13(1897)
 (DISCOVERER OF GERMANIUM, FEB 6, 1886)
 Job cpu time:       0 days 12 hours  6 minutes 43.8 seconds.
 File lengths (MBytes):  RWF=   1414 Int=      0 D2E=      0 Chk=     37 Scr=      1
 Normal termination of Gaussian 09 at Thu Nov 14 23:48:45 2019.
pbs_rusage has been removed.
Please contact help@nci.org.au if you require this functionality.
