 Entering Gaussian System, Link 0=/apps/gaussian/g09e01/g09/g09
 Initial command:
 /apps/gaussian/g09e01/g09/l1.exe "/jobfs/local/3595149.r-man2/Gau-26281.inp" -scrdir="/jobfs/local/3595149.r-man2/"
 Entering Link 1 = /apps/gaussian/g09e01/g09/l1.exe PID=     26282.
  
 Copyright (c) 1988,1990,1992,1993,1995,1998,2003,2009,2015,
            Gaussian, Inc.  All Rights Reserved.
  
 This is part of the Gaussian(R) 09 program.  It is based on
 the Gaussian(R) 03 system (copyright 2003, Gaussian, Inc.),
 the Gaussian(R) 98 system (copyright 1998, Gaussian, Inc.),
 the Gaussian(R) 94 system (copyright 1995, Gaussian, Inc.),
 the Gaussian 92(TM) system (copyright 1992, Gaussian, Inc.),
 the Gaussian 90(TM) system (copyright 1990, Gaussian, Inc.),
 the Gaussian 88(TM) system (copyright 1988, Gaussian, Inc.),
 the Gaussian 86(TM) system (copyright 1986, Carnegie Mellon
 University), and the Gaussian 82(TM) system (copyright 1983,
 Carnegie Mellon University). Gaussian is a federally registered
 trademark of Gaussian, Inc.
  
 This software contains proprietary and confidential information,
 including trade secrets, belonging to Gaussian, Inc.
  
 This software is provided under written license and may be
 used, copied, transmitted, or stored only in accord with that
 written license.
  
 The following legend is applicable only to US Government
 contracts under FAR:
  
                    RESTRICTED RIGHTS LEGEND
  
 Use, reproduction and disclosure by the US Government is
 subject to restrictions as set forth in subparagraphs (a)
 and (c) of the Commercial Computer Software - Restricted
 Rights clause in FAR 52.227-19.
  
 Gaussian, Inc.
 340 Quinnipiac St., Bldg. 40, Wallingford CT 06492
  
  
 ---------------------------------------------------------------
 Warning -- This program may not be used in any manner that
 competes with the business of Gaussian, Inc. or will provide
 assistance to any competitor of Gaussian, Inc.  The licensee
 of this program is prohibited from giving any competitor of
 Gaussian, Inc. access to this program.  By using this program,
 the user acknowledges that Gaussian, Inc. is engaged in the
 business of creating and licensing software in the field of
 computational chemistry and represents and warrants to the
 licensee that it is not a competitor of Gaussian, Inc. and that
 it will not use this program in any manner prohibited above.
 ---------------------------------------------------------------
  

 Cite this work as:
 Gaussian 09, Revision E.01,
 M. J. Frisch, G. W. Trucks, H. B. Schlegel, G. E. Scuseria, 
 M. A. Robb, J. R. Cheeseman, G. Scalmani, V. Barone, B. Mennucci, 
 G. A. Petersson, H. Nakatsuji, M. Caricato, X. Li, H. P. Hratchian, 
 A. F. Izmaylov, J. Bloino, G. Zheng, J. L. Sonnenberg, M. Hada, 
 M. Ehara, K. Toyota, R. Fukuda, J. Hasegawa, M. Ishida, T. Nakajima, 
 Y. Honda, O. Kitao, H. Nakai, T. Vreven, J. A. Montgomery, Jr., 
 J. E. Peralta, F. Ogliaro, M. Bearpark, J. J. Heyd, E. Brothers, 
 K. N. Kudin, V. N. Staroverov, T. Keith, R. Kobayashi, J. Normand, 
 K. Raghavachari, A. Rendell, J. C. Burant, S. S. Iyengar, J. Tomasi, 
 M. Cossi, N. Rega, J. M. Millam, M. Klene, J. E. Knox, J. B. Cross, 
 V. Bakken, C. Adamo, J. Jaramillo, R. Gomperts, R. E. Stratmann, 
 O. Yazyev, A. J. Austin, R. Cammi, C. Pomelli, J. W. Ochterski, 
 R. L. Martin, K. Morokuma, V. G. Zakrzewski, G. A. Voth, 
 P. Salvador, J. J. Dannenberg, S. Dapprich, A. D. Daniels, 
 O. Farkas, J. B. Foresman, J. V. Ortiz, J. Cioslowski, 
 and D. J. Fox, Gaussian, Inc., Wallingford CT, 2013.
 
 ******************************************
 Gaussian 09:  ES64L-G09RevE.01 30-Nov-2015
                14-Nov-2019 
 ******************************************
 %chk=NM3_c2_carboxy.M062X_6-311pGd_opt_Pentadecane_GD3.chk
 %mem=196608000
 %nproc=8
 Will use up to    8 processors via shared memory.
 ----------------------------------------------------------------------
 # M062X/6-311+G* SCF=Tight INT(grid=ultrafine) OPT IOP(2/17=4) Empiric
 alDispersion=GD3 SCRF=(SMD,Solvent=n-Pentadecane) maxdisk=2684354560
 ----------------------------------------------------------------------
 1/14=-1,18=20,19=15,26=4,38=1/1,3;
 2/9=110,12=2,17=4,18=5,40=1/2;
 3/5=4,6=6,7=11,11=2,16=1,25=1,30=1,70=32201,71=1,72=151,74=-55,75=-5,124=31/1,2,3;
 4//1;
 5/5=2,32=2,38=5,53=151/2;
 6/7=2,8=2,9=2,10=2,28=1/1;
 7//1,2,3,16;
 1/14=-1,18=20,19=15,26=4/3(2);
 2/9=110,17=4/2;
 99//99;
 2/9=110,17=4/2;
 3/5=4,6=6,7=11,11=2,16=1,25=1,30=1,70=32205,71=1,72=151,74=-55,75=-5,124=31/1,2,3;
 4/5=5,16=3,69=1/1;
 5/5=2,32=2,38=5,53=151/2;
 7//1,2,3,16;
 1/14=-1,18=20,19=15,26=4/3(-5);
 2/9=110,17=4/2;
 6/7=2,8=2,9=2,10=2,19=2,28=1/1;
 99/9=1/99;
 -------------------------------------------------
 NM3_c2_carboxy.M062X_6-311pGd_opt_Pentadecane_GD3
 -------------------------------------------------
 Symbolic Z-matrix:
 Charge = -1 Multiplicity = 1
 C                    -5.86235   1.35976   0.20363 
 N                    -4.61998   0.76735   0.14064 
 C                    -3.38667   1.40324   0.09121 
 O                    -3.24656   2.62303   0.10897 
 N                    -2.35299   0.53363   0.03244 
 C                    -0.99198   1.0121   -0.09021 
 C                    -0.01501  -0.12517   0.17841 
 C                     1.43186   0.32718   0.01873 
 C                    -6.97224   0.49015   0.26875 
 C                    -8.24985   1.00886   0.33844 
 C                    -8.49673   2.383     0.34106 
 C                    -7.39331   3.21284   0.27164 
 C                    -6.08851   2.74488   0.20565 
 H                    -4.62899  -0.27182   0.13284 
 H                    -2.52298  -0.47582  -0.08465 
 H                    -0.83412   1.82859   0.62041 
 H                    -0.81605   1.42909  -1.09116 
 H                    -0.23203  -0.95499  -0.50072 
 H                    -0.1863   -0.50555   1.19007 
 H                     1.62636   0.6788   -0.9986 
 H                     2.12898  -0.48827   0.22498 
 H                     1.669     1.1476    0.70256 
 H                    -6.79774  -0.58094   0.26668 
 Cl                   -7.65168   4.94797   0.26996 
 H                    -5.25583   3.42904   0.1569 
 C                    -9.43362   0.09009   0.37163 
 H                    -9.50154   2.78179   0.39823 
 F                    -10.33387   0.46239   1.30379 
 F                    -10.10222   0.08665  -0.80079 
 F                    -9.10912  -1.18046   0.63039 
 O                    -4.8849   -1.97776   0.10044 
 O                    -2.70835  -2.26024  -0.31579 
 C                    -3.87313  -2.68487  -0.15024 
 C                    -4.12097  -4.19467  -0.25091 
 C                    -2.89152  -5.01703  -0.60571 
 H                    -4.91922  -4.34165  -0.98486 
 H                    -4.54196  -4.51342   0.70812 
 H                    -2.48083  -4.71165  -1.56996 
 H                    -3.13128  -6.08325  -0.65907 
 H                    -2.10269  -4.88071   0.1361 
 
 Add virtual bond connecting atoms O31        and H14        Dist= 3.26D+00.
 Add virtual bond connecting atoms O32        and H15        Dist= 3.42D+00.

 GradGradGradGradGradGradGradGradGradGradGradGradGradGradGradGradGradGrad
 Berny optimization.
 Initialization pass.
                           ----------------------------
                           !    Initial Parameters    !
                           ! (Angstroms and Degrees)  !
 --------------------------                            --------------------------
 ! Name  Definition              Value          Derivative Info.                !
 --------------------------------------------------------------------------------
 ! R1    R(1,2)                  1.3778         estimate D2E/DX2                !
 ! R2    R(1,9)                  1.4115         estimate D2E/DX2                !
 ! R3    R(1,13)                 1.4035         estimate D2E/DX2                !
 ! R4    R(2,3)                  1.3885         estimate D2E/DX2                !
 ! R5    R(2,14)                 1.0392         estimate D2E/DX2                !
 ! R6    R(3,4)                  1.2279         estimate D2E/DX2                !
 ! R7    R(3,5)                  1.3521         estimate D2E/DX2                !
 ! R8    R(5,6)                  1.4479         estimate D2E/DX2                !
 ! R9    R(5,15)                 1.0303         estimate D2E/DX2                !
 ! R10   R(6,7)                  1.5232         estimate D2E/DX2                !
 ! R11   R(6,16)                 1.0939         estimate D2E/DX2                !
 ! R12   R(6,17)                 1.0985         estimate D2E/DX2                !
 ! R13   R(7,8)                  1.5243         estimate D2E/DX2                !
 ! R14   R(7,18)                 1.094          estimate D2E/DX2                !
 ! R15   R(7,19)                 1.0943         estimate D2E/DX2                !
 ! R16   R(8,20)                 1.0938         estimate D2E/DX2                !
 ! R17   R(8,21)                 1.0925         estimate D2E/DX2                !
 ! R18   R(8,22)                 1.094          estimate D2E/DX2                !
 ! R19   R(9,10)                 1.3806         estimate D2E/DX2                !
 ! R20   R(9,23)                 1.0852         estimate D2E/DX2                !
 ! R21   R(10,11)                1.3961         estimate D2E/DX2                !
 ! R22   R(10,26)                1.4989         estimate D2E/DX2                !
 ! R23   R(11,12)                1.3824         estimate D2E/DX2                !
 ! R24   R(11,27)                1.0826         estimate D2E/DX2                !
 ! R25   R(12,13)                1.3877         estimate D2E/DX2                !
 ! R26   R(12,24)                1.7543         estimate D2E/DX2                !
 ! R27   R(13,25)                1.0788         estimate D2E/DX2                !
 ! R28   R(14,31)                1.7253         estimate D2E/DX2                !
 ! R29   R(15,32)                1.8088         estimate D2E/DX2                !
 ! R30   R(26,28)                1.3483         estimate D2E/DX2                !
 ! R31   R(26,29)                1.3497         estimate D2E/DX2                !
 ! R32   R(26,30)                1.3366         estimate D2E/DX2                !
 ! R33   R(31,33)                1.2596         estimate D2E/DX2                !
 ! R34   R(32,33)                1.2508         estimate D2E/DX2                !
 ! R35   R(33,34)                1.5333         estimate D2E/DX2                !
 ! R36   R(34,35)                1.5211         estimate D2E/DX2                !
 ! R37   R(34,36)                1.0943         estimate D2E/DX2                !
 ! R38   R(34,37)                1.0948         estimate D2E/DX2                !
 ! R39   R(35,38)                1.0917         estimate D2E/DX2                !
 ! R40   R(35,39)                1.0941         estimate D2E/DX2                !
 ! R41   R(35,40)                1.0914         estimate D2E/DX2                !
 ! A1    A(2,1,9)              116.502          estimate D2E/DX2                !
 ! A2    A(2,1,13)             124.7303         estimate D2E/DX2                !
 ! A3    A(9,1,13)             118.7676         estimate D2E/DX2                !
 ! A4    A(1,2,3)              127.2746         estimate D2E/DX2                !
 ! A5    A(1,2,14)             114.9902         estimate D2E/DX2                !
 ! A6    A(3,2,14)             117.735          estimate D2E/DX2                !
 ! A7    A(2,3,4)              123.7642         estimate D2E/DX2                !
 ! A8    A(2,3,5)              112.7098         estimate D2E/DX2                !
 ! A9    A(4,3,5)              123.5239         estimate D2E/DX2                !
 ! A10   A(3,5,6)              120.6491         estimate D2E/DX2                !
 ! A11   A(3,5,15)             120.5923         estimate D2E/DX2                !
 ! A12   A(6,5,15)             117.9842         estimate D2E/DX2                !
 ! A13   A(5,6,7)              109.9529         estimate D2E/DX2                !
 ! A14   A(5,6,16)             109.1043         estimate D2E/DX2                !
 ! A15   A(5,6,17)             110.6814         estimate D2E/DX2                !
 ! A16   A(7,6,16)             110.4989         estimate D2E/DX2                !
 ! A17   A(7,6,17)             109.9623         estimate D2E/DX2                !
 ! A18   A(16,6,17)            106.588          estimate D2E/DX2                !
 ! A19   A(6,7,8)              111.6401         estimate D2E/DX2                !
 ! A20   A(6,7,18)             109.2457         estimate D2E/DX2                !
 ! A21   A(6,7,19)             108.7948         estimate D2E/DX2                !
 ! A22   A(8,7,18)             110.3863         estimate D2E/DX2                !
 ! A23   A(8,7,19)             110.3999         estimate D2E/DX2                !
 ! A24   A(18,7,19)            106.211          estimate D2E/DX2                !
 ! A25   A(7,8,20)             111.1989         estimate D2E/DX2                !
 ! A26   A(7,8,21)             111.3715         estimate D2E/DX2                !
 ! A27   A(7,8,22)             111.2723         estimate D2E/DX2                !
 ! A28   A(20,8,21)            107.5815         estimate D2E/DX2                !
 ! A29   A(20,8,22)            107.5618         estimate D2E/DX2                !
 ! A30   A(21,8,22)            107.6639         estimate D2E/DX2                !
 ! A31   A(1,9,10)             119.9008         estimate D2E/DX2                !
 ! A32   A(1,9,23)             118.7863         estimate D2E/DX2                !
 ! A33   A(10,9,23)            121.3124         estimate D2E/DX2                !
 ! A34   A(9,10,11)            122.2428         estimate D2E/DX2                !
 ! A35   A(9,10,26)            120.11           estimate D2E/DX2                !
 ! A36   A(11,10,26)           117.6208         estimate D2E/DX2                !
 ! A37   A(10,11,12)           116.7171         estimate D2E/DX2                !
 ! A38   A(10,11,27)           121.7896         estimate D2E/DX2                !
 ! A39   A(12,11,27)           121.493          estimate D2E/DX2                !
 ! A40   A(11,12,13)           123.3985         estimate D2E/DX2                !
 ! A41   A(11,12,24)           118.4393         estimate D2E/DX2                !
 ! A42   A(13,12,24)           118.1621         estimate D2E/DX2                !
 ! A43   A(1,13,12)            118.9722         estimate D2E/DX2                !
 ! A44   A(1,13,25)            120.096          estimate D2E/DX2                !
 ! A45   A(12,13,25)           120.9319         estimate D2E/DX2                !
 ! A46   A(10,26,28)           111.9241         estimate D2E/DX2                !
 ! A47   A(10,26,29)           111.936          estimate D2E/DX2                !
 ! A48   A(10,26,30)           113.2802         estimate D2E/DX2                !
 ! A49   A(28,26,29)           105.6941         estimate D2E/DX2                !
 ! A50   A(28,26,30)           106.9017         estimate D2E/DX2                !
 ! A51   A(29,26,30)           106.6194         estimate D2E/DX2                !
 ! A52   A(14,31,33)           116.0833         estimate D2E/DX2                !
 ! A53   A(15,32,33)           114.4209         estimate D2E/DX2                !
 ! A54   A(31,33,32)           125.7172         estimate D2E/DX2                !
 ! A55   A(31,33,34)           115.8499         estimate D2E/DX2                !
 ! A56   A(32,33,34)           118.4326         estimate D2E/DX2                !
 ! A57   A(33,34,35)           114.6467         estimate D2E/DX2                !
 ! A58   A(33,34,36)           107.1093         estimate D2E/DX2                !
 ! A59   A(33,34,37)           106.9375         estimate D2E/DX2                !
 ! A60   A(35,34,36)           111.134          estimate D2E/DX2                !
 ! A61   A(35,34,37)           110.9606         estimate D2E/DX2                !
 ! A62   A(36,34,37)           105.5402         estimate D2E/DX2                !
 ! A63   A(34,35,38)           111.0307         estimate D2E/DX2                !
 ! A64   A(34,35,39)           111.1683         estimate D2E/DX2                !
 ! A65   A(34,35,40)           110.9855         estimate D2E/DX2                !
 ! A66   A(38,35,39)           108.1773         estimate D2E/DX2                !
 ! A67   A(38,35,40)           107.0681         estimate D2E/DX2                !
 ! A68   A(39,35,40)           108.2555         estimate D2E/DX2                !
 ! A69   L(2,14,31,7,-1)       188.0391         estimate D2E/DX2                !
 ! A70   L(5,15,32,7,-1)       176.4678         estimate D2E/DX2                !
 ! A71   L(2,14,31,7,-2)       180.5831         estimate D2E/DX2                !
 ! A72   L(5,15,32,7,-2)       181.1219         estimate D2E/DX2                !
 ! D1    D(9,1,2,3)           -178.9208         estimate D2E/DX2                !
 ! D2    D(9,1,2,14)             0.9022         estimate D2E/DX2                !
 ! D3    D(13,1,2,3)             1.1473         estimate D2E/DX2                !
 ! D4    D(13,1,2,14)         -179.0298         estimate D2E/DX2                !
 ! D5    D(2,1,9,10)           179.7925         estimate D2E/DX2                !
 ! D6    D(2,1,9,23)             0.0323         estimate D2E/DX2                !
 ! D7    D(13,1,9,10)           -0.2713         estimate D2E/DX2                !
 ! D8    D(13,1,9,23)          179.9686         estimate D2E/DX2                !
 ! D9    D(2,1,13,12)          179.9385         estimate D2E/DX2                !
 ! D10   D(2,1,13,25)           -0.0901         estimate D2E/DX2                !
 ! D11   D(9,1,13,12)            0.008          estimate D2E/DX2                !
 ! D12   D(9,1,13,25)          179.9794         estimate D2E/DX2                !
 ! D13   D(1,2,3,4)              0.622          estimate D2E/DX2                !
 ! D14   D(1,2,3,5)           -179.8933         estimate D2E/DX2                !
 ! D15   D(14,2,3,4)          -179.1967         estimate D2E/DX2                !
 ! D16   D(14,2,3,5)             0.288          estimate D2E/DX2                !
 ! D17   D(1,2,31,33)          169.8081         estimate D2E/DX2                !
 ! D18   D(3,2,31,33)           -9.7137         estimate D2E/DX2                !
 ! D19   D(2,3,5,6)            176.9966         estimate D2E/DX2                !
 ! D20   D(2,3,5,15)             7.2793         estimate D2E/DX2                !
 ! D21   D(4,3,5,6)             -3.5173         estimate D2E/DX2                !
 ! D22   D(4,3,5,15)          -173.2347         estimate D2E/DX2                !
 ! D23   D(3,5,6,7)            167.3215         estimate D2E/DX2                !
 ! D24   D(3,5,6,16)            45.9885         estimate D2E/DX2                !
 ! D25   D(3,5,6,17)           -70.9922         estimate D2E/DX2                !
 ! D26   D(15,5,6,7)           -22.6992         estimate D2E/DX2                !
 ! D27   D(15,5,6,16)         -144.0322         estimate D2E/DX2                !
 ! D28   D(15,5,6,17)           98.9871         estimate D2E/DX2                !
 ! D29   D(3,5,32,33)          -13.5813         estimate D2E/DX2                !
 ! D30   D(6,5,32,33)          176.8691         estimate D2E/DX2                !
 ! D31   D(5,6,7,8)            178.3151         estimate D2E/DX2                !
 ! D32   D(5,6,7,18)            55.94           estimate D2E/DX2                !
 ! D33   D(5,6,7,19)           -59.6022         estimate D2E/DX2                !
 ! D34   D(16,6,7,8)           -61.1905         estimate D2E/DX2                !
 ! D35   D(16,6,7,18)          176.4344         estimate D2E/DX2                !
 ! D36   D(16,6,7,19)           60.8922         estimate D2E/DX2                !
 ! D37   D(17,6,7,8)            56.2009         estimate D2E/DX2                !
 ! D38   D(17,6,7,18)          -66.1741         estimate D2E/DX2                !
 ! D39   D(17,6,7,19)          178.2836         estimate D2E/DX2                !
 ! D40   D(6,7,8,20)           -60.7583         estimate D2E/DX2                !
 ! D41   D(6,7,8,21)           179.2625         estimate D2E/DX2                !
 ! D42   D(6,7,8,22)            59.1291         estimate D2E/DX2                !
 ! D43   D(18,7,8,20)           60.9602         estimate D2E/DX2                !
 ! D44   D(18,7,8,21)          -59.019          estimate D2E/DX2                !
 ! D45   D(18,7,8,22)         -179.1524         estimate D2E/DX2                !
 ! D46   D(19,7,8,20)          178.0872         estimate D2E/DX2                !
 ! D47   D(19,7,8,21)           58.108          estimate D2E/DX2                !
 ! D48   D(19,7,8,22)          -62.0254         estimate D2E/DX2                !
 ! D49   D(1,9,10,11)            0.3116         estimate D2E/DX2                !
 ! D50   D(1,9,10,26)          178.4014         estimate D2E/DX2                !
 ! D51   D(23,9,10,11)        -179.9345         estimate D2E/DX2                !
 ! D52   D(23,9,10,26)          -1.8447         estimate D2E/DX2                !
 ! D53   D(9,10,11,12)          -0.0766         estimate D2E/DX2                !
 ! D54   D(9,10,11,27)        -179.8583         estimate D2E/DX2                !
 ! D55   D(26,10,11,12)       -178.2116         estimate D2E/DX2                !
 ! D56   D(26,10,11,27)          2.0066         estimate D2E/DX2                !
 ! D57   D(9,10,26,28)         135.174          estimate D2E/DX2                !
 ! D58   D(9,10,26,29)        -106.373          estimate D2E/DX2                !
 ! D59   D(9,10,26,30)          14.2203         estimate D2E/DX2                !
 ! D60   D(11,10,26,28)        -46.6494         estimate D2E/DX2                !
 ! D61   D(11,10,26,29)         71.8036         estimate D2E/DX2                !
 ! D62   D(11,10,26,30)       -167.6031         estimate D2E/DX2                !
 ! D63   D(10,11,12,13)         -0.2023         estimate D2E/DX2                !
 ! D64   D(10,11,12,24)        179.927          estimate D2E/DX2                !
 ! D65   D(27,11,12,13)        179.5802         estimate D2E/DX2                !
 ! D66   D(27,11,12,24)         -0.2905         estimate D2E/DX2                !
 ! D67   D(11,12,13,1)           0.2358         estimate D2E/DX2                !
 ! D68   D(11,12,13,25)       -179.7353         estimate D2E/DX2                !
 ! D69   D(24,12,13,1)        -179.8931         estimate D2E/DX2                !
 ! D70   D(24,12,13,25)          0.1357         estimate D2E/DX2                !
 ! D71   D(14,31,33,32)          3.3132         estimate D2E/DX2                !
 ! D72   D(14,31,33,34)       -176.8938         estimate D2E/DX2                !
 ! D73   D(15,32,33,31)          2.9651         estimate D2E/DX2                !
 ! D74   D(15,32,33,34)       -176.823          estimate D2E/DX2                !
 ! D75   D(31,33,34,35)        177.8173         estimate D2E/DX2                !
 ! D76   D(31,33,34,36)         54.0176         estimate D2E/DX2                !
 ! D77   D(31,33,34,37)        -58.7362         estimate D2E/DX2                !
 ! D78   D(32,33,34,35)         -2.3738         estimate D2E/DX2                !
 ! D79   D(32,33,34,36)       -126.1735         estimate D2E/DX2                !
 ! D80   D(32,33,34,37)        121.0727         estimate D2E/DX2                !
 ! D81   D(33,34,35,38)        -59.7076         estimate D2E/DX2                !
 ! D82   D(33,34,35,39)        179.809          estimate D2E/DX2                !
 ! D83   D(33,34,35,40)         59.257          estimate D2E/DX2                !
 ! D84   D(36,34,35,38)         61.9191         estimate D2E/DX2                !
 ! D85   D(36,34,35,39)        -58.5643         estimate D2E/DX2                !
 ! D86   D(36,34,35,40)       -179.1163         estimate D2E/DX2                !
 ! D87   D(37,34,35,38)        179.0268         estimate D2E/DX2                !
 ! D88   D(37,34,35,39)         58.5434         estimate D2E/DX2                !
 ! D89   D(37,34,35,40)        -62.0086         estimate D2E/DX2                !
 --------------------------------------------------------------------------------
 Trust Radius=3.00D-01 FncErr=1.00D-07 GrdErr=1.00D-06
 Number of steps in this run=    212 maximum allowed number of steps=    240.
 GradGradGradGradGradGradGradGradGradGradGradGradGradGradGradGradGradGrad

                          Input orientation:                          
 ---------------------------------------------------------------------
 Center     Atomic      Atomic             Coordinates (Angstroms)
 Number     Number       Type             X           Y           Z
 ---------------------------------------------------------------------
      1          6           0       -5.862348    1.359761    0.203628
      2          7           0       -4.619985    0.767347    0.140636
      3          6           0       -3.386674    1.403240    0.091206
      4          8           0       -3.246563    2.623033    0.108969
      5          7           0       -2.352987    0.533626    0.032437
      6          6           0       -0.991979    1.012098   -0.090210
      7          6           0       -0.015013   -0.125168    0.178409
      8          6           0        1.431861    0.327181    0.018734
      9          6           0       -6.972242    0.490149    0.268747
     10          6           0       -8.249848    1.008859    0.338439
     11          6           0       -8.496734    2.383005    0.341059
     12          6           0       -7.393305    3.212839    0.271642
     13          6           0       -6.088512    2.744880    0.205649
     14          1           0       -4.628993   -0.271824    0.132837
     15          1           0       -2.522975   -0.475817   -0.084653
     16          1           0       -0.834124    1.828588    0.620411
     17          1           0       -0.816053    1.429094   -1.091162
     18          1           0       -0.232033   -0.954986   -0.500724
     19          1           0       -0.186303   -0.505551    1.190068
     20          1           0        1.626365    0.678797   -0.998603
     21          1           0        2.128978   -0.488265    0.224976
     22          1           0        1.668999    1.147602    0.702557
     23          1           0       -6.797741   -0.580936    0.266682
     24         17           0       -7.651683    4.947968    0.269959
     25          1           0       -5.255830    3.429041    0.156902
     26          6           0       -9.433623    0.090090    0.371633
     27          1           0       -9.501544    2.781795    0.398227
     28          9           0      -10.333874    0.462391    1.303794
     29          9           0      -10.102223    0.086650   -0.800785
     30          9           0       -9.109125   -1.180457    0.630391
     31          8           0       -4.884902   -1.977757    0.100436
     32          8           0       -2.708347   -2.260235   -0.315786
     33          6           0       -3.873131   -2.684874   -0.150238
     34          6           0       -4.120968   -4.194669   -0.250912
     35          6           0       -2.891522   -5.017034   -0.605708
     36          1           0       -4.919222   -4.341645   -0.984858
     37          1           0       -4.541959   -4.513425    0.708120
     38          1           0       -2.480831   -4.711651   -1.569963
     39          1           0       -3.131277   -6.083253   -0.659073
     40          1           0       -2.102690   -4.880708    0.136097
 ---------------------------------------------------------------------
                    Distance matrix (angstroms):
                    1          2          3          4          5
     1  C    0.000000
     2  N    1.377821   0.000000
     3  C    2.478607   1.388473   0.000000
     4  O    2.906398   2.308865   1.227942   0.000000
     5  N    3.609353   2.281581   1.352107   2.273754   0.000000
     6  C    4.891596   3.643572   2.433201   2.778117   1.447867
     7  C    6.032991   4.690817   3.702935   4.242681   2.433400
     8  C    7.369253   6.069056   4.937756   5.212171   3.790498
     9  C    1.411499   2.371997   3.704262   4.295975   4.625501
    10  C    2.416911   3.643263   4.885399   5.262231   5.923889
    11  C    2.829470   4.204724   5.209134   5.260777   6.423479
    12  C    2.404652   3.699851   4.400034   4.191635   5.713162
    13  C    1.403463   2.464028   3.018779   2.846202   4.344399
    14  H    2.046521   1.039240   2.085888   3.208096   2.416410
    15  H    3.821501   2.448196   2.075514   3.188093   1.030331
    16  H    5.067203   3.960954   2.641305   2.590864   2.080766
    17  H    5.210219   4.052793   2.829621   2.961956   2.103925
    18  H    6.128182   4.757299   3.982884   4.718192   2.645499
    19  H    6.055572   4.730657   3.885017   4.507993   2.667305
    20  H    7.615110   6.350007   5.181028   5.362107   4.113314
    21  H    8.202253   6.865288   5.832504   6.212091   4.601015
    22  H    7.550837   6.325477   5.098914   5.166430   4.123396
    23  H    2.155282   2.564445   3.950079   4.785515   4.588351
    24  Cl   4.010155   5.165801   5.548634   4.983605   6.900653
    25  H    2.156842   2.736636   2.757160   2.165433   4.101880
    26  C    3.793981   4.866534   6.194239   6.690628   7.102618
    27  H    3.912006   5.287152   6.275852   6.263678   7.502662
    28  F    4.691500   5.839046   7.114714   7.505061   8.081830
    29  F    4.539405   5.603977   6.901280   7.366204   7.806710
    30  F    4.144441   4.917945   6.301798   7.007713   6.995787
    31  O    3.479235   2.758151   3.698096   4.883799   3.566828
    32  O    4.829274   3.609562   3.747909   4.931166   2.837816
    33  C    4.521204   3.544042   4.124029   5.351042   3.564120
    34  C    5.838725   5.002393   5.656220   6.882962   5.055969
    35  C    7.081267   6.083065   6.476942   7.681630   5.613116
    36  H    5.899833   5.240047   6.042378   7.245757   5.602564
    37  H    6.040882   5.311749   6.059884   7.277779   5.542641
    38  H    7.172331   6.125484   6.400932   7.563250   5.486070
    39  H    7.975052   7.055955   7.528328   8.740857   6.698283
    40  H    7.285811   6.183633   6.413940   7.590474   5.421107
                    6          7          8          9         10
     6  C    0.000000
     7  C    1.523152   0.000000
     8  C    2.521106   1.524323   0.000000
     9  C    6.013720   6.984970   8.409400   0.000000
    10  C    7.270517   8.314092   9.710941   1.380650   0.000000
    11  C    7.641121   8.846297  10.144323   2.431502   1.396150
    12  C    6.778730   8.098776   9.288409   2.755057   2.365513
    13  C    5.391170   6.717537   7.901659   2.422555   2.775387
    14  H    3.863428   4.616535   6.091451   2.467771   3.846169
    15  H    2.134917   2.545983   4.036858   4.566614   5.931302
    16  H    1.093873   2.164133   2.784048   6.292184   7.466219
    17  H    1.098517   2.160834   2.738466   6.374138   7.581666
    18  H    2.148361   1.094037   2.163870   6.936203   8.297363
    19  H    2.142775   1.094297   2.164236   6.920204   8.248604
    20  H    2.791413   2.173900   1.093819   8.693550   9.971770
    21  H    3.477183   2.175019   1.092457   9.153766  10.486863
    22  H    2.779864   2.174988   1.094047   8.677067   9.926498
    23  H    6.030921   6.798596   8.283267   1.085209   2.154347
    24  Cl   7.744188   9.168631  10.194388   4.509300   3.984854
    25  H    4.907454   6.332379   7.373319   3.405241   3.854138
    26  C    8.504396   9.423050  10.873798   2.495802   1.498854
    27  H    8.705349   9.924365  11.211980   3.415519   2.171087
    28  F    9.461312  10.396663  11.836476   3.517479   2.360869
    29  F    9.184657  10.136838  11.565663   3.332190   2.362116
    30  F    8.438875   9.166285  10.665808   2.736417   2.369958
    31  O    4.912273   5.210948   6.724649   3.236646   4.505484
    32  O    3.702022   3.472289   4.893665   5.107553   6.467087
    33  C    4.687456   4.641678   6.102784   4.456547   5.747880
    34  C    6.076744   5.796898   7.166153   5.508842   6.668710
    35  C    6.342273   5.728830   6.902333   6.909849   8.118772
    36  H    6.699716   6.571388   7.946156   5.397468   6.439882
    37  H    6.615972   6.326976   7.719666   5.579882   6.661886
    38  H    6.096528   5.492985   6.574416   7.114237   8.345526
    39  H    7.432644   6.775784   7.897804   7.669646   8.803002
    40  H    6.000837   5.193779   6.295151   7.250947   8.515603
                   11         12         13         14         15
    11  C    0.000000
    12  C    1.382388   0.000000
    13  C    2.439021   1.387741   0.000000
    14  H    4.695838   4.450120   3.352015   0.000000
    15  H    6.636255   6.119906   4.813545   2.127023   0.000000
    16  H    7.687718   6.712723   5.349786   4.364687   2.942723
    17  H    7.871090   6.949765   5.586755   4.350840   2.748696
    18  H    8.952991   8.321726   6.963211   4.494593   2.377211
    19  H    8.838995   8.161545   6.809586   4.572730   2.661923
    20  H   10.352591   9.454593   8.077019   6.427545   4.402892
    21  H   11.007426  10.216371   8.830671   6.762064   4.662263
    22  H   10.246903   9.304636   7.935817   6.481053   4.563752
    23  H    3.417170   3.840240   3.401144   2.194751   4.290468
    24  Cl   2.701518   1.754261   2.702079   6.033380   7.473074
    25  H    3.410508   2.151444   1.078801   3.753653   4.772291
    26  C    2.477126   3.731549   4.273784   4.824155   6.948777
    27  H    1.082565   2.155573   3.418660   5.756455   7.716582
    28  F    2.826782   4.156590   4.943559   5.869913   7.988627
    29  F    3.025665   4.273335   4.918229   5.563848   7.633755
    30  F    3.627257   4.730094   4.971195   4.598342   6.662220
    31  O    5.667404   5.767468   4.874736   1.725325   2.805134
    32  O    7.449600   7.228309   6.062062   2.800700   1.808849
    33  C    6.877679   6.881325   5.875100   2.544458   2.589818
    34  C    7.922345   8.114951   7.227519   3.974175   4.051060
    35  C    9.331416   9.421603   8.433644   5.106982   4.585845
    36  H    7.731595   8.047988   7.280343   4.230475   4.636486
    37  H    7.958374   8.247172   7.438232   4.281320   4.583346
    38  H    9.496170   9.503760   8.471601   5.217873   4.488899
    39  H   10.073028  10.268809   9.350343   6.053344   5.669508
    40  H    9.679221   9.670288   8.604720   5.255856   4.430398
                   16         17         18         19         20
    16  H    0.000000
    17  H    1.757670   0.000000
    18  H    3.060677   2.524585   0.000000
    19  H    2.488451   3.056705   1.750103   0.000000
    20  H    3.161840   2.556739   2.524039   3.078754   0.000000
    21  H    3.782083   3.752558   2.513731   2.508431   1.764030
    22  H    2.595403   3.077686   3.079397   2.532336   1.765090
    23  H    6.441713   6.454808   6.620978   6.676035   8.611239
    24  Cl   7.505495   7.807749   9.512623   9.290821  10.291609
    25  H    4.725227   5.026835   6.700052   6.499889   7.500909
    26  C    8.776995   8.842805   9.301744   9.302556  11.160083
    27  H    8.722508   8.915483  10.034713   9.909964  11.410701
    28  F    9.621785   9.862010  10.359171  10.194265  12.181755
    29  F    9.536866   9.387195   9.929536  10.131124  11.745192
    30  F    8.805117   8.862761   8.951704   8.965796  11.016405
    31  O    5.582781   5.438940   4.801733   5.042968   7.117707
    32  O    4.594307   4.218191   2.805354   3.421582   5.281466
    33  C    5.495526   5.211122   4.046350   4.487602   6.502189
    34  C    6.916805   6.576868   5.067718   5.582796   7.572420
    35  C    7.252503   6.789389   4.856350   5.558462   7.280670
    36  H    7.572100   7.081577   5.802895   6.468883   8.249227
    37  H    7.346895   7.241085   5.718326   5.938608   8.241377
    38  H    7.091130   6.380399   4.506983   5.529368   6.800915
    39  H    8.337339   7.872885   5.893201   6.572895   8.275008
    40  H    6.845325   6.555547   4.395019   4.891359   6.789808
                   21         22         23         24         25
    21  H    0.000000
    22  H    1.765142   0.000000
    23  H    8.927298   8.652371   0.000000
    24  Cl  11.189994  10.074970   5.594461   0.000000
    25  H    8.359744   7.311358   4.297611   2.839019   0.000000
    26  C   11.577985  11.157780   2.721977   5.175387   5.352444
    27  H   12.082730  11.293548   4.316921   2.851446   4.301541
    28  F   12.545528  12.037439   3.829930   5.327603   5.991903
    29  F   12.287595  11.914165   3.536207   5.548337   5.964585
    30  F   11.266696  11.026922   2.415409   6.309646   6.026570
    31  O    7.171374   7.285879   2.374385   7.459857   5.419801
    32  O    5.179964   5.640172   4.458975   8.760014   6.251478
    33  C    6.402437   6.791932   3.626806   8.527267   6.275839
    34  C    7.281877   7.935533   4.526819   9.814533   7.718497
    35  C    6.812136   7.778987   5.974829  11.078230   8.803846
    36  H    8.123384   8.739786   4.386129   9.764109   7.861329
    37  H    7.806199   8.403764   4.554986   9.968968   7.993511
    38  H    6.504547   7.531021   6.250744  11.109962   8.772318
    39  H    7.730182   8.785325   6.676487  11.957633   9.780760
    40  H    6.099875   7.133515   6.367778  11.287696   8.887894
                   26         27         28         29         30
    26  C    0.000000
    27  H    2.692693   0.000000
    28  F    1.348327   2.625348   0.000000
    29  F    1.349667   3.010357   2.150371   0.000000
    30  F    1.336617   3.988400   2.156950   2.154082   0.000000
    31  O    5.004038   6.637424   6.090459   5.682818   4.331351
    32  O    7.157227   8.489959   8.257384   7.772547   6.559811
    33  C    6.236332   7.865387   7.332168   6.848806   5.503479
    34  C    6.853541   8.834197   7.918682   7.376142   5.894394
    35  C    8.356853  10.272390   9.437102   8.836281   7.409848
    36  H    6.469943   8.582191   7.591782   6.819618   5.491578
    37  H    6.725618   8.826876   7.658972   7.372518   5.654531
    38  H    8.669938  10.455426   9.833589   9.038858   7.825929
    39  H    8.882120  10.967554   9.928529   9.310310   7.838034
    40  H    8.860410  10.654844   9.882540   9.462818   7.938911
                   31         32         33         34         35
    31  O    0.000000
    32  O    2.233926   0.000000
    33  C    1.259576   1.250778   0.000000
    34  C    2.371021   2.396193   1.533310   0.000000
    35  C    3.702621   2.778047   2.570988   1.521085   0.000000
    36  H    2.601348   3.109323   2.129739   1.094298   2.170593
    37  H    2.629924   3.080159   2.127841   1.094798   2.168803
    38  H    4.005492   2.762999   2.839357   2.167306   1.091656
    39  H    4.528482   3.861629   3.515428   2.170905   1.094145
    40  H    4.021081   2.727250   2.835160   2.166534   1.091382
                   36         37         38         39         40
    36  H    0.000000
    37  H    1.742989   0.000000
    38  H    2.534759   3.078507   0.000000
    39  H    2.517157   2.514677   1.770336   0.000000
    40  H    3.078957   2.532220   1.755622   1.770989   0.000000
 Stoichiometry    C14H17ClF3N2O3(1-)
 Framework group  C1[X(C14H17ClF3N2O3)]
 Deg. of freedom   114
 Full point group                 C1      NOp   1
 Largest Abelian subgroup         C1      NOp   1
 Largest concise Abelian subgroup C1      NOp   1
                         Standard orientation:                         
 ---------------------------------------------------------------------
 Center     Atomic      Atomic             Coordinates (Angstroms)
 Number     Number       Type             X           Y           Z
 ---------------------------------------------------------------------
      1          6           0       -0.888818   -0.688314   -0.014300
      2          7           0        0.487333   -0.623241   -0.033363
      3          6           0        1.379994   -1.686196    0.000407
      4          8           0        1.036866   -2.864469    0.042577
      5          7           0        2.670849   -1.284948   -0.029352
      6          6           0        3.746108   -2.250064    0.063864
      7          6           0        5.069125   -1.591413   -0.304638
      8          6           0        6.235668   -2.564572   -0.179344
      9          6           0       -1.578510    0.541390   -0.081256
     10          6           0       -2.959029    0.557650   -0.071418
     11          6           0       -3.717154   -0.611920    0.009754
     12          6           0       -3.017803   -1.802337    0.079123
     13          6           0       -1.632070   -1.876017    0.067225
     14          1           0        0.880818    0.337444   -0.081054
     15          1           0        2.910994   -0.285403    0.040087
     16          1           0        3.534890   -3.087334   -0.607645
     17          1           0        3.805067   -2.668463    1.077868
     18          1           0        5.229197   -0.719956    0.337122
     19          1           0        4.999673   -1.208893   -1.327546
     20          1           0        6.337931   -2.929427    0.846748
     21          1           0        7.180392   -2.091449   -0.457037
     22          1           0        6.097474   -3.435350   -0.827100
     23          1           0       -1.004096    1.459985   -0.143781
     24         17           0       -3.925669   -3.299708    0.184448
     25          1           0       -1.126905   -2.827823    0.119056
     26          6           0       -3.695899    1.862401   -0.106184
     27          1           0       -4.799501   -0.590772    0.014648
     28          9           0       -4.722503    1.837665   -0.979945
     29          9           0       -4.242088    2.165021    1.090353
     30          9           0       -2.921492    2.897564   -0.445707
     31          8           0        1.305938    2.008855   -0.130072
     32          8           0        3.442885    1.437619    0.182292
     33          6           0        2.524990    2.275486    0.041255
     34          6           0        2.885752    3.765463    0.070570
     35          6           0        4.355740    4.057195    0.330816
     36          1           0        2.250211    4.235760    0.827139
     37          1           0        2.565678    4.190012   -0.886453
     38          1           0        4.671800    3.649139    1.292747
     39          1           0        4.549890    5.133962    0.336437
     40          1           0        4.986264    3.600100   -0.433786
 ---------------------------------------------------------------------
 Rotational constants (GHZ):      0.2622687      0.1215037      0.0846640
 Standard basis: 6-311+G(d) (5D, 7F)
 There are   588 symmetry adapted cartesian basis functions of A   symmetry.
 There are   565 symmetry adapted basis functions of A   symmetry.
   565 basis functions,   930 primitive gaussians,   588 cartesian basis functions
    92 alpha electrons       92 beta electrons
       nuclear repulsion energy      2093.2559797197 Hartrees.
 NAtoms=   40 NActive=   40 NUniq=   40 SFac= 1.00D+00 NAtFMM=   60 NAOKFM=F Big=F
 Integral buffers will be    131072 words long.
 Raffenetti 2 integral format.
 Two-electron integral symmetry is turned on.
 Nuclear repulsion after empirical dispersion term =     2093.2534984546 Hartrees.
 ------------------------------------------------------------------------------
 Polarizable Continuum Model (PCM)
 =================================
 Model                : PCM (using non-symmetric T matrix).
 Atomic radii         : SMD-Coulomb.
 Polarization charges : Total charges.
 Charge compensation  : None.
 Solution method      : On-the-fly selection.
 Cavity type          : VdW (van der Waals Surface) (Alpha=1.000).
 Cavity algorithm     : GePol (No added spheres)
                        Default sphere list used, NSphG=   40.
                        Lebedev-Laikov grids with approx.  5.0 points / Ang**2.
                        Smoothing algorithm: York/Karplus (Gamma=1.0000).
                        Polarization charges: spherical gaussians, with
                                              point-specific exponents (IZeta= 3).
                        Self-potential: point-specific (ISelfS= 7).
                        Self-field    : sphere-specific E.n sum rule (ISelfD= 2).
 1st derivatives      : Analytical E(r).r(x)/FMM algorithm (CHGder, D1EAlg=3).
                        Cavity 1st derivative terms included.
 Solvent              : n-Pentadecane, Eps=   2.033300 Eps(inf)=   2.049192
 ------------------------------------------------------------------------------
 ------------------------------------------------------------------------------
 Atomic radii for non-electrostatic terms: SMD-CDS.
 ------------------------------------------------------------------------------
 Nuclear repulsion after PCM non-electrostatic terms =     2093.2439196104 Hartrees.
 One-electron integrals computed using PRISM.
 NBasis=   565 RedAO= T EigKep=  1.09D-06  NBF=   565
 NBsUse=   563 1.00D-06 EigRej=  4.92D-07 NBFU=   563
 ExpMin= 4.38D-02 ExpMax= 1.06D+05 ExpMxC= 3.62D+03 IAcc=3 IRadAn=         5 AccDes= 0.00D+00
 Harris functional with IExCor= 1009 and IRadAn=       5 diagonalized for initial guess.
 HarFok:  IExCor= 1009 AccDes= 0.00D+00 IRadAn=         5 IDoV= 1 UseB2=F ITyADJ=14
 ICtDFT=  3500011 ScaDFX=  1.000000  1.000000  1.000000  1.000000
 FoFCou: FMM=F IPFlag=           0 FMFlag=      100000 FMFlg1=           0
         NFxFlg=           0 DoJE=T BraDBF=F KetDBF=T FulRan=T
         wScrn=  0.000000 ICntrl=     500 IOpCl=  0 I1Cent=   200000004 NGrid=           0
         NMat0=    1 NMatS0=      1 NMatT0=    0 NMatD0=    1 NMtDS0=    0 NMtDT0=    0
 Petite list used in FoFCou.
 Requested convergence on RMS density matrix=1.00D-08 within 128 cycles.
 Requested convergence on MAX density matrix=1.00D-06.
 Requested convergence on             energy=1.00D-06.
 No special actions if energy rises.
 Inv3:  Mode=1 IEnd=    30394467.
 Iteration    1 A*A^-1 deviation from unit magnitude is 7.55D-15 for   3172.
 Iteration    1 A*A^-1 deviation from orthogonality  is 2.76D-15 for   1591    789.
 Iteration    1 A^-1*A deviation from unit magnitude is 7.22D-15 for   3172.
 Iteration    1 A^-1*A deviation from orthogonality  is 1.43D-14 for   2795   1211.
 Error on total polarization charges =  0.02349
 SCF Done:  E(RM062X) =  -1638.71852308     A.U. after   16 cycles
            NFock= 16  Conv=0.44D-08     -V/T= 2.0030
 SMD-CDS (non-electrostatic) energy       (kcal/mol) =      -6.01
 (included in total energy above)

 **********************************************************************

            Population analysis using the SCF density.

 **********************************************************************

 Orbital symmetries:
       Occupied  (A) (A) (A) (A) (A) (A) (A) (A) (A) (A) (A) (A)
                 (A) (A) (A) (A) (A) (A) (A) (A) (A) (A) (A) (A)
                 (A) (A) (A) (A) (A) (A) (A) (A) (A) (A) (A) (A)
                 (A) (A) (A) (A) (A) (A) (A) (A) (A) (A) (A) (A)
                 (A) (A) (A) (A) (A) (A) (A) (A) (A) (A) (A) (A)
                 (A) (A) (A) (A) (A) (A) (A) (A) (A) (A) (A) (A)
                 (A) (A) (A) (A) (A) (A) (A) (A) (A) (A) (A) (A)
                 (A) (A) (A) (A) (A) (A) (A) (A)
       Virtual   (A) (A) (A) (A) (A) (A) (A) (A) (A) (A) (A) (A)
                 (A) (A) (A) (A) (A) (A) (A) (A) (A) (A) (A) (A)
                 (A) (A) (A) (A) (A) (A) (A) (A) (A) (A) (A) (A)
                 (A) (A) (A) (A) (A) (A) (A) (A) (A) (A) (A) (A)
                 (A) (A) (A) (A) (A) (A) (A) (A) (A) (A) (A) (A)
                 (A) (A) (A) (A) (A) (A) (A) (A) (A) (A) (A) (A)
                 (A) (A) (A) (A) (A) (A) (A) (A) (A) (A) (A) (A)
                 (A) (A) (A) (A) (A) (A) (A) (A) (A) (A) (A) (A)
                 (A) (A) (A) (A) (A) (A) (A) (A) (A) (A) (A) (A)
                 (A) (A) (A) (A) (A) (A) (A) (A) (A) (A) (A) (A)
                 (A) (A) (A) (A) (A) (A) (A) (A) (A) (A) (A) (A)
                 (A) (A) (A) (A) (A) (A) (A) (A) (A) (A) (A) (A)
                 (A) (A) (A) (A) (A) (A) (A) (A) (A) (A) (A) (A)
                 (A) (A) (A) (A) (A) (A) (A) (A) (A) (A) (A) (A)
                 (A) (A) (A) (A) (A) (A) (A) (A) (A) (A) (A) (A)
                 (A) (A) (A) (A) (A) (A) (A) (A) (A) (A) (A) (A)
                 (A) (A) (A) (A) (A) (A) (A) (A) (A) (A) (A) (A)
                 (A) (A) (A) (A) (A) (A) (A) (A) (A) (A) (A) (A)
                 (A) (A) (A) (A) (A) (A) (A) (A) (A) (A) (A) (A)
                 (A) (A) (A) (A) (A) (A) (A) (A) (A) (A) (A) (A)
                 (A) (A) (A) (A) (A) (A) (A) (A) (A) (A) (A) (A)
                 (A) (A) (A) (A) (A) (A) (A) (A) (A) (A) (A) (A)
                 (A) (A) (A) (A) (A) (A) (A) (A) (A) (A) (A) (A)
                 (A) (A) (A) (A) (A) (A) (A) (A) (A) (A) (A) (A)
                 (A) (A) (A) (A) (A) (A) (A) (A) (A) (A) (A) (A)
                 (A) (A) (A) (A) (A) (A) (A) (A) (A) (A) (A) (A)
                 (A) (A) (A) (A) (A) (A) (A) (A) (A) (A) (A) (A)
                 (A) (A) (A) (A) (A) (A) (A) (A) (A) (A) (A) (A)
                 (A) (A) (A) (A) (A) (A) (A) (A) (A) (A) (A) (A)
                 (A) (A) (A) (A) (A) (A) (A) (A) (A) (A) (A) (A)
                 (A) (A) (A) (A) (A) (A) (A) (A) (A) (A) (A) (A)
                 (A) (A) (A) (A) (A) (A) (A) (A) (A) (A) (A) (A)
                 (A) (A) (A) (A) (A) (A) (A) (A) (A) (A) (A) (A)
                 (A) (A) (A) (A) (A) (A) (A) (A) (A) (A) (A) (A)
                 (A) (A) (A) (A) (A) (A) (A) (A) (A) (A) (A) (A)
                 (A) (A) (A) (A) (A) (A) (A) (A) (A) (A) (A) (A)
                 (A) (A) (A) (A) (A) (A) (A) (A) (A) (A) (A) (A)
                 (A) (A) (A) (A) (A) (A) (A) (A) (A) (A) (A) (A)
                 (A) (A) (A) (A) (A) (A) (A) (A) (A) (A) (A) (A)
                 (A) (A) (A)
 The electronic state is 1-A.
 Alpha  occ. eigenvalues -- -102.63547 -25.23782 -25.23629 -25.23389 -19.52279
 Alpha  occ. eigenvalues --  -19.49982 -19.49738 -14.70641 -14.68718 -10.76073
 Alpha  occ. eigenvalues --  -10.60631 -10.56814 -10.56116 -10.55477 -10.53103
 Alpha  occ. eigenvalues --  -10.51279 -10.50929 -10.50560 -10.50174 -10.48069
 Alpha  occ. eigenvalues --  -10.48030 -10.46706 -10.46414  -9.77821  -7.50321
 Alpha  occ. eigenvalues --   -7.49669  -7.49659  -1.42948  -1.33679  -1.33176
 Alpha  occ. eigenvalues --   -1.11100  -1.09037  -0.99743  -0.99086  -0.96532
 Alpha  occ. eigenvalues --   -0.94817  -0.90327  -0.83981  -0.82397  -0.80006
 Alpha  occ. eigenvalues --   -0.79190  -0.76666  -0.72835  -0.69065  -0.66842
 Alpha  occ. eigenvalues --   -0.66399  -0.65286  -0.64511  -0.62907  -0.62308
 Alpha  occ. eigenvalues --   -0.58762  -0.56697  -0.54268  -0.53662  -0.53415
 Alpha  occ. eigenvalues --   -0.53039  -0.51390  -0.50096  -0.49767  -0.49228
 Alpha  occ. eigenvalues --   -0.48208  -0.47918  -0.47307  -0.46716  -0.46333
 Alpha  occ. eigenvalues --   -0.46192  -0.45635  -0.44758  -0.43760  -0.43243
 Alpha  occ. eigenvalues --   -0.43098  -0.41615  -0.40557  -0.40383  -0.39605
 Alpha  occ. eigenvalues --   -0.38715  -0.37995  -0.37321  -0.37016  -0.35947
 Alpha  occ. eigenvalues --   -0.35149  -0.34402  -0.34037  -0.33839  -0.32295
 Alpha  occ. eigenvalues --   -0.28602  -0.26928  -0.25836  -0.25315  -0.24920
 Alpha  occ. eigenvalues --   -0.24745  -0.21407
 Alpha virt. eigenvalues --    0.04571   0.05537   0.05795   0.05933   0.06553
 Alpha virt. eigenvalues --    0.07033   0.07594   0.07857   0.08158   0.08416
 Alpha virt. eigenvalues --    0.08990   0.09265   0.09638   0.09868   0.10217
 Alpha virt. eigenvalues --    0.10661   0.10848   0.11389   0.11755   0.12081
 Alpha virt. eigenvalues --    0.12296   0.12709   0.13195   0.13334   0.14032
 Alpha virt. eigenvalues --    0.14415   0.14740   0.14929   0.15227   0.15844
 Alpha virt. eigenvalues --    0.16011   0.16275   0.16607   0.17107   0.17379
 Alpha virt. eigenvalues --    0.17522   0.17935   0.18198   0.18946   0.19472
 Alpha virt. eigenvalues --    0.19689   0.20209   0.20542   0.21058   0.21688
 Alpha virt. eigenvalues --    0.22208   0.22873   0.23098   0.23312   0.23430
 Alpha virt. eigenvalues --    0.24242   0.24589   0.24853   0.25133   0.25699
 Alpha virt. eigenvalues --    0.25960   0.26268   0.26606   0.26926   0.27200
 Alpha virt. eigenvalues --    0.27269   0.27780   0.28209   0.28368   0.28732
 Alpha virt. eigenvalues --    0.28912   0.29259   0.29470   0.30009   0.30228
 Alpha virt. eigenvalues --    0.30787   0.30965   0.31014   0.31341   0.31555
 Alpha virt. eigenvalues --    0.31969   0.32394   0.32468   0.32998   0.33366
 Alpha virt. eigenvalues --    0.33636   0.33771   0.34129   0.34598   0.34809
 Alpha virt. eigenvalues --    0.35009   0.35418   0.35828   0.36043   0.36358
 Alpha virt. eigenvalues --    0.37044   0.37235   0.37460   0.38006   0.38413
 Alpha virt. eigenvalues --    0.38774   0.39160   0.39459   0.39716   0.40191
 Alpha virt. eigenvalues --    0.40593   0.41035   0.41747   0.41975   0.42592
 Alpha virt. eigenvalues --    0.43098   0.43135   0.43755   0.44186   0.44473
 Alpha virt. eigenvalues --    0.44831   0.44979   0.45497   0.46331   0.47192
 Alpha virt. eigenvalues --    0.47974   0.48195   0.48455   0.49258   0.49571
 Alpha virt. eigenvalues --    0.49738   0.50882   0.51339   0.51772   0.53026
 Alpha virt. eigenvalues --    0.53124   0.53442   0.53797   0.54798   0.55528
 Alpha virt. eigenvalues --    0.55843   0.56012   0.56888   0.58217   0.58240
 Alpha virt. eigenvalues --    0.58868   0.60115   0.60764   0.61123   0.61810
 Alpha virt. eigenvalues --    0.62458   0.62683   0.63291   0.63848   0.65072
 Alpha virt. eigenvalues --    0.65192   0.66540   0.67005   0.67584   0.68960
 Alpha virt. eigenvalues --    0.69457   0.70388   0.71076   0.71686   0.71914
 Alpha virt. eigenvalues --    0.72155   0.73136   0.73549   0.73984   0.74787
 Alpha virt. eigenvalues --    0.75060   0.75412   0.76139   0.76386   0.77205
 Alpha virt. eigenvalues --    0.77515   0.77980   0.78837   0.78988   0.79694
 Alpha virt. eigenvalues --    0.79836   0.80326   0.81227   0.81731   0.82822
 Alpha virt. eigenvalues --    0.83264   0.83997   0.84418   0.84743   0.84929
 Alpha virt. eigenvalues --    0.85274   0.85837   0.86399   0.87485   0.88446
 Alpha virt. eigenvalues --    0.89110   0.89611   0.93522   0.94126   0.94940
 Alpha virt. eigenvalues --    0.95818   0.96119   0.97840   0.98150   0.98186
 Alpha virt. eigenvalues --    0.99641   1.00483   1.02039   1.03150   1.03816
 Alpha virt. eigenvalues --    1.04139   1.04791   1.05481   1.06802   1.07776
 Alpha virt. eigenvalues --    1.08180   1.09525   1.10490   1.11726   1.12602
 Alpha virt. eigenvalues --    1.13216   1.14486   1.15244   1.15858   1.17426
 Alpha virt. eigenvalues --    1.19689   1.20926   1.21963   1.23002   1.23563
 Alpha virt. eigenvalues --    1.24788   1.25362   1.27661   1.28344   1.29672
 Alpha virt. eigenvalues --    1.29826   1.30766   1.31670   1.32240   1.33473
 Alpha virt. eigenvalues --    1.33821   1.34755   1.36546   1.37772   1.39501
 Alpha virt. eigenvalues --    1.39901   1.40977   1.42550   1.43680   1.45164
 Alpha virt. eigenvalues --    1.46616   1.47832   1.50095   1.50867   1.51106
 Alpha virt. eigenvalues --    1.51585   1.52100   1.52138   1.53556   1.55241
 Alpha virt. eigenvalues --    1.56014   1.56948   1.58438   1.58650   1.59055
 Alpha virt. eigenvalues --    1.59302   1.60904   1.62716   1.62998   1.64358
 Alpha virt. eigenvalues --    1.64747   1.65667   1.66383   1.67494   1.67746
 Alpha virt. eigenvalues --    1.68127   1.69227   1.70361   1.71074   1.71986
 Alpha virt. eigenvalues --    1.74302   1.74957   1.76826   1.78570   1.80700
 Alpha virt. eigenvalues --    1.80846   1.83467   1.83958   1.84116   1.84642
 Alpha virt. eigenvalues --    1.85298   1.86518   1.87028   1.88117   1.89123
 Alpha virt. eigenvalues --    1.89993   1.91785   1.92274   1.93950   1.95482
 Alpha virt. eigenvalues --    1.96375   1.96611   2.00238   2.00487   2.01336
 Alpha virt. eigenvalues --    2.03551   2.04120   2.05135   2.06941   2.09001
 Alpha virt. eigenvalues --    2.10848   2.11901   2.14009   2.15940   2.17718
 Alpha virt. eigenvalues --    2.19407   2.22135   2.22769   2.24437   2.25354
 Alpha virt. eigenvalues --    2.27360   2.30910   2.32993   2.34822   2.36306
 Alpha virt. eigenvalues --    2.38088   2.40166   2.40476   2.42460   2.44835
 Alpha virt. eigenvalues --    2.46426   2.52748   2.53413   2.54683   2.59366
 Alpha virt. eigenvalues --    2.59777   2.60153   2.60850   2.61517   2.63293
 Alpha virt. eigenvalues --    2.64582   2.64931   2.66224   2.67962   2.68408
 Alpha virt. eigenvalues --    2.70448   2.72496   2.72974   2.74065   2.76723
 Alpha virt. eigenvalues --    2.76981   2.83044   2.83163   2.84744   2.87491
 Alpha virt. eigenvalues --    2.89967   2.91804   2.93269   2.97602   2.98308
 Alpha virt. eigenvalues --    2.98512   3.01203   3.03231   3.03795   3.05519
 Alpha virt. eigenvalues --    3.06788   3.07366   3.08450   3.09277   3.10080
 Alpha virt. eigenvalues --    3.12219   3.12938   3.15246   3.17465   3.17918
 Alpha virt. eigenvalues --    3.20128   3.22035   3.23986   3.26747   3.29718
 Alpha virt. eigenvalues --    3.31310   3.32143   3.32731   3.33695   3.36043
 Alpha virt. eigenvalues --    3.38887   3.39372   3.42606   3.43604   3.44860
 Alpha virt. eigenvalues --    3.47040   3.48542   3.49625   3.49972   3.50338
 Alpha virt. eigenvalues --    3.53240   3.54494   3.57263   3.66766   3.70631
 Alpha virt. eigenvalues --    3.72837   3.78528   3.79323   3.81689   3.84713
 Alpha virt. eigenvalues --    3.84990   3.86527   3.88541   3.88861   3.90490
 Alpha virt. eigenvalues --    3.91092   3.91790   3.92832   3.96038   4.03140
 Alpha virt. eigenvalues --    4.04948   4.07292   4.07408   4.08230   4.12638
 Alpha virt. eigenvalues --    4.13777   4.14139   4.17735   4.26718   4.28095
 Alpha virt. eigenvalues --    4.29922   4.31644   4.34942   4.71085   4.76173
 Alpha virt. eigenvalues --    4.81511   4.86292   5.00182   5.02328   5.06485
 Alpha virt. eigenvalues --    5.25559   5.27674   5.28435   5.30923   5.47929
 Alpha virt. eigenvalues --    5.50624   5.52436   5.84635   5.98328   6.10862
 Alpha virt. eigenvalues --    6.49968   6.53504   6.55428   6.57287   6.58028
 Alpha virt. eigenvalues --    6.61701   6.66805   6.90439   6.95603  10.01528
 Alpha virt. eigenvalues --   23.52261  23.65323  23.68886  23.70530  23.81442
 Alpha virt. eigenvalues --   23.86982  23.87677  23.97491  24.01812  24.04369
 Alpha virt. eigenvalues --   24.05013  24.14196  24.18251  24.25593  25.98264
 Alpha virt. eigenvalues --   26.29592  26.76412  35.71487  35.81394  50.15640
 Alpha virt. eigenvalues --   50.23082  50.24181  66.93093  66.95734  67.00906
 Alpha virt. eigenvalues --  216.11726
          Condensed to atoms (all electrons):
               1          2          3          4          5          6
     1  C   40.257930  -0.157737  -0.500943  -0.424483  -0.281509  -0.773009
     2  N   -0.157737   8.334142   0.237033  -0.068445  -0.655662  -0.680498
     3  C   -0.500943   0.237033   9.822891   0.742088   0.215580  -1.635042
     4  O   -0.424483  -0.068445   0.742088   8.136101  -0.197451  -0.132976
     5  N   -0.281509  -0.655662   0.215580  -0.197451   8.112703   0.713586
     6  C   -0.773009  -0.680498  -1.635042  -0.132976   0.713586   9.323450
     7  C    0.006594   0.068025   0.459934   0.023245  -0.082507  -1.156063
     8  C   -0.019474  -0.024023  -0.345161  -0.001777  -0.035684   0.549728
     9  C   -4.482011   0.553856  -1.843641  -0.195204  -0.643306  -0.623615
    10  C   -7.919120   0.334583  -2.043382  -0.023801  -0.141550  -0.241944
    11  C  -13.743506  -0.046945   0.075917  -0.051807  -0.020252   0.011232
    12  C   -3.143138  -0.071523   0.660476   0.201292   0.188894   0.182578
    13  C    2.253077  -0.356938   0.275553   0.417818   0.265391   0.185719
    14  H   -0.141142   0.080674  -0.021521  -0.004402   0.012918   0.029665
    15  H   -0.022238   0.025436  -0.031928  -0.007319   0.109844   0.026299
    16  H    0.003075   0.014466   0.069032   0.005159  -0.080295   0.328321
    17  H    0.017885   0.003665   0.055782  -0.003953  -0.062676   0.400269
    18  H   -0.004566  -0.000860  -0.019885  -0.000247   0.006693  -0.059486
    19  H    0.005277  -0.000135   0.029298  -0.000278   0.006355  -0.077284
    20  H    0.000324   0.000043   0.008506  -0.000018   0.000627  -0.026750
    21  H    0.000117  -0.000012   0.004701   0.000014  -0.001807   0.075972
    22  H   -0.000429  -0.000040  -0.009523  -0.000069   0.000557  -0.051984
    23  H    0.162523  -0.032042   0.002181   0.000003  -0.000551  -0.000038
    24  Cl  -0.074315  -0.001452   0.036801   0.000404   0.002985   0.004953
    25  H    0.015852  -0.032022   0.130948   0.004631   0.008370   0.015536
    26  C   -4.293195   0.018765  -0.354354  -0.003731  -0.010401  -0.017964
    27  H    0.028595   0.000697   0.000923   0.000010  -0.000002   0.000004
    28  F    0.036753   0.000702  -0.000757   0.000002   0.000010  -0.000004
    29  F   -0.012027   0.000787  -0.001499  -0.000000   0.000004  -0.000011
    30  F    0.262351   0.001753   0.000565   0.000002  -0.000007  -0.000009
    31  O   -0.165997   0.025248  -0.004880  -0.000596  -0.049005  -0.011776
    32  O    0.031245  -0.047816  -0.060708   0.000292  -0.000773   0.080690
    33  C    0.286789   0.000250   0.022627  -0.001605   0.032686   0.005552
    34  C   -0.211671  -0.049643  -0.075209  -0.001284  -0.071090   0.065464
    35  C   -0.008108   0.003332   0.005456   0.000058   0.010759  -0.016370
    36  H    0.001580   0.000223  -0.000359  -0.000000   0.000251   0.000188
    37  H    0.002485   0.000432   0.000727   0.000001  -0.000065  -0.000481
    38  H    0.000137  -0.000030  -0.000156   0.000000   0.000221  -0.000197
    39  H    0.000172   0.000014   0.000185   0.000000  -0.000079  -0.000075
    40  H    0.000141  -0.000002  -0.000466  -0.000000   0.000116   0.000947
               7          8          9         10         11         12
     1  C    0.006594  -0.019474  -4.482011  -7.919120 -13.743506  -3.143138
     2  N    0.068025  -0.024023   0.553856   0.334583  -0.046945  -0.071523
     3  C    0.459934  -0.345161  -1.843641  -2.043382   0.075917   0.660476
     4  O    0.023245  -0.001777  -0.195204  -0.023801  -0.051807   0.201292
     5  N   -0.082507  -0.035684  -0.643306  -0.141550  -0.020252   0.188894
     6  C   -1.156063   0.549728  -0.623615  -0.241944   0.011232   0.182578
     7  C    6.659782  -0.541170   0.048864   0.007372   0.000085  -0.013378
     8  C   -0.541170   6.548939  -0.016118  -0.003045   0.000200   0.002845
     9  C    0.048864  -0.016118  21.436193   5.106299   0.313425  -6.421749
    10  C    0.007372  -0.003045   5.106299  28.960309 -14.883195   2.855089
    11  C    0.000085   0.000200   0.313425 -14.883195  59.845520 -20.600510
    12  C   -0.013378   0.002845  -6.421749   2.855089 -20.600510  30.616518
    13  C   -0.022262   0.002232  -5.645694  -1.522498 -10.615018   4.942740
    14  H   -0.006712   0.000333   0.016877  -0.012631   0.015786   0.015702
    15  H   -0.041638   0.010869   0.014592  -0.003997   0.001290  -0.005406
    16  H    0.011422  -0.011496   0.004687  -0.000056   0.000281  -0.001236
    17  H   -0.065377  -0.026898   0.001894   0.000717  -0.000097  -0.000318
    18  H    0.463880  -0.058932   0.000540  -0.000086   0.000018  -0.000004
    19  H    0.439716  -0.072618   0.000671   0.000165  -0.000012  -0.000080
    20  H    0.042580   0.320693   0.000022   0.000004  -0.000001  -0.000006
    21  H   -0.133955   0.405564  -0.000015   0.000001  -0.000000   0.000001
    22  H    0.000636   0.404289   0.000038  -0.000003   0.000001  -0.000002
    23  H    0.000023   0.000009   0.255974  -0.172167   0.007675   0.001366
    24  Cl  -0.000232   0.000027   0.045186  -0.272406   0.304554  -1.121180
    25  H   -0.000589   0.000149  -0.058891  -0.064534   0.128926  -0.074072
    26  C    0.000353  -0.000130  -1.613758  -3.421244   5.835476  -3.530116
    27  H    0.000000  -0.000000  -0.035762   0.154640  -0.121039   0.216015
    28  F    0.000000  -0.000000   0.106840   0.044573  -0.367993   0.159533
    29  F   -0.000000  -0.000000   0.008551   0.331771  -0.280406   0.014252
    30  F    0.000001  -0.000000   0.158181  -0.321508  -0.108579   0.079339
    31  O   -0.002224  -0.000067   0.212925   0.020975  -0.019914   0.006259
    32  O   -0.020655   0.008497  -0.028578  -0.004198  -0.001503   0.000440
    33  C    0.007402  -0.010908  -0.181720  -0.120076   0.017863  -0.018335
    34  C   -0.035337   0.007638   0.187859   0.081974   0.010455  -0.017202
    35  C    0.010670  -0.003984   0.003020   0.005897   0.001372   0.000109
    36  H   -0.000286  -0.000025   0.000062  -0.000782  -0.000178   0.000026
    37  H    0.000581   0.000028  -0.002099  -0.001218  -0.000068   0.000020
    38  H    0.000450   0.000169  -0.000113  -0.000051  -0.000006   0.000000
    39  H   -0.000026  -0.000003  -0.000197  -0.000032   0.000000   0.000001
    40  H   -0.000635  -0.000078   0.000006  -0.000018  -0.000004   0.000000
              13         14         15         16         17         18
     1  C    2.253077  -0.141142  -0.022238   0.003075   0.017885  -0.004566
     2  N   -0.356938   0.080674   0.025436   0.014466   0.003665  -0.000860
     3  C    0.275553  -0.021521  -0.031928   0.069032   0.055782  -0.019885
     4  O    0.417818  -0.004402  -0.007319   0.005159  -0.003953  -0.000247
     5  N    0.265391   0.012918   0.109844  -0.080295  -0.062676   0.006693
     6  C    0.185719   0.029665   0.026299   0.328321   0.400269  -0.059486
     7  C   -0.022262  -0.006712  -0.041638   0.011422  -0.065377   0.463880
     8  C    0.002232   0.000333   0.010869  -0.011496  -0.026898  -0.058932
     9  C   -5.645694   0.016877   0.014592   0.004687   0.001894   0.000540
    10  C   -1.522498  -0.012631  -0.003997  -0.000056   0.000717  -0.000086
    11  C  -10.615018   0.015786   0.001290   0.000281  -0.000097   0.000018
    12  C    4.942740   0.015702  -0.005406  -0.001236  -0.000318  -0.000004
    13  C   16.570270   0.055198  -0.024465  -0.009076  -0.001224  -0.000503
    14  H    0.055198   0.317528   0.029423  -0.000146  -0.000004   0.000048
    15  H   -0.024465   0.029423   0.335757   0.002590   0.001060   0.006942
    16  H   -0.009076  -0.000146   0.002590   0.476287  -0.049059   0.005429
    17  H   -0.001224  -0.000004   0.001060  -0.049059   0.476179  -0.008563
    18  H   -0.000503   0.000048   0.006942   0.005429  -0.008563   0.435644
    19  H   -0.000678   0.000061   0.000152  -0.009565   0.006528  -0.036548
    20  H   -0.000025   0.000000  -0.000073  -0.000521   0.003516  -0.008015
    21  H    0.000030   0.000000  -0.000068  -0.000262  -0.000117  -0.003644
    22  H   -0.000059  -0.000000   0.000048   0.003306  -0.000881   0.006636
    23  H    0.025708   0.012498  -0.000046  -0.000000  -0.000000  -0.000001
    24  Cl   0.346843   0.000648  -0.000051  -0.000012   0.000003   0.000000
    25  H    0.257429  -0.000459   0.000056  -0.000015  -0.000027  -0.000000
    26  C   -0.602588   0.006631  -0.000421  -0.000007   0.000022  -0.000005
    27  H    0.049230  -0.000005   0.000000  -0.000000   0.000000  -0.000000
    28  F    0.024674   0.000000  -0.000000   0.000000  -0.000000   0.000000
    29  F    0.005683   0.000015   0.000000   0.000000   0.000000   0.000000
    30  F    0.006424  -0.000224  -0.000001  -0.000000   0.000000   0.000000
    31  O   -0.003876   0.081007   0.012752   0.000003  -0.000027   0.000000
    32  O   -0.006993   0.012340   0.074098  -0.001183   0.000664  -0.005438
    33  C   -0.040454  -0.019058  -0.008796  -0.001113   0.000829   0.003921
    34  C   -0.064796   0.048497   0.050161  -0.000638   0.000306  -0.001520
    35  C   -0.000475  -0.003399  -0.006116   0.000108  -0.000014   0.002135
    36  H    0.000192  -0.000400  -0.000103   0.000000  -0.000000   0.000004
    37  H    0.000334  -0.000262  -0.000022   0.000000   0.000000   0.000002
    38  H    0.000009  -0.000012  -0.000297  -0.000000   0.000001  -0.000056
    39  H    0.000019  -0.000001   0.000052  -0.000000   0.000000  -0.000002
    40  H   -0.000006  -0.000021  -0.000328  -0.000000  -0.000000  -0.000039
              19         20         21         22         23         24
     1  C    0.005277   0.000324   0.000117  -0.000429   0.162523  -0.074315
     2  N   -0.000135   0.000043  -0.000012  -0.000040  -0.032042  -0.001452
     3  C    0.029298   0.008506   0.004701  -0.009523   0.002181   0.036801
     4  O   -0.000278  -0.000018   0.000014  -0.000069   0.000003   0.000404
     5  N    0.006355   0.000627  -0.001807   0.000557  -0.000551   0.002985
     6  C   -0.077284  -0.026750   0.075972  -0.051984  -0.000038   0.004953
     7  C    0.439716   0.042580  -0.133955   0.000636   0.000023  -0.000232
     8  C   -0.072618   0.320693   0.405564   0.404289   0.000009   0.000027
     9  C    0.000671   0.000022  -0.000015   0.000038   0.255974   0.045186
    10  C    0.000165   0.000004   0.000001  -0.000003  -0.172167  -0.272406
    11  C   -0.000012  -0.000001  -0.000000   0.000001   0.007675   0.304554
    12  C   -0.000080  -0.000006   0.000001  -0.000002   0.001366  -1.121180
    13  C   -0.000678  -0.000025   0.000030  -0.000059   0.025708   0.346843
    14  H    0.000061   0.000000   0.000000  -0.000000   0.012498   0.000648
    15  H    0.000152  -0.000073  -0.000068   0.000048  -0.000046  -0.000051
    16  H   -0.009565  -0.000521  -0.000262   0.003306  -0.000000  -0.000012
    17  H    0.006528   0.003516  -0.000117  -0.000881  -0.000000   0.000003
    18  H   -0.036548  -0.008015  -0.003644   0.006636  -0.000001   0.000000
    19  H    0.445426   0.006564  -0.004007  -0.008505  -0.000000   0.000000
    20  H    0.006564   0.460433  -0.026835  -0.037984   0.000000   0.000000
    21  H   -0.004007  -0.026835   0.447127  -0.026231   0.000000   0.000000
    22  H   -0.008505  -0.037984  -0.026231   0.465903  -0.000000  -0.000000
    23  H   -0.000000   0.000000   0.000000  -0.000000   0.321116   0.000714
    24  Cl   0.000000   0.000000   0.000000  -0.000000   0.000714  17.575684
    25  H    0.000000   0.000000   0.000000  -0.000000   0.000027  -0.016248
    26  C    0.000005   0.000000   0.000000  -0.000000   0.011131  -0.182250
    27  H    0.000000   0.000000   0.000000  -0.000000  -0.000274  -0.023832
    28  F   -0.000000   0.000000   0.000000   0.000000   0.000106  -0.000485
    29  F    0.000000  -0.000000  -0.000000   0.000000  -0.000611  -0.000645
    30  F    0.000000   0.000000  -0.000000   0.000000   0.007847  -0.000320
    31  O   -0.000077   0.000001   0.000000  -0.000002   0.009299   0.000025
    32  O   -0.000893   0.000119   0.000061  -0.000110   0.001076   0.000002
    33  C    0.000966   0.000245  -0.000094  -0.000038   0.009179  -0.000494
    34  C    0.001507   0.000020   0.000106  -0.000047  -0.002767  -0.000108
    35  C    0.000048   0.000004  -0.000052   0.000025   0.000350   0.000004
    36  H    0.000001   0.000000  -0.000000   0.000000  -0.000144  -0.000000
    37  H   -0.000002   0.000000  -0.000000   0.000000   0.000027  -0.000000
    38  H   -0.000005  -0.000000   0.000000  -0.000000   0.000001  -0.000000
    39  H    0.000000  -0.000000   0.000000  -0.000000  -0.000001   0.000000
    40  H    0.000004   0.000000   0.000001  -0.000000  -0.000001  -0.000000
              25         26         27         28         29         30
     1  C    0.015852  -4.293195   0.028595   0.036753  -0.012027   0.262351
     2  N   -0.032022   0.018765   0.000697   0.000702   0.000787   0.001753
     3  C    0.130948  -0.354354   0.000923  -0.000757  -0.001499   0.000565
     4  O    0.004631  -0.003731   0.000010   0.000002  -0.000000   0.000002
     5  N    0.008370  -0.010401  -0.000002   0.000010   0.000004  -0.000007
     6  C    0.015536  -0.017964   0.000004  -0.000004  -0.000011  -0.000009
     7  C   -0.000589   0.000353   0.000000   0.000000  -0.000000   0.000001
     8  C    0.000149  -0.000130  -0.000000  -0.000000  -0.000000  -0.000000
     9  C   -0.058891  -1.613758  -0.035762   0.106840   0.008551   0.158181
    10  C   -0.064534  -3.421244   0.154640   0.044573   0.331771  -0.321508
    11  C    0.128926   5.835476  -0.121039  -0.367993  -0.280406  -0.108579
    12  C   -0.074072  -3.530116   0.216015   0.159533   0.014252   0.079339
    13  C    0.257429  -0.602588   0.049230   0.024674   0.005683   0.006424
    14  H   -0.000459   0.006631  -0.000005   0.000000   0.000015  -0.000224
    15  H    0.000056  -0.000421   0.000000  -0.000000   0.000000  -0.000001
    16  H   -0.000015  -0.000007  -0.000000   0.000000   0.000000  -0.000000
    17  H   -0.000027   0.000022   0.000000  -0.000000   0.000000   0.000000
    18  H   -0.000000  -0.000005  -0.000000   0.000000   0.000000   0.000000
    19  H    0.000000   0.000005   0.000000  -0.000000   0.000000   0.000000
    20  H    0.000000   0.000000   0.000000   0.000000  -0.000000   0.000000
    21  H    0.000000   0.000000   0.000000   0.000000  -0.000000  -0.000000
    22  H   -0.000000  -0.000000  -0.000000   0.000000   0.000000   0.000000
    23  H    0.000027   0.011131  -0.000274   0.000106  -0.000611   0.007847
    24  Cl  -0.016248  -0.182250  -0.023832  -0.000485  -0.000645  -0.000320
    25  H    0.357075  -0.002658  -0.000327  -0.000006  -0.000000  -0.000008
    26  C   -0.002658  12.894250   0.036973   0.151668   0.108969   0.076225
    27  H   -0.000327   0.036973   0.392718   0.001986  -0.001321   0.000588
    28  F   -0.000006   0.151668   0.001986   9.014542  -0.052924  -0.023075
    29  F   -0.000000   0.108969  -0.001321  -0.052924   8.991095  -0.042110
    30  F   -0.000008   0.076225   0.000588  -0.023075  -0.042110   9.028230
    31  O    0.000061   0.003012   0.000000   0.000030   0.000019   0.000585
    32  O   -0.000000   0.000062   0.000000  -0.000000   0.000000  -0.000005
    33  C    0.000461  -0.030826  -0.000005   0.000159   0.000175   0.002292
    34  C    0.000040   0.014063   0.000001  -0.000062  -0.000009  -0.001579
    35  C   -0.000001  -0.000808  -0.000000  -0.000001   0.000001  -0.000055
    36  H    0.000000   0.000263   0.000000   0.000000   0.000000   0.000006
    37  H    0.000000  -0.000115   0.000000   0.000000   0.000000   0.000000
    38  H    0.000000   0.000004   0.000000   0.000000   0.000000  -0.000000
    39  H   -0.000000  -0.000006  -0.000000   0.000000   0.000000  -0.000000
    40  H    0.000000   0.000005   0.000000   0.000000   0.000000   0.000000
              31         32         33         34         35         36
     1  C   -0.165997   0.031245   0.286789  -0.211671  -0.008108   0.001580
     2  N    0.025248  -0.047816   0.000250  -0.049643   0.003332   0.000223
     3  C   -0.004880  -0.060708   0.022627  -0.075209   0.005456  -0.000359
     4  O   -0.000596   0.000292  -0.001605  -0.001284   0.000058  -0.000000
     5  N   -0.049005  -0.000773   0.032686  -0.071090   0.010759   0.000251
     6  C   -0.011776   0.080690   0.005552   0.065464  -0.016370   0.000188
     7  C   -0.002224  -0.020655   0.007402  -0.035337   0.010670  -0.000286
     8  C   -0.000067   0.008497  -0.010908   0.007638  -0.003984  -0.000025
     9  C    0.212925  -0.028578  -0.181720   0.187859   0.003020   0.000062
    10  C    0.020975  -0.004198  -0.120076   0.081974   0.005897  -0.000782
    11  C   -0.019914  -0.001503   0.017863   0.010455   0.001372  -0.000178
    12  C    0.006259   0.000440  -0.018335  -0.017202   0.000109   0.000026
    13  C   -0.003876  -0.006993  -0.040454  -0.064796  -0.000475   0.000192
    14  H    0.081007   0.012340  -0.019058   0.048497  -0.003399  -0.000400
    15  H    0.012752   0.074098  -0.008796   0.050161  -0.006116  -0.000103
    16  H    0.000003  -0.001183  -0.001113  -0.000638   0.000108   0.000000
    17  H   -0.000027   0.000664   0.000829   0.000306  -0.000014  -0.000000
    18  H    0.000000  -0.005438   0.003921  -0.001520   0.002135   0.000004
    19  H   -0.000077  -0.000893   0.000966   0.001507   0.000048   0.000001
    20  H    0.000001   0.000119   0.000245   0.000020   0.000004   0.000000
    21  H    0.000000   0.000061  -0.000094   0.000106  -0.000052  -0.000000
    22  H   -0.000002  -0.000110  -0.000038  -0.000047   0.000025   0.000000
    23  H    0.009299   0.001076   0.009179  -0.002767   0.000350  -0.000144
    24  Cl   0.000025   0.000002  -0.000494  -0.000108   0.000004  -0.000000
    25  H    0.000061  -0.000000   0.000461   0.000040  -0.000001   0.000000
    26  C    0.003012   0.000062  -0.030826   0.014063  -0.000808   0.000263
    27  H    0.000000   0.000000  -0.000005   0.000001  -0.000000   0.000000
    28  F    0.000030  -0.000000   0.000159  -0.000062  -0.000001   0.000000
    29  F    0.000019   0.000000   0.000175  -0.000009   0.000001   0.000000
    30  F    0.000585  -0.000005   0.002292  -0.001579  -0.000055   0.000006
    31  O    8.470982  -0.137794   0.265331  -0.214534   0.021316  -0.004901
    32  O   -0.137794   8.322121   0.375840  -0.141276   0.006318   0.001325
    33  C    0.265331   0.375840   6.523227  -1.555074   0.374417  -0.025844
    34  C   -0.214534  -0.141276  -1.555074   8.110697  -0.560457   0.403362
    35  C    0.021316   0.006318   0.374417  -0.560457   6.085685  -0.042235
    36  H   -0.004901   0.001325  -0.025844   0.403362  -0.042235   0.452193
    37  H   -0.005097   0.000809  -0.008361   0.392501  -0.045561  -0.033726
    38  H    0.000124  -0.007848  -0.005655  -0.029161   0.391017  -0.007189
    39  H   -0.000710   0.004076   0.059851  -0.117284   0.402174  -0.003172
    40  H   -0.000399  -0.007844  -0.007647  -0.027909   0.391365   0.005908
              37         38         39         40
     1  C    0.002485   0.000137   0.000172   0.000141
     2  N    0.000432  -0.000030   0.000014  -0.000002
     3  C    0.000727  -0.000156   0.000185  -0.000466
     4  O    0.000001   0.000000   0.000000  -0.000000
     5  N   -0.000065   0.000221  -0.000079   0.000116
     6  C   -0.000481  -0.000197  -0.000075   0.000947
     7  C    0.000581   0.000450  -0.000026  -0.000635
     8  C    0.000028   0.000169  -0.000003  -0.000078
     9  C   -0.002099  -0.000113  -0.000197   0.000006
    10  C   -0.001218  -0.000051  -0.000032  -0.000018
    11  C   -0.000068  -0.000006   0.000000  -0.000004
    12  C    0.000020   0.000000   0.000001   0.000000
    13  C    0.000334   0.000009   0.000019  -0.000006
    14  H   -0.000262  -0.000012  -0.000001  -0.000021
    15  H   -0.000022  -0.000297   0.000052  -0.000328
    16  H    0.000000  -0.000000  -0.000000  -0.000000
    17  H    0.000000   0.000001   0.000000  -0.000000
    18  H    0.000002  -0.000056  -0.000002  -0.000039
    19  H   -0.000002  -0.000005   0.000000   0.000004
    20  H    0.000000  -0.000000  -0.000000   0.000000
    21  H   -0.000000   0.000000   0.000000   0.000001
    22  H    0.000000  -0.000000  -0.000000  -0.000000
    23  H    0.000027   0.000001  -0.000001  -0.000001
    24  Cl  -0.000000  -0.000000   0.000000  -0.000000
    25  H    0.000000   0.000000  -0.000000   0.000000
    26  C   -0.000115   0.000004  -0.000006   0.000005
    27  H    0.000000   0.000000  -0.000000   0.000000
    28  F    0.000000   0.000000   0.000000   0.000000
    29  F    0.000000   0.000000   0.000000   0.000000
    30  F    0.000000  -0.000000  -0.000000   0.000000
    31  O   -0.005097   0.000124  -0.000710  -0.000399
    32  O    0.000809  -0.007848   0.004076  -0.007844
    33  C   -0.008361  -0.005655   0.059851  -0.007647
[...]
 0.00000271,0.00000251,-0.00000363,-0.00000333,0.00000411,-0.00001140,0
 .00000276,-0.00000108,-0.00000850,-0.00000583,0.00000006,-0.00004285,-
 0.00001168,-0.00003268,0.00000226,0.,0.00000040,-0.00000951,0.00000594
 ,-0.00000287,0.00000167,-0.00007482,-0.00006039,0.00000041,-0.00000004
 ,-0.00000230,-0.00001073,0.00001510,0.00002008,0.00000865,0.00001669,0
 .00002785,-0.00000675,0.00003694,0.00001381,0.00202683,-0.00042306,0.0
 0349882,-0.00182604,-0.00638931,0.00368812,-0.02414811,-0.00149857,-0.
 02656904,-0.02623163,-0.05079446,-0.02938893,0.01448903,0.00182371,0.0
 1388679,0.02587188,0.05665465,-0.00017886,0.00007503,0.00000979,0.0001
 4634,-0.00008921,-0.00000481,-0.00017873,0.00009619,0.00000170,0.00003
 324,-0.00009156,-0.00000059,0.00006215,-0.00016887,0.00001484,0.000028
 56,0.00000549,-0.00001343,-0.00000273,0.00001390,-0.00000169,0.0000060
 3,-0.00000684,0.00000018,0.00005233,0.00001252,0.00000514,-0.00000367,
 0.00001863,-0.00000227,0.00003584,-0.00000124,0.00000043,-0.00002980,0
 .00000405,0.00000258,0.00004199,-0.00003709,-0.00000311,-0.00000389,0.
 00014474,-0.00000157,0.00002560,0.00022152,-0.00000837,-0.00000589,-0.
 00000824,-0.00000298,-0.00000235,-0.00000509,0.00000794,0.00001199,-0.
 00000152,-0.00001291,0.00000579,0.00000382,0.00001122,-0.00000323,-0.0
 0000178,0.00000476,-0.00000133,0.00000210,-0.00000083,-0.00000480,-0.0
 0000459,-0.00000299,-0.00003938,-0.00003830,-0.00002170,0.00000410,0.0
 0000402,0.00000011,-0.00000874,0.00000652,-0.00000062,-0.00000272,-0.0
 0022296,-0.00001945,-0.00000021,-0.00000110,-0.00000162,-0.00001003,0.
 00004217,0.00002146,0.00001088,0.00004147,0.00000740,-0.00001002,0.000
 13039,-0.00000349,0.00171081,-0.00087773,0.00063889,0.00045398,-0.0004
 3321,-0.00033641,-0.00144066,0.00289965,-0.00098177,-0.13077802,-0.026
 96441,-0.16829712,0.00774060,0.00178516,0.00710660,0.14218477,0.028445
 70,0.18068661,0.00007054,-0.00001768,0.00000437,0.00003342,0.00011552,
 0.00002995,-0.00017925,0.00000293,0.00002630,0.00004803,-0.00000919,-0
 .00001266,0.00003620,-0.00019641,-0.00003080,0.00001217,-0.00000867,-0
 .00000322,-0.00000223,0.00001383,0.00004190,0.00000058,-0.00000539,-0.
 00001117,-0.00002512,-0.00001769,-0.00000014,0.00001069,-0.00000986,0.
 00000159,-0.00001346,0.00001174,-0.00000083,0.00000660,-0.00001135,-0.
 00000055,-0.00001390,0.00000968,-0.00000544,-0.00004809,-0.00022523,-0
 .00007033,-0.00000445,0.00028532,0.00000442,-0.00000427,-0.00000895,-0
 .00000064,-0.00000214,0.00000409,-0.00000292,0.00000857,0.00000194,-0.
 00000849,-0.00000237,-0.00000237,-0.00001083,0.00000229,0.00000510,-0.
 00000271,0.00000007,0.00000110,0.00000525,-0.00000351,-0.00000626,-0.0
 0000166,0.00003460,0.00000500,-0.00000935,-0.00000310,0.00000661,-0.00
 000014,0.00000019,-0.00000041,0.00000208,0.00001490,0.00009827,-0.0000
 1049,0.00000006,0.00000200,0.00000114,-0.00000327,-0.00001714,-0.00000
 250,-0.00000596,-0.00001668,0.00000303,0.00000212,-0.00006086,0.000010
 26,-0.00021691,0.00205092,-0.00059407,-0.00044813,-0.00230854,-0.00162
 696,-0.00492183,-0.00296991,0.00762650,-0.08197357,-0.02847752,0.08878
 856,-0.01038881,-0.00805494,0.02409801,0.00923204,0.00808993,-0.020982
 73,0.09095091,-0.00015916,0.00007492,0.00000038,0.00018277,-0.00000762
 ,0.00006125,-0.00034059,0.00018382,0.00004605,0.00006847,-0.00019821,-
 0.00002986,0.00008187,-0.00056004,0.00000491,0.00011830,0.00001391,-0.
 00001649,-0.00002058,0.00001604,0.00003315,0.00000869,-0.00001097,-0.0
 0001235,0.00005264,0.00001366,-0.00001029,-0.00000885,0.00000807,-0.00
 001297,0.00002792,-0.00001245,0.00000037,-0.00002124,0.00001948,-0.000
 00353,0.00003250,-0.00004316,-0.00000064,-0.00004846,0.00014389,-0.000
 13922,0.00004675,0.00089263,-0.00007682,-0.00002545,-0.00002488,-0.000
 00327,-0.00001620,-0.00001005,0.00001155,0.00003971,-0.00000092,-0.000
 03219,0.00000712,0.00000670,0.00000954,-0.00000303,-0.00000345,0.00000
 367,-0.00001191,0.00000379,-0.00000068,-0.00001053,-0.00000869,-0.0000
 0074,-0.00004169,0.00000503,0.00002423,0.00000467,-0.00001057,-0.00000
 021,-0.00000879,0.00000671,0.00000331,-0.00001838,-0.00007612,0.000051
 84,0.00000073,-0.00000085,0.00000177,0.00001216,0.00001151,-0.00001358
 ,0.00000173,0.00001212,-0.00001603,-0.00000425,0.00004926,-0.00001944,
 0.00088180,0.00005693,-0.00454531,-0.00295603,-0.00512832,-0.00416606,
 -0.01095080,-0.00719775,0.03372042,-0.02822882,-0.06990223,0.07338597,
 0.00767706,0.00524427,-0.01844804,0.00235277,0.00105789,-0.00502637,0.
 02937615,0.07598843,0.00011520,-0.00005004,-0.00001525,-0.00011153,0.0
 0006465,0.00002819,0.00015588,-0.00006786,-0.00002697,-0.00003148,0.00
 006447,0.00000910,-0.00004462,0.00013313,0.00004943,-0.00001273,0.0000
 0200,0.00000239,-0.00000253,-0.00001469,-0.00001973,-0.00000351,0.0000
 0485,0.00000429,-0.00003090,-0.00000554,0.00001315,0.00000445,-0.00001
 282,0.00000762,-0.00002185,-0.00000085,0.00000425,0.00001814,-0.000001
 27,-0.00000042,-0.00002778,0.00002383,0.00000416,0.00000972,-0.0000566
 1,-0.00001216,-0.00002960,-0.00015563,-0.00007227,0.00000397,0.0000098
 9,0.00000303,-0.00000107,-0.00000158,-0.00000086,-0.00000823,0.0000023
 1,0.00001202,0.00000060,-0.00000095,-0.00000047,-0.00000014,-0.0000022
 4,-0.00000157,-0.00000058,-0.00000250,-0.00000230,0.00000460,0.0000071
 3,0.00000364,0.00001432,0.00002854,-0.00002170,-0.00000264,-0.00000310
 ,0.00000093,0.00000609,-0.00000512,-0.00000365,0.00000020,0.00015351,-
 0.00005799,-0.00000014,0.00000052,-0.00000263,-0.00000263,-0.00002776,
 0.00000487,0.00000194,-0.00002468,0.00002568,0.00000770,-0.00009765,0.
 00002313,-0.00084009,0.00008539,0.00099502,-0.00099637,0.00048552,-0.0
 0036246,0.00060657,-0.00274385,0.00166814,0.08756440,0.06992335,-0.249
 61288,0.00188669,0.00118281,-0.00509794,0.00817662,0.00737161,-0.02052
 769,-0.09755239,-0.07450797,0.27090602,0.00002794,-0.00000168,0.000008
 70,-0.00001340,0.00007526,-0.00001886,-0.00000328,-0.00002470,0.000016
 51,0.00000262,0.00003027,-0.00000776,-0.00000994,0.00003210,-0.0000235
 1,0.00000900,0.00000016,0.00001960,-0.00000649,-0.00001583,-0.00002691
 ,-0.00000180,0.00000162,0.00000685,-0.00001213,-0.00001329,-0.00001235
 ,0.00000461,0.00000128,-0.00000517,-0.00000399,0.00000874,-0.00000147,
 0.00000041,-0.00000963,-0.00000009,-0.00000378,0.00000884,-0.00000351,
 -0.00000492,-0.00012415,0.00001291,-0.00000741,-0.00004920,0.00001820,
 -0.00000287,0.00000623,-0.00000200,0.00000291,0.00000361,-0.00000370,0
 .00000836,-0.00000386,0.00001332,-0.00000042,0.00000185,0.00000123,0.0
 0000114,-0.00000257,-0.00000140,-0.00000635,-0.00000122,-0.00000586,0.
 00000215,0.00000669,0.00000307,0.00001179,-0.00001547,0.00001703,-0.00
 000166,0.00000855,-0.00000076,0.00000094,0.00000022,0.00000302,0.00002
 624,-0.00003636,0.00004471,-0.00000096,0.00000138,0.00000249,-0.000004
 78,0.00000607,-0.00000503,-0.00001357,0.00000274,-0.00002513,-0.000008
 98,0.00002799,-0.00001340,0.00025745,0.00037298,-0.00034681,0.00100282
 ,0.00042784,-0.00048656,-0.00059511,-0.00147942,0.00015521,-0.01077998
 ,-0.00794327,0.02576654,-0.08348141,-0.02852582,0.08734313,0.00068836,
 -0.00094204,-0.00043237,-0.00402489,0.00369606,0.00089844,0.09129704,0
 .00008540,-0.00003043,-0.00000404,-0.00007096,0.00005416,0.00000818,0.
 00010369,-0.00008587,-0.00000499,-0.00001642,0.00007756,0.00000397,-0.
 00001657,0.00015463,0.00001817,-0.00002999,-0.00000274,0.00000648,0.,-
 0.00001976,-0.00002302,-0.00000507,0.00000963,0.00000679,-0.00002837,-
 0.00001017,0.00000494,0.00000740,-0.00000820,-0.00000177,-0.00001345,0
 .00000903,0.00000075,0.00000949,-0.00001422,-0.00000041,-0.00001723,0.
 00002163,-0.00000059,0.00000877,-0.00010152,-0.00000634,-0.00004335,-0
 .00023105,-0.00002858,0.00000466,0.00001121,0.00000338,0.00000222,0.00
 000084,-0.00000513,-0.00002034,0.00000248,0.00001485,-0.00000103,-0.00
 000124,0.00000115,-0.00000013,0.00000022,-0.00000291,0.00000389,-0.000
 00319,0.00000090,0.00000719,0.00000538,0.00000217,0.00001538,-0.000002
 96,-0.00000417,-0.00000289,0.00000949,0.00000014,0.00000423,-0.0000028
 7,-0.00000124,0.00002611,0.00003001,-0.00000015,-0.00000031,0.00000103
 ,0.00000053,-0.00000921,-0.00000480,0.00000292,-0.00000972,-0.00000668
 ,-0.00000488,-0.00000465,-0.00001514,0.00000174,-0.00049179,0.00023148
 ,0.00036952,-0.00020922,-0.00006056,0.00057422,0.00080712,0.00038652,-
 0.00107358,0.00657054,0.00555230,-0.01769712,-0.02924583,-0.06984118,0
 .07037296,-0.00081351,0.00073447,0.00046889,0.00319513,-0.00188834,-0.
 00112275,0.02853771,0.07272920,0.00003550,-0.00002734,-0.00001039,-0.0
 0008949,-0.00006598,0.00002572,0.00015867,-0.00003721,-0.00002557,-0.0
 0004106,0.00002085,0.00001099,-0.00005757,0.00008284,0.00004002,0.0000
 3091,0.00000973,0.00000377,-0.00001409,-0.00003733,-0.00006203,-0.0000
 0245,0.00000982,0.00001622,-0.00000546,0.00000459,0.00001036,-0.000004
 80,-0.00000205,0.00000538,-0.00001086,-0.00000435,0.00000132,0.0000115
 2,0.00000384,-0.00000060,-0.00000956,0.00000971,0.00000261,0.00002240,
 0.00008260,-0.00002105,-0.00001524,-0.00009037,-0.00004496,-0.00000631
 ,0.00001252,0.00000244,-0.00000586,-0.00000924,0.00000417,-0.00000107,
 -0.00000737,0.00001520,0.00000430,0.00000603,0.00001482,-0.00000336,-0
 .00001006,0.00000154,-0.00000895,-0.00000282,-0.00001056,0.00000633,0.
 00001387,0.00000644,0.00000083,0.00000783,-0.00000972,-0.00000048,-0.0
 0000691,0.00000069,0.00000407,-0.00000270,-0.00000275,-0.00000621,0.00
 006081,-0.00002371,0.00000062,-0.00000049,-0.00000192,0.00000091,-0.00
 001114,0.00000172,0.00000333,-0.00001010,0.00001073,0.00000510,-0.0000
 3765,0.00000865,-0.00077550,-0.00052272,0.00009581,-0.00177356,0.00046
 043,0.00109331,0.00243265,0.00165634,-0.00043016,0.00224270,0.00107844
 ,-0.00597938,0.08793698,0.06829815,-0.26153129,0.00025153,-0.00029219,
 0.00071378,0.00117450,-0.00092275,0.00133346,-0.09780042,-0.07613336,0
 .28080664,0.00011423,-0.00001363,-0.00000507,0.00005592,0.00034138,-0.
 00000135,-0.00020293,-0.00000727,0.00001364,0.00006280,0.00005318,-0.0
 0000368,0.00005797,-0.00003006,-0.00000009,-0.00004819,-0.00001570,-0.
 00000232,0.00001522,0.00002244,0.00001229,0.00000642,-0.00000858,-0.00
 000222,-0.00004069,-0.00003674,-0.00000019,0.00001576,-0.00000452,0.00
 000042,-0.00001682,0.00002056,-0.00000014,0.00000570,-0.00001863,-0.00
 000048,-0.00002216,0.00002183,0.00000115,-0.00008134,-0.00050256,0.000
 00168,-0.00000978,0.00000203,0.00000444,0.00000823,-0.00000324,-0.0000
 0178,0.00001064,0.00000237,-0.00000032,-0.00000432,0.00000804,-0.00001
 848,-0.00000220,0.00000604,0.00000795,-0.00000098,0.00000073,0.0000029
 6,0.00000946,0.00000263,0.00000170,-0.00000430,-0.00000633,-0.00000320
 ,0.00004285,-0.00001010,0.00000072,-0.00000493,0.00001676,0.00000013,0
 .00000006,-0.00000084,0.00000033,0.00003947,0.00003436,0.00000585,-0.0
 0000079,0.00000322,0.00000045,-0.00001319,-0.00000580,0.00000357,-0.00
 001484,-0.00000878,-0.00001062,-0.00000887,-0.00001703,-0.00000002,-0.
 00034382,0.00333168,0.00034642,0.00213759,-0.00052705,-0.00039327,-0.0
 0664120,-0.00174585,0.00139886,0.00774530,0.02997078,0.00106702,-0.061
 65679,-0.05930174,-0.00325137,0.00101198,-0.00077480,-0.00065637,0.001
 10811,-0.00099197,0.00000142,-0.00387806,-0.01057610,-0.00209268,0.065
 49468,-0.00032627,0.00008533,0.00001644,0.00012581,-0.00048280,-0.0000
 2132,-0.00001907,0.00025406,0.00000390,-0.00002967,-0.00026838,-0.0000
 0313,-0.00001728,-0.00031126,-0.00002548,0.00010079,0.00002747,-0.0000
 2601,-0.00000518,0.00002603,0.00002990,0.00001071,-0.00001017,-0.00001
 016,0.00011531,0.00007013,-0.00000571,-0.00004480,0.00002661,0.0000005
 1,0.00004442,-0.00005362,-0.00000177,-0.00002156,0.00006798,0.00000003
 ,0.00006234,-0.00007877,-0.00000178,0.00004248,0.00081218,0.00002077,0
 .00011593,0.00051193,0.00005146,-0.00001615,-0.00002540,-0.00000552,-0
 .00001549,-0.00001124,0.00001816,0.00003322,0.00000203,-0.00003237,0.0
 0000831,0.00000533,0.00001445,-0.00000413,-0.00000359,0.00000850,-0.00
 000901,0.00000792,-0.00000017,-0.00001171,-0.00001369,-0.00000466,-0.0
 0008413,0.00003895,0.00000522,0.00001402,-0.00005569,0.00000014,-0.000
 00992,0.00000830,0.00000108,-0.00015209,-0.00003954,-0.00000259,0.0000
 0203,-0.00000657,-0.00000105,0.00005761,0.00000411,-0.00002494,0.00005
 187,0.00001535,0.00002918,0.00003549,0.00001052,0.00000084,0.00152652,
 -0.00321721,-0.00053619,0.00038610,-0.00109579,-0.00024419,0.00192099,
 0.00279944,-0.00028194,-0.00595943,-0.01588680,-0.00020182,-0.05865168
 ,-0.29716078,-0.01167920,0.00022693,0.00034827,0.00057145,-0.00000510,
 0.00055934,-0.00054620,-0.00181295,-0.00804018,-0.00040425,0.06323645,
 0.32389292,-0.00005554,0.00001076,0.00001023,-0.00000087,-0.00012447,-
 0.00000397,0.00004089,0.00003133,-0.00000486,-0.00001650,-0.00004252,-
 0.00000032,-0.00001332,-0.00003231,0.00001924,0.00001633,0.00000609,-0
 .00000527,-0.00000209,-0.00000603,-0.00000729,0.00000183,0.00000053,0.
 00000283,0.00001996,0.00001499,-0.00001110,-0.00000878,0.00000249,-0.0
 0000030,0.00000695,-0.00000976,-0.00000176,-0.00000184,0.00001050,0.00
 000102,0.00001067,-0.00001237,-0.00000266,0.00002261,0.00019842,0.0000
 0056,0.00001353,0.00005840,-0.00001813,-0.00000323,-0.00000232,0.00000
 052,-0.00000306,-0.00000601,0.00000391,0.00000190,0.00000446,-0.000013
 11,0.00000315,0.00000722,0.00001313,-0.00000313,-0.00000363,0.00000213
 ,-0.00000053,0.00000113,-0.00000147,-0.00000066,-0.00000080,0.00000026
 ,-0.00001729,0.00000748,0.00000535,0.00000247,-0.00000974,-0.00000023,
 -0.00000079,0.00000113,0.00000055,-0.00002252,-0.00000618,0.00001798,0
 .00000033,-0.00000122,0.00000091,0.00001134,0.00000033,-0.00000921,0.0
 0000482,0.00000131,-0.00000346,0.00000525,0.00000382,-0.00000449,0.000
 27735,-0.00106496,-0.00007732,-0.00023491,-0.00016031,0.00057606,0.001
 69189,0.00051237,0.00037128,-0.00263952,-0.00803424,-0.00152563,-0.003
 17247,-0.01150636,-0.05053354,0.00002578,0.00050146,0.00019030,-0.0004
 7822,-0.00003953,-0.00002818,0.00589393,0.02893170,0.00359255,0.002071
 01,0.01364881,0.04792334,-0.00000885,0.00001641,-0.00001169,0.00004993
 ,0.00009277,0.00002296,-0.00011442,0.00000599,-0.00001118,0.00002923,0
 .00000830,0.00000648,0.00003710,-0.00003253,0.00003662,-0.00000882,0.0
 0000034,-0.00000513,-0.00000203,0.00000211,-0.00003005,0.00000327,-0.0
 0000380,0.00000804,-0.00000038,-0.00001052,0.00001776,0.00000931,0.000
 00199,0.00000007,0.00000498,0.00001186,0.00000259,-0.00000839,-0.00001
 311,-0.00000010,0.00000469,-0.00000088,0.00000428,-0.00001584,-0.00012
 957,-0.00001484,-0.00000567,0.00001633,-0.00003656,0.00000112,0.000003
 24,-0.00000074,0.00000346,-0.00000362,0.00000387,0.00000577,0.00000630
 ,0.00000223,0.00000528,0.00000597,0.00001288,-0.00000369,-0.00000314,0
 .00000349,0.00000095,-0.00000114,-0.00000363,-0.00000072,0.00000300,-0
 .00000015,0.00000445,-0.00001787,-0.00001658,-0.00000141,0.00001275,0.
 00000077,-0.00000258,0.00000110,-0.00000282,0.00002243,-0.00006996,-0.
 00003423,-0.00000054,0.00000123,-0.00000234,-0.00001657,0.00001445,0.0
 0001959,-0.00000032,0.00001327,0.00001020,-0.00000875,0.00003959,0.000
 00492,0.00077354,0.00049950,0.00017322,0.00184003,0.00019622,0.0005641
 8,-0.00186509,-0.00194778,-0.00013064,-0.02043801,-0.00300654,-0.01942
 868,-0.18680136,-0.02530483,-0.13380494,-0.00352957,0.00343100,0.00222
 153,0.00071316,-0.00080316,0.00024384,0.00952237,0.00223721,0.00840215
 ,-0.00494616,-0.00092170,-0.00344676,0.20474813,0.00009859,-0.00004008
 ,0.00000418,-0.00009838,0.00004918,0.00000443,0.00015244,-0.00010297,-
 0.00000828,-0.00002821,0.00009143,-0.00000047,-0.00004117,0.00018347,0
 .00000616,-0.00001068,-0.00000418,0.00002004,-0.00000844,-0.00002669,-
 0.00001291,-0.00001345,0.00001551,0.00000274,-0.00003290,-0.00001073,-
 0.00000882,0.00000708,-0.00000696,0.00000608,-0.00001652,0.00000862,-0
 .00000239,0.00001219,-0.00001349,0.00000172,-0.00002077,0.00002542,-0.
 00000176,0.00000981,-0.00009810,-0.00000480,-0.00004310,-0.00025544,-0
 .00002973,0.00000183,0.00001359,0.00000210,-0.00000045,0.00000851,-0.0
 0001176,-0.00001289,-0.00000601,0.00004101,-0.00000537,-0.00001260,-0.
 00002702,0.00000691,0.00000524,-0.00000765,-0.00000120,-0.00000567,0.0
 0000083,0.00000976,0.00001002,0.00000300,0.00001926,-0.00000183,0.0000
 0111,-0.00000338,0.00000870,-0.00000025,0.00000545,-0.00000380,0.00000
 039,0.00002597,0.00004085,0.00000308,-0.00000018,0.00000082,0.00000035
 ,-0.00000843,-0.00000709,0.00000145,-0.00001011,-0.00000875,-0.0000062
 5,-0.00000343,-0.00002103,0.00000048,-0.00079851,0.00020677,-0.0000617
 5,-0.00082568,0.00015479,-0.00007968,0.00168245,0.00039543,0.00067764,
 0.01329113,0.00232208,0.01380780,-0.02653655,-0.05141347,-0.02540773,0
 .00311673,-0.00190933,-0.00101332,-0.00084512,0.00071621,-0.00009188,0
 .00774327,0.00034987,0.00681997,-0.02246717,-0.00281271,-0.02289199,0.
 02564921,0.05215442,-0.00003030,0.00001966,0.00000140,0.00007991,0.000
 03858,0.00000258,-0.00013409,0.00003260,0.00000142,0.00003645,-0.00001
 990,0.00000058,0.00006274,-0.00006391,0.00000949,-0.00004944,-0.000007
 52,-0.00002181,0.00001946,0.00002545,0.00004334,0.00000338,-0.00000383
 ,-0.00001421,0.00000601,0.00000077,0.00000256,0.00000427,0.00000150,-0
 .00000153,0.00000939,0.00000185,0.00000081,-0.00000889,-0.00000226,0.0
 0000139,0.00000760,-0.00000978,-0.00000062,-0.00001904,-0.00004004,-0.
 00000718,0.00000122,0.00005791,-0.00001194,0.00000918,-0.00001107,0.00
 000158,0.00000688,-0.00000419,0.00000372,-0.00001138,0.00002195,-0.000
 04464,-0.00000479,0.00001099,0.00001270,-0.00000217,0.00000073,0.00000
 583,0.00002057,0.00000301,0.00000760,-0.00000574,-0.00001440,-0.000005
 12,-0.00000263,-0.00000051,-0.00000204,0.00000063,0.00000410,0.0000000
 3,-0.00000363,0.00000159,-0.00000096,-0.00000256,-0.00003230,-0.000010
 68,-0.00000022,0.00000002,-0.00000061,-0.00000189,0.00000670,0.0000046
 7,0.00000341,0.00000687,0.00000622,-0.00000071,0.00001701,0.00000025,0
 .00041737,0.00038847,-0.00019420,0.00143515,-0.00044075,0.00009763,-0.
 00168744,-0.00091793,0.00040464,0.00717944,0.00193184,0.00690535,-0.13
 445620,-0.02355094,-0.17704857,0.00179749,-0.00136245,0.00082169,-0.00
 039858,0.00068597,0.00076859,-0.02100184,-0.00467932,-0.01966426,0.001
 50163,-0.00036037,-0.00047986,0.14521937,0.02826388,0.18840413\\-0.000
 00112,0.00000171,-0.00000165,-0.00000106,-0.00000661,0.00000490,0.0000
 0030,0.00000252,0.00000111,-0.00000021,-0.00000099,0.00000188,-0.00000
 291,0.00000431,0.00000629,-0.00000094,0.00000220,-0.00000190,-0.000000
 55,-0.00000365,-0.00000041,-0.00000070,0.00000005,-0.00000228,0.000001
 50,0.00000235,-0.00000131,0.00000583,-0.00000625,0.00000692,0.00000244
 ,0.00000061,0.00000323,-0.00000231,0.00000208,0.00000248,0.00000567,-0
 .00000471,0.00000615,0.00000142,0.00000295,0.00000035,0.00000528,-0.00
 000665,-0.00000151,0.00000215,-0.00000204,0.00000136,0.00000350,0.0000
 0127,-0.00000228,-0.00000108,0.00000089,-0.00000192,-0.00000095,-0.000
 00139,-0.00000014,0.00000016,-0.00000127,-0.00000115,0.00000014,-0.000
 00283,-0.00000175,0.00000044,-0.00000216,0.00000075,-0.00000209,0.0000
 0313,0.00000106,0.00000129,0.00000131,0.00000641,0.00000198,0.00000110
 ,0.00000350,-0.00000051,-0.00000313,0.00000436,-0.00000027,0.00000144,
 0.00000471,0.00000171,0.00000363,-0.00000116,-0.00000198,0.00000284,0.
 00000293,-0.00000230,0.00000486,-0.00000158,0.00000255,-0.00000033,-0.
 00000486,-0.00000797,-0.00000795,-0.00000647,-0.00000046,0.00001018,0.
 00000205,-0.00000639,0.00000283,0.00000024,0.00000522,-0.00000576,-0.0
 0000883,-0.00000101,0.00000199,-0.00000437,-0.00000158,-0.00000003,-0.
 00000359,-0.00000267,0.00000114,-0.00000346,-0.00000144,0.00000051,-0.
 00000536,-0.00000109,-0.00000015,-0.00000472\\\@


 HE THAT FOLLOWS NATURE IS NEVER LOST.

                             -- BACON
 Job cpu time:       0 days 12 hours 23 minutes 39.1 seconds.
 File lengths (MBytes):  RWF=   1422 Int=      0 D2E=      0 Chk=     34 Scr=      1
 Normal termination of Gaussian 09 at Thu Nov 14 23:50:36 2019.
pbs_rusage has been removed.
Please contact help@nci.org.au if you require this functionality.
