 Entering Gaussian System, Link 0=/apps/gaussian/g09e01/g09/g09
 Initial command:
 /apps/gaussian/g09e01/g09/l1.exe "/jobfs/local/3595155.r-man2/Gau-26602.inp" -scrdir="/jobfs/local/3595155.r-man2/"
 Entering Link 1 = /apps/gaussian/g09e01/g09/l1.exe PID=     26603.
  
 Copyright (c) 1988,1990,1992,1993,1995,1998,2003,2009,2015,
            Gaussian, Inc.  All Rights Reserved.
  
 This is part of the Gaussian(R) 09 program.  It is based on
 the Gaussian(R) 03 system (copyright 2003, Gaussian, Inc.),
 the Gaussian(R) 98 system (copyright 1998, Gaussian, Inc.),
 the Gaussian(R) 94 system (copyright 1995, Gaussian, Inc.),
 the Gaussian 92(TM) system (copyright 1992, Gaussian, Inc.),
 the Gaussian 90(TM) system (copyright 1990, Gaussian, Inc.),
 the Gaussian 88(TM) system (copyright 1988, Gaussian, Inc.),
 the Gaussian 86(TM) system (copyright 1986, Carnegie Mellon
 University), and the Gaussian 82(TM) system (copyright 1983,
 Carnegie Mellon University). Gaussian is a federally registered
 trademark of Gaussian, Inc.
  
 This software contains proprietary and confidential information,
 including trade secrets, belonging to Gaussian, Inc.
  
 This software is provided under written license and may be
 used, copied, transmitted, or stored only in accord with that
 written license.
  
 The following legend is applicable only to US Government
 contracts under FAR:
  
                    RESTRICTED RIGHTS LEGEND
  
 Use, reproduction and disclosure by the US Government is
 subject to restrictions as set forth in subparagraphs (a)
 and (c) of the Commercial Computer Software - Restricted
 Rights clause in FAR 52.227-19.
  
 Gaussian, Inc.
 340 Quinnipiac St., Bldg. 40, Wallingford CT 06492
  
  
 ---------------------------------------------------------------
 Warning -- This program may not be used in any manner that
 competes with the business of Gaussian, Inc. or will provide
 assistance to any competitor of Gaussian, Inc.  The licensee
 of this program is prohibited from giving any competitor of
 Gaussian, Inc. access to this program.  By using this program,
 the user acknowledges that Gaussian, Inc. is engaged in the
 business of creating and licensing software in the field of
 computational chemistry and represents and warrants to the
 licensee that it is not a competitor of Gaussian, Inc. and that
 it will not use this program in any manner prohibited above.
 ---------------------------------------------------------------
  

 Cite this work as:
 Gaussian 09, Revision E.01,
 M. J. Frisch, G. W. Trucks, H. B. Schlegel, G. E. Scuseria, 
 M. A. Robb, J. R. Cheeseman, G. Scalmani, V. Barone, B. Mennucci, 
 G. A. Petersson, H. Nakatsuji, M. Caricato, X. Li, H. P. Hratchian, 
 A. F. Izmaylov, J. Bloino, G. Zheng, J. L. Sonnenberg, M. Hada, 
 M. Ehara, K. Toyota, R. Fukuda, J. Hasegawa, M. Ishida, T. Nakajima, 
 Y. Honda, O. Kitao, H. Nakai, T. Vreven, J. A. Montgomery, Jr., 
 J. E. Peralta, F. Ogliaro, M. Bearpark, J. J. Heyd, E. Brothers, 
 K. N. Kudin, V. N. Staroverov, T. Keith, R. Kobayashi, J. Normand, 
 K. Raghavachari, A. Rendell, J. C. Burant, S. S. Iyengar, J. Tomasi, 
 M. Cossi, N. Rega, J. M. Millam, M. Klene, J. E. Knox, J. B. Cross, 
 V. Bakken, C. Adamo, J. Jaramillo, R. Gomperts, R. E. Stratmann, 
 O. Yazyev, A. J. Austin, R. Cammi, C. Pomelli, J. W. Ochterski, 
 R. L. Martin, K. Morokuma, V. G. Zakrzewski, G. A. Voth, 
 P. Salvador, J. J. Dannenberg, S. Dapprich, A. D. Daniels, 
 O. Farkas, J. B. Foresman, J. V. Ortiz, J. Cioslowski, 
 and D. J. Fox, Gaussian, Inc., Wallingford CT, 2013.
 
 ******************************************
 Gaussian 09:  ES64L-G09RevE.01 30-Nov-2015
                14-Nov-2019 
 ******************************************
 %chk=NM3_carboxy.M062X_6-311pGd_opt_Pentadecane_GD3.chk
 %mem=196608000
 %nproc=8
 Will use up to    8 processors via shared memory.
 ----------------------------------------------------------------------
 # M062X/6-311+G* SCF=Tight INT(grid=ultrafine) OPT IOP(2/17=4) Empiric
 alDispersion=GD3 SCRF=(SMD,Solvent=n-Pentadecane) maxdisk=2684354560
 ----------------------------------------------------------------------
 1/14=-1,18=20,19=15,26=4,38=1/1,3;
 2/9=110,12=2,17=4,18=5,40=1/2;
 3/5=4,6=6,7=11,11=2,16=1,25=1,30=1,70=32201,71=1,72=151,74=-55,75=-5,124=31/1,2,3;
 4//1;
 5/5=2,32=2,38=5,53=151/2;
 6/7=2,8=2,9=2,10=2,28=1/1;
 7//1,2,3,16;
 1/14=-1,18=20,19=15,26=4/3(2);
 2/9=110,17=4/2;
 99//99;
 2/9=110,17=4/2;
 3/5=4,6=6,7=11,11=2,16=1,25=1,30=1,70=32205,71=1,72=151,74=-55,75=-5,124=31/1,2,3;
 4/5=5,16=3,69=1/1;
 5/5=2,32=2,38=5,53=151/2;
 7//1,2,3,16;
 1/14=-1,18=20,19=15,26=4/3(-5);
 2/9=110,17=4/2;
 6/7=2,8=2,9=2,10=2,19=2,28=1/1;
 99/9=1/99;
 ----------------------------------------------
 NM3_carboxy.M062X_6-311pGd_opt_Pentadecane_GD3
 ----------------------------------------------
 Symbolic Z-matrix:
 Charge = -1 Multiplicity = 1
 C                    -5.91345   1.19117   0.15527 
 N                    -4.65234   0.64767   0.03705 
 C                    -3.44033   1.3251    0.06051 
 O                    -3.34189   2.54339   0.17512 
 N                    -2.37754   0.49863  -0.06725 
 C                    -1.02782   1.01733   0.01116 
 C                    -0.03606  -0.03854  -0.45908 
 C                     1.40248   0.45416  -0.3527 
 C                    -6.18751   2.55884   0.32059 
 C                    -7.50758   2.9761    0.43392 
 C                    -8.5837    2.09842   0.38811 
 C                    -8.28521   0.75184   0.22409 
 C                    -6.99235   0.28436   0.10795 
 H                    -4.62851  -0.38444  -0.07422 
 H                    -2.50604  -0.52335  -0.04453 
 H                    -0.78906   1.32424   1.03859 
 H                    -0.95316   1.91556  -0.60842 
 H                    -0.27098  -0.3079   -1.49347 
 H                    -0.17165  -0.94895   0.13255 
 H                     1.55848   1.35561  -0.95266 
 H                     2.10933  -0.30232  -0.70128 
 H                     1.66191   0.69737   0.68169 
 H                    -5.37334   3.26617   0.36217 
 Cl                   -9.60843  -0.39597   0.16833 
 H                    -6.78709  -0.77411  -0.01605 
 C                    -7.78482   4.44579   0.54266 
 H                    -9.60602   2.43982   0.48057 
 F                    -7.86753   5.03658  -0.66736 
 F                    -8.95179   4.70378   1.1616 
 F                    -6.83423   5.1067    1.21822 
 O                    -4.84812  -2.10158  -0.21466 
 O                    -2.63786  -2.32381   0.02201 
 C                    -3.79507  -2.78283  -0.09941 
 C                    -3.97673  -4.30546  -0.11591 
 C                    -2.69352  -5.10046   0.0735 
 H                    -4.45829  -4.55899  -1.06579 
 H                    -4.70945  -4.55063   0.65915 
 H                    -1.97188  -4.87415  -0.71348 
 H                    -2.89003  -6.17672   0.05884 
 H                    -2.21752  -4.85322   1.02437 
 
 Add virtual bond connecting atoms O31        and H14        Dist= 3.28D+00.
 Add virtual bond connecting atoms O32        and H15        Dist= 3.41D+00.

 GradGradGradGradGradGradGradGradGradGradGradGradGradGradGradGradGradGrad
 Berny optimization.
 Initialization pass.
                           ----------------------------
                           !    Initial Parameters    !
                           ! (Angstroms and Degrees)  !
 --------------------------                            --------------------------
 ! Name  Definition              Value          Derivative Info.                !
 --------------------------------------------------------------------------------
 ! R1    R(1,2)                  1.3783         estimate D2E/DX2                !
 ! R2    R(1,9)                  1.4046         estimate D2E/DX2                !
 ! R3    R(1,13)                 1.4102         estimate D2E/DX2                !
 ! R4    R(2,3)                  1.3887         estimate D2E/DX2                !
 ! R5    R(2,14)                 1.0384         estimate D2E/DX2                !
 ! R6    R(3,4)                  1.2276         estimate D2E/DX2                !
 ! R7    R(3,5)                  1.3524         estimate D2E/DX2                !
 ! R8    R(5,6)                  1.4481         estimate D2E/DX2                !
 ! R9    R(5,15)                 1.0303         estimate D2E/DX2                !
 ! R10   R(6,7)                  1.523          estimate D2E/DX2                !
 ! R11   R(6,16)                 1.0986         estimate D2E/DX2                !
 ! R12   R(6,17)                 1.0937         estimate D2E/DX2                !
 ! R13   R(7,8)                  1.5243         estimate D2E/DX2                !
 ! R14   R(7,18)                 1.0944         estimate D2E/DX2                !
 ! R15   R(7,19)                 1.0942         estimate D2E/DX2                !
 ! R16   R(8,20)                 1.094          estimate D2E/DX2                !
 ! R17   R(8,21)                 1.0924         estimate D2E/DX2                !
 ! R18   R(8,22)                 1.0938         estimate D2E/DX2                !
 ! R19   R(9,10)                 1.3891         estimate D2E/DX2                !
 ! R20   R(9,23)                 1.0793         estimate D2E/DX2                !
 ! R21   R(10,11)                1.3894         estimate D2E/DX2                !
 ! R22   R(10,26)                1.4996         estimate D2E/DX2                !
 ! R23   R(11,12)                1.389          estimate D2E/DX2                !
 ! R24   R(11,27)                1.0818         estimate D2E/DX2                !
 ! R25   R(12,13)                1.3797         estimate D2E/DX2                !
 ! R26   R(12,24)                1.7526         estimate D2E/DX2                !
 ! R27   R(13,25)                1.0853         estimate D2E/DX2                !
 ! R28   R(14,31)                1.7368         estimate D2E/DX2                !
 ! R29   R(15,32)                1.8065         estimate D2E/DX2                !
 ! R30   R(26,28)                1.3491         estimate D2E/DX2                !
 ! R31   R(26,29)                1.3459         estimate D2E/DX2                !
 ! R32   R(26,30)                1.3404         estimate D2E/DX2                !
 ! R33   R(31,33)                1.2595         estimate D2E/DX2                !
 ! R34   R(32,33)                1.2508         estimate D2E/DX2                !
 ! R35   R(33,34)                1.5335         estimate D2E/DX2                !
 ! R36   R(34,35)                1.5214         estimate D2E/DX2                !
 ! R37   R(34,36)                1.0947         estimate D2E/DX2                !
 ! R38   R(34,37)                1.0944         estimate D2E/DX2                !
 ! R39   R(35,38)                1.0915         estimate D2E/DX2                !
 ! R40   R(35,39)                1.0942         estimate D2E/DX2                !
 ! R41   R(35,40)                1.0917         estimate D2E/DX2                !
 ! A1    A(2,1,9)              124.9294         estimate D2E/DX2                !
 ! A2    A(2,1,13)             116.3323         estimate D2E/DX2                !
 ! A3    A(9,1,13)             118.738          estimate D2E/DX2                !
 ! A4    A(1,2,3)              127.2108         estimate D2E/DX2                !
 ! A5    A(1,2,14)             114.9697         estimate D2E/DX2                !
 ! A6    A(3,2,14)             117.818          estimate D2E/DX2                !
 ! A7    A(2,3,4)              123.7574         estimate D2E/DX2                !
 ! A8    A(2,3,5)              112.7164         estimate D2E/DX2                !
 ! A9    A(4,3,5)              123.5243         estimate D2E/DX2                !
 ! A10   A(3,5,6)              120.5619         estimate D2E/DX2                !
 ! A11   A(3,5,15)             120.4051         estimate D2E/DX2                !
 ! A12   A(6,5,15)             118.0583         estimate D2E/DX2                !
 ! A13   A(5,6,7)              109.9927         estimate D2E/DX2                !
 ! A14   A(5,6,16)             110.6882         estimate D2E/DX2                !
 ! A15   A(5,6,17)             109.094          estimate D2E/DX2                !
 ! A16   A(7,6,16)             109.9334         estimate D2E/DX2                !
 ! A17   A(7,6,17)             110.4873         estimate D2E/DX2                !
 ! A18   A(16,6,17)            106.5907         estimate D2E/DX2                !
 ! A19   A(6,7,8)              111.6482         estimate D2E/DX2                !
 ! A20   A(6,7,18)             108.8248         estimate D2E/DX2                !
 ! A21   A(6,7,19)             109.2199         estimate D2E/DX2                !
 ! A22   A(8,7,18)             110.371          estimate D2E/DX2                !
 ! A23   A(8,7,19)             110.3743         estimate D2E/DX2                !
 ! A24   A(18,7,19)            106.2411         estimate D2E/DX2                !
 ! A25   A(7,8,20)             111.2625         estimate D2E/DX2                !
 ! A26   A(7,8,21)             111.3796         estimate D2E/DX2                !
 ! A27   A(7,8,22)             111.2051         estimate D2E/DX2                !
 ! A28   A(20,8,21)            107.6578         estimate D2E/DX2                !
 ! A29   A(20,8,22)            107.5519         estimate D2E/DX2                !
 ! A30   A(21,8,22)            107.5928         estimate D2E/DX2                !
 ! A31   A(1,9,10)             119.177          estimate D2E/DX2                !
 ! A32   A(1,9,23)             119.7006         estimate D2E/DX2                !
 ! A33   A(10,9,23)            121.1217         estimate D2E/DX2                !
 ! A34   A(9,10,11)            122.9289         estimate D2E/DX2                !
 ! A35   A(9,10,26)            118.4254         estimate D2E/DX2                !
 ! A36   A(11,10,26)           118.5751         estimate D2E/DX2                !
 ! A37   A(10,11,12)           116.7344         estimate D2E/DX2                !
 ! A38   A(10,11,27)           121.9903         estimate D2E/DX2                !
 ! A39   A(12,11,27)           121.2745         estimate D2E/DX2                !
 ! A40   A(11,12,13)           122.6703         estimate D2E/DX2                !
 ! A41   A(11,12,24)           118.453          estimate D2E/DX2                !
 ! A42   A(13,12,24)           118.8764         estimate D2E/DX2                !
 ! A43   A(1,13,12)            119.7512         estimate D2E/DX2                !
 ! A44   A(1,13,25)            119.0975         estimate D2E/DX2                !
 ! A45   A(12,13,25)           121.1509         estimate D2E/DX2                !
 ! A46   A(10,26,28)           112.0545         estimate D2E/DX2                !
 ! A47   A(10,26,29)           112.4273         estimate D2E/DX2                !
 ! A48   A(10,26,30)           112.8717         estimate D2E/DX2                !
 ! A49   A(28,26,29)           105.984          estimate D2E/DX2                !
 ! A50   A(28,26,30)           106.2362         estimate D2E/DX2                !
 ! A51   A(29,26,30)           106.774          estimate D2E/DX2                !
 ! A52   A(14,31,33)           114.939          estimate D2E/DX2                !
 ! A53   A(15,32,33)           115.4477         estimate D2E/DX2                !
 ! A54   A(31,33,32)           125.7252         estimate D2E/DX2                !
 ! A55   A(31,33,34)           115.9142         estimate D2E/DX2                !
 ! A56   A(32,33,34)           118.3604         estimate D2E/DX2                !
 ! A57   A(33,34,35)           114.6823         estimate D2E/DX2                !
 ! A58   A(33,34,36)           106.9412         estimate D2E/DX2                !
 ! A59   A(33,34,37)           107.1048         estimate D2E/DX2                !
 ! A60   A(35,34,36)           110.9802         estimate D2E/DX2                !
 ! A61   A(35,34,37)           111.0679         estimate D2E/DX2                !
 ! A62   A(36,34,37)           105.5518         estimate D2E/DX2                !
 ! A63   A(34,35,38)           111.0724         estimate D2E/DX2                !
 ! A64   A(34,35,39)           111.1531         estimate D2E/DX2                !
 ! A65   A(34,35,40)           110.9689         estimate D2E/DX2                !
 ! A66   A(38,35,39)           108.2419         estimate D2E/DX2                !
 ! A67   A(38,35,40)           107.0242         estimate D2E/DX2                !
 ! A68   A(39,35,40)           108.224          estimate D2E/DX2                !
 ! A69   L(2,14,31,7,-1)       188.6775         estimate D2E/DX2                !
 ! A70   L(5,15,32,1,-1)       182.9137         estimate D2E/DX2                !
 ! A71   L(2,14,31,7,-2)       179.3045         estimate D2E/DX2                !
 ! A72   L(5,15,32,1,-2)       181.1195         estimate D2E/DX2                !
 ! D1    D(9,1,2,3)              0.1548         estimate D2E/DX2                !
 ! D2    D(9,1,2,14)           179.6891         estimate D2E/DX2                !
 ! D3    D(13,1,2,3)          -179.6281         estimate D2E/DX2                !
 ! D4    D(13,1,2,14)           -0.0938         estimate D2E/DX2                !
 ! D5    D(2,1,9,10)          -179.6938         estimate D2E/DX2                !
 ! D6    D(2,1,9,23)             0.0207         estimate D2E/DX2                !
 ! D7    D(13,1,9,10)            0.0843         estimate D2E/DX2                !
 ! D8    D(13,1,9,23)          179.7988         estimate D2E/DX2                !
 ! D9    D(2,1,13,12)          179.7792         estimate D2E/DX2                !
 ! D10   D(2,1,13,25)            0.0129         estimate D2E/DX2                !
 ! D11   D(9,1,13,12)           -0.0178         estimate D2E/DX2                !
 ! D12   D(9,1,13,25)         -179.7841         estimate D2E/DX2                !
 ! D13   D(1,2,3,4)             -1.1249         estimate D2E/DX2                !
 ! D14   D(1,2,3,5)            179.3633         estimate D2E/DX2                !
 ! D15   D(14,2,3,4)           179.3524         estimate D2E/DX2                !
 ! D16   D(14,2,3,5)            -0.1593         estimate D2E/DX2                !
 ! D17   D(1,2,31,33)         -167.8369         estimate D2E/DX2                !
 ! D18   D(3,2,31,33)           11.0488         estimate D2E/DX2                !
 ! D19   D(2,3,5,6)           -176.4861         estimate D2E/DX2                !
 ! D20   D(2,3,5,15)            -7.9993         estimate D2E/DX2                !
 ! D21   D(4,3,5,6)              4.0008         estimate D2E/DX2                !
 ! D22   D(4,3,5,15)           172.4876         estimate D2E/DX2                !
 ! D23   D(3,5,6,7)           -167.7454         estimate D2E/DX2                !
 ! D24   D(3,5,6,16)            70.5735         estimate D2E/DX2                !
 ! D25   D(3,5,6,17)           -46.4083         estimate D2E/DX2                !
 ! D26   D(15,5,6,7)            23.5034         estimate D2E/DX2                !
 ! D27   D(15,5,6,16)          -98.1777         estimate D2E/DX2                !
 ! D28   D(15,5,6,17)          144.8406         estimate D2E/DX2                !
 ! D29   D(3,5,32,33)           14.7015         estimate D2E/DX2                !
 ! D30   D(6,5,32,33)         -177.2046         estimate D2E/DX2                !
 ! D31   D(5,6,7,8)           -178.3005         estimate D2E/DX2                !
 ! D32   D(5,6,7,18)            59.6273         estimate D2E/DX2                !
 ! D33   D(5,6,7,19)           -55.9531         estimate D2E/DX2                !
 ! D34   D(16,6,7,8)           -56.1707         estimate D2E/DX2                !
 ! D35   D(16,6,7,18)         -178.2429         estimate D2E/DX2                !
 ! D36   D(16,6,7,19)           66.1767         estimate D2E/DX2                !
 ! D37   D(17,6,7,8)            61.1994         estimate D2E/DX2                !
 ! D38   D(17,6,7,18)          -60.8727         estimate D2E/DX2                !
 ! D39   D(17,6,7,19)         -176.4531         estimate D2E/DX2                !
 ! D40   D(6,7,8,20)           -59.2524         estimate D2E/DX2                !
 ! D41   D(6,7,8,21)          -179.3768         estimate D2E/DX2                !
 ! D42   D(6,7,8,22)            60.6202         estimate D2E/DX2                !
 ! D43   D(18,7,8,20)           61.9257         estimate D2E/DX2                !
 ! D44   D(18,7,8,21)          -58.1987         estimate D2E/DX2                !
 ! D45   D(18,7,8,22)         -178.2017         estimate D2E/DX2                !
 ! D46   D(19,7,8,20)          179.0648         estimate D2E/DX2                !
 ! D47   D(19,7,8,21)           58.9404         estimate D2E/DX2                !
 ! D48   D(19,7,8,22)          -61.0626         estimate D2E/DX2                !
 ! D49   D(1,9,10,11)           -0.166          estimate D2E/DX2                !
 ! D50   D(1,9,10,26)         -177.0648         estimate D2E/DX2                !
 ! D51   D(23,9,10,11)        -179.8763         estimate D2E/DX2                !
 ! D52   D(23,9,10,26)           3.2249         estimate D2E/DX2                !
 ! D53   D(9,10,11,12)           0.1697         estimate D2E/DX2                !
 ! D54   D(9,10,11,27)         179.8377         estimate D2E/DX2                !
 ! D55   D(26,10,11,12)        177.0641         estimate D2E/DX2                !
 ! D56   D(26,10,11,27)         -3.2679         estimate D2E/DX2                !
 ! D57   D(9,10,26,28)          85.6302         estimate D2E/DX2                !
 ! D58   D(9,10,26,29)        -155.1193         estimate D2E/DX2                !
 ! D59   D(9,10,26,30)         -34.2583         estimate D2E/DX2                !
 ! D60   D(11,10,26,28)        -91.4059         estimate D2E/DX2                !
 ! D61   D(11,10,26,29)         27.8446         estimate D2E/DX2                !
 ! D62   D(11,10,26,30)        148.7056         estimate D2E/DX2                !
 ! D63   D(10,11,12,13)         -0.0984         estimate D2E/DX2                !
 ! D64   D(10,11,12,24)        179.6978         estimate D2E/DX2                !
 ! D65   D(27,11,12,13)       -179.769          estimate D2E/DX2                !
 ! D66   D(27,11,12,24)          0.0271         estimate D2E/DX2                !
 ! D67   D(11,12,13,1)           0.0265         estimate D2E/DX2                !
 ! D68   D(11,12,13,25)        179.7879         estimate D2E/DX2                !
 ! D69   D(24,12,13,1)        -179.7688         estimate D2E/DX2                !
 ! D70   D(24,12,13,25)         -0.0075         estimate D2E/DX2                !
 ! D71   D(14,31,33,32)         -4.5067         estimate D2E/DX2                !
 ! D72   D(14,31,33,34)        175.6468         estimate D2E/DX2                !
 ! D73   D(15,32,33,31)         -2.5438         estimate D2E/DX2                !
 ! D74   D(15,32,33,34)        177.2993         estimate D2E/DX2                !
 ! D75   D(31,33,34,35)       -177.9784         estimate D2E/DX2                !
 ! D76   D(31,33,34,36)         58.5233         estimate D2E/DX2                !
 ! D77   D(31,33,34,37)        -54.2434         estimate D2E/DX2                !
 ! D78   D(32,33,34,35)          2.1632         estimate D2E/DX2                !
 ! D79   D(32,33,34,36)       -121.3351         estimate D2E/DX2                !
 ! D80   D(32,33,34,37)        125.8982         estimate D2E/DX2                !
 ! D81   D(33,34,35,38)        -59.7943         estimate D2E/DX2                !
 ! D82   D(33,34,35,39)        179.6224         estimate D2E/DX2                !
 ! D83   D(33,34,35,40)         59.1317         estimate D2E/DX2                !
 ! D84   D(36,34,35,38)         61.5173         estimate D2E/DX2                !
 ! D85   D(36,34,35,39)        -59.066          estimate D2E/DX2                !
 ! D86   D(36,34,35,40)       -179.5568         estimate D2E/DX2                !
 ! D87   D(37,34,35,38)        178.6102         estimate D2E/DX2                !
 ! D88   D(37,34,35,39)         58.0269         estimate D2E/DX2                !
 ! D89   D(37,34,35,40)        -62.4639         estimate D2E/DX2                !
 --------------------------------------------------------------------------------
 Trust Radius=3.00D-01 FncErr=1.00D-07 GrdErr=1.00D-06
 Number of steps in this run=    212 maximum allowed number of steps=    240.
 GradGradGradGradGradGradGradGradGradGradGradGradGradGradGradGradGradGrad

                          Input orientation:                          
 ---------------------------------------------------------------------
 Center     Atomic      Atomic             Coordinates (Angstroms)
 Number     Number       Type             X           Y           Z
 ---------------------------------------------------------------------
      1          6           0       -5.913448    1.191174    0.155272
      2          7           0       -4.652340    0.647671    0.037052
      3          6           0       -3.440325    1.325105    0.060506
      4          8           0       -3.341887    2.543393    0.175124
      5          7           0       -2.377537    0.498628   -0.067251
      6          6           0       -1.027817    1.017327    0.011155
      7          6           0       -0.036063   -0.038543   -0.459081
      8          6           0        1.402475    0.454161   -0.352704
      9          6           0       -6.187508    2.558836    0.320586
     10          6           0       -7.507584    2.976101    0.433918
     11          6           0       -8.583705    2.098425    0.388111
     12          6           0       -8.285209    0.751840    0.224088
     13          6           0       -6.992348    0.284364    0.107953
     14          1           0       -4.628509   -0.384441   -0.074217
     15          1           0       -2.506035   -0.523351   -0.044527
     16          1           0       -0.789064    1.324237    1.038594
     17          1           0       -0.953159    1.915559   -0.608424
     18          1           0       -0.270983   -0.307896   -1.493468
     19          1           0       -0.171649   -0.948945    0.132555
     20          1           0        1.558481    1.355613   -0.952660
     21          1           0        2.109334   -0.302324   -0.701282
     22          1           0        1.661911    0.697370    0.681690
     23          1           0       -5.373343    3.266171    0.362167
     24         17           0       -9.608431   -0.395968    0.168326
     25          1           0       -6.787094   -0.774113   -0.016051
     26          6           0       -7.784819    4.445793    0.542658
     27          1           0       -9.606022    2.439822    0.480568
     28          9           0       -7.867533    5.036577   -0.667362
     29          9           0       -8.951790    4.703782    1.161604
     30          9           0       -6.834229    5.106703    1.218220
     31          8           0       -4.848116   -2.101582   -0.214659
     32          8           0       -2.637861   -2.323806    0.022014
     33          6           0       -3.795066   -2.782834   -0.099410
     34          6           0       -3.976733   -4.305462   -0.115913
     35          6           0       -2.693521   -5.100456    0.073501
     36          1           0       -4.458295   -4.558985   -1.065786
     37          1           0       -4.709447   -4.550627    0.659154
     38          1           0       -1.971884   -4.874153   -0.713484
     39          1           0       -2.890027   -6.176724    0.058844
     40          1           0       -2.217518   -4.853222    1.024369
 ---------------------------------------------------------------------
                    Distance matrix (angstroms):
                    1          2          3          4          5
     1  C    0.000000
     2  N    1.378319   0.000000
     3  C    2.478559   1.388686   0.000000
     4  O    2.905480   2.308704   1.227621   0.000000
     5  N    3.609959   2.282066   1.352370   2.273715   0.000000
     6  C    4.890846   3.643416   2.432562   2.776811   1.448081
     7  C    6.036000   4.693299   3.703851   4.242297   2.434047
     8  C    7.370479   6.070432   4.937813   5.210803   3.791036
     9  C    1.404613   2.467729   3.022706   2.849378   4.348650
    10  C    2.409332   3.705605   4.405431   4.196099   5.718954
    11  C    2.829769   4.205182   5.211497   5.264980   6.425202
    12  C    2.413090   3.639172   4.881423   5.258183   5.920270
    13  C    1.410166   2.369104   3.701656   4.293435   4.623104
    14  H    2.046044   1.038365   2.086259   3.207768   2.418002
    15  H    3.819683   2.446338   2.073817   3.186191   1.030276
    16  H    5.201661   4.047929   2.825923   2.957841   2.104226
    17  H    5.070743   3.963348   2.642367   2.591167   2.080725
    18  H    6.066545   4.738343   3.889249   4.510488   2.668735
    19  H    6.127714   4.757615   3.982555   4.716847   2.646003
    20  H    7.555414   6.328903   5.100539   5.166849   4.124392
    21  H    8.205440   6.867886   5.833315   6.211441   4.601687
    22  H    7.609666   6.347266   5.178101   5.357462   4.113094
    23  H    2.154097   2.735341   2.755956   2.164302   4.101043
    24  Cl   4.021454   5.066483   6.404627   6.921666   7.289831
    25  H    2.157536   2.565436   3.951384   4.786632   4.589846
    26  C    3.774208   4.949121   5.370828   4.847046   6.722411
    27  H    3.911527   5.286538   6.279719   6.272433   7.504622
    28  F    4.391161   5.485997   5.822799   5.235191   7.147949
    29  F    4.752120   6.016803   6.557752   6.091915   7.900266
    30  F    4.160416   5.102819   5.211465   4.455902   6.538264
    31  O    3.480520   2.767684   3.714805   4.898617   3.589789
    32  O    4.806486   3.589989   3.736305   4.920235   2.835819
    33  C    4.510559   3.538630   4.126327   5.352517   3.574691
    34  C    5.834159   5.001336   5.658811   6.884369   5.063504
    35  C    7.068184   6.072830   6.468827   7.671971   5.609760
    36  H    6.055806   5.325709   6.076785   7.295889   5.559324
    37  H    5.888276   5.235702   6.040966   7.240830   5.608961
    38  H    7.285524   6.183744   6.417646   7.595164   5.426689
    39  H    7.964690   7.048303   7.521985   8.732590   6.696183
    40  H    7.137923   6.096144   6.371500   7.529630   5.464388
                    6          7          8          9         10
     6  C    0.000000
     7  C    1.523011   0.000000
     8  C    2.521085   1.524292   0.000000
     9  C    5.393923   6.722689   7.905114   0.000000
    10  C    6.782544   8.106119   9.293445   1.389084   0.000000
    11  C    7.642140   8.851359  10.147719   2.440962   1.389406
    12  C    7.265367   8.315037   9.709404   2.770361   2.365601
    13  C    6.010178   6.986824   8.409167   2.422025   2.759922
    14  H    3.864870   4.621507   6.095374   3.353987   4.454270
    15  H    2.135865   2.551011   4.040663   4.815229   6.122954
    16  H    1.098556   2.160373   2.737807   5.584171   6.944984
    17  H    1.093743   2.163766   2.783898   5.354930   6.720991
    18  H    2.143107   1.094393   2.163917   6.820134   8.177277
    19  H    2.148020   1.094189   2.163805   6.966380   8.325429
    20  H    2.780705   2.174824   1.094030   7.941615   9.313545
    21  H    3.477177   2.175079   1.092440   8.835612  10.223594
    22  H    2.790452   2.173945   1.093813   8.075198   9.451648
    23  H    4.905517   6.331046   7.370899   1.079313   2.155058
    24  Cl   8.697646   9.599564  11.055960   4.522916   3.981827
    25  H    6.031523   6.805422   8.288006   3.403142   3.845215
    26  C    7.595653   9.008661  10.056897   2.482201   1.499559
    27  H    8.708010   9.930225  11.217139   3.424324   2.166382
    28  F    7.962190   9.334461  10.345559   3.152415   2.363882
    29  F    8.814920  10.227730  11.294389   3.598521   2.366461
    30  F    7.203778   8.689187   9.589434   2.777700   2.368122
    31  O    4.936930   5.241349   6.754316   4.878520   5.768560
    32  O    3.708845   3.496174   4.917503   6.043950   7.209222
    33  C    4.702246   4.668041   6.128355   5.868017   6.872595
    34  C    6.086406   5.818354   7.186512   7.224725   8.111127
    35  C    6.340799   5.741838   6.914667   8.422218   9.409351
    36  H    6.635001   6.352844   7.745241   7.454904   8.265882
    37  H    6.706446   6.591652   7.964129   7.269372   8.033178
    38  H    6.010483   5.214907   6.317230   8.607562   9.674038
    39  H    7.431317   6.789008   7.909715   9.340872  10.258495
    40  H    6.074977   5.490037   6.570312   8.437698   9.467404
                   11         12         13         14         15
    11  C    0.000000
    12  C    1.388990   0.000000
    13  C    2.429346   1.379678   0.000000
    14  H    4.692754   3.840778   2.463376   0.000000
    15  H    6.633170   5.924282   4.560993   2.127222   0.000000
    16  H    7.859957   7.561961   6.358315   4.347328   2.744945
    17  H    7.697516   7.470360   6.296491   4.368475   2.945791
    18  H    8.856188   8.264434   6.934845   4.583467   2.672323
    19  H    8.950668   8.290411   6.931349   4.497224   2.379464
    20  H   10.257357   9.932146   8.682693   6.486779   4.568972
    21  H   11.013240  10.488761   9.156401   6.767457   4.667099
    22  H   10.345133   9.957789   8.683084   6.427370   4.403331
    23  H    3.416245   3.849662   3.402496   3.751290   4.769416
    24  Cl   2.705617   1.752566   2.703773   4.985838   7.106726
    25  H    3.412129   2.151870   1.085301   2.194247   4.288492
    26  C    2.484400   3.741279   4.258459   5.802929   7.273427
    27  H    1.081773   2.158614   3.408245   5.749773   7.711416
    28  F    3.203071   4.396374   4.893934   6.342754   7.748960
    29  F    2.742565   4.115958   4.947812   6.790289   8.386025
    30  F    3.577636   4.696645   4.951025   6.057083   7.212856
    31  O    5.653141   4.488666   3.224057   1.736815   2.829329
    32  O    7.419111   6.433737   5.076563   2.780841   1.806500
    33  C    6.855321   5.723631   4.435461   2.539203   2.601899
    34  C    7.904934   6.652433   5.496413   3.975042   4.058622
    35  C    9.306832   8.095617   6.890384   5.099686   4.582464
    36  H    7.965797   6.671875   5.590807   4.294066   4.597894
    37  H    7.700209   6.410266   5.375184   4.231016   4.644259
    38  H    9.671946   8.508168   7.245007   5.255839   4.434220
    39  H   10.050097   8.782954   7.653568   6.049014   5.667342
    40  H    9.447674   8.299039   7.073444   5.195168   4.469180
                   16         17         18         19         20
    16  H    0.000000
    17  H    1.757628   0.000000
    18  H    3.056731   2.488458   0.000000
    19  H    2.523780   3.060261   1.750647   0.000000
    20  H    3.078481   2.596223   2.531141   3.079291   0.000000
    21  H    3.751477   3.782392   2.508685   2.513222   1.765045
    22  H    2.554921   3.160216   3.078628   2.524647   1.764960
    23  H    5.024368   4.722735   6.500109   6.699071   7.309527
    24  Cl   9.027608   8.992232   9.484580   9.453038  11.358899
    25  H    6.441406   6.451360   6.697748   6.619424   8.663810
    26  C    7.676630   7.375545   9.121464   9.339794   9.954017
    27  H    8.904756   8.736865   9.929237  10.030566  11.308218
    28  F    8.172911   7.586356   9.324882   9.782279  10.123272
    29  F    8.835528   8.653629  10.369317  10.493005  11.231480
    30  F    7.133256   6.935922   8.930137   9.068601   9.445686
    31  O    5.457361   5.609204   5.079647   4.828921   7.317195
    32  O    4.214226   4.605202   3.458712   2.825715   5.665457
    33  C    5.215279   5.514566   4.526354   4.067691   6.820209
    34  C    6.571730   6.934383   5.622346   5.080020   7.961564
    35  C    6.770159   7.260741   5.593990   4.857816   7.798292
    36  H    7.245963   7.376645   5.982329   5.730946   8.437824
    37  H    7.073006   7.584723   6.506498   5.817305   8.761766
    38  H    6.548961   6.866515   4.934789   4.400442   7.164543
    39  H    7.851011   8.347559   6.611521   5.892765   8.806161
    40  H    6.340480   7.076794   5.548738   4.497143   7.531033
                   21         22         23         24         25
    21  H    0.000000
    22  H    1.764139   0.000000
    23  H    8.357962   7.496374   0.000000
    24  Cl  11.750362  11.334881   5.602215   0.000000
    25  H    8.935243   8.604521   4.297166   2.852530   0.000000
    26  C   11.044739  10.164188   2.690595   5.187325   5.343691
    27  H   12.089901  11.403635   4.314215   2.852930   4.303762
    28  F   11.315604  10.557413   3.227267   5.765557   5.946063
    29  F   12.283318  11.354836   3.938415   5.236910   6.006672
    30  F   10.626823   9.587204   2.500914   6.251229   6.009129
    31  O    7.202795   7.142690   5.424147   5.071133   2.358231
    32  O    5.210125   5.296292   6.232688   7.233727   4.429349
    33  C    6.432505   6.519243   6.268531   6.289994   3.604739
    34  C    7.308076   7.580158   7.714189   6.861556   4.514258
    35  C    6.832992   7.276982   8.790064   8.364040   5.956728
    36  H    7.834908   8.254687   8.006837   6.736293   4.566236
    37  H    8.148291   8.254464   7.850560   6.442216   4.362864
    38  H    6.128468   6.796531   8.887735   8.896549   6.362625
    39  H    7.751128   8.268085   9.768681   8.863750   6.661902
    40  H    6.512311   6.780595   8.736263   8.673264   6.213101
                   26         27         28         29         30
    26  C    0.000000
    27  H    2.710084   0.000000
    28  F    1.349079   3.329147   0.000000
    29  F    1.345910   2.453027   2.152088   0.000000
    30  F    1.340450   3.916531   2.151291   2.156296   0.000000
    31  O    7.215669   6.614028   7.763706   8.065185   7.612960
    32  O    8.519960   8.453265   9.055382   9.515847   8.617010
    33  C    8.281512   7.834521   8.834633   9.177765   8.556720
    34  C    9.566593   8.805881  10.134895  10.370618   9.926431
    35  C   10.829234  10.237391  11.405206  11.682165  11.074382
    36  H    9.733391   8.824603  10.190999  10.533357  10.212114
    37  H    9.508263   8.536669  10.180748  10.192841   9.904104
    38  H   11.055746  10.639552  11.531842  11.998828  11.269045
    39  H   11.706021  10.932854  12.289876  12.503857  12.009021
    40  H   10.848897  10.395874  11.514892  11.692116  10.979604
                   31         32         33         34         35
    31  O    0.000000
    32  O    2.233971   0.000000
    33  C    1.259485   1.250830   0.000000
    34  C    2.371950   2.395530   1.533515   0.000000
    35  C    3.703858   2.777686   2.571900   1.521357   0.000000
    36  H    2.629678   3.081122   2.128020   1.094730   2.169237
    37  H    2.603958   3.107435   2.129930   1.094398   2.170082
    38  H    4.026002   2.736559   2.841601   2.167930   1.091476
    39  H    4.529425   3.861337   3.516052   2.170965   1.094158
    40  H    4.003343   2.753062   2.835144   2.166823   1.091720
                   36         37         38         39         40
    36  H    0.000000
    37  H    1.743148   0.000000
    38  H    2.530946   3.079457   0.000000
    39  H    2.518200   2.512937   1.770923   0.000000
    40  H    3.078377   2.536662   1.755251   1.770922   0.000000
 Stoichiometry    C14H17ClF3N2O3(1-)
 Framework group  C1[X(C14H17ClF3N2O3)]
 Deg. of freedom   114
 Full point group                 C1      NOp   1
 Largest Abelian subgroup         C1      NOp   1
 Largest concise Abelian subgroup C1      NOp   1
                         Standard orientation:                         
 ---------------------------------------------------------------------
 Center     Atomic      Atomic             Coordinates (Angstroms)
 Number     Number       Type             X           Y           Z
 ---------------------------------------------------------------------
      1          6           0       -0.889636    0.084642    0.041240
      2          7           0        0.448704   -0.243980    0.066103
      3          6           0        1.002197   -1.516382    0.010559
      4          8           0        0.338142   -2.547068   -0.050838
      5          7           0        2.354099   -1.499652    0.041976
      6          6           0        3.108786   -2.729162   -0.083285
      7          6           0        4.566858   -2.484740    0.282563
      8          6           0        5.405815   -3.747394    0.123435
      9          6           0       -1.943400   -0.840178   -0.043770
     10          6           0       -3.252193   -0.375320   -0.066646
     11          6           0       -3.575412    0.974588   -0.005598
     12          6           0       -2.515018    1.867840    0.077830
     13          6           0       -1.197401    1.459447    0.102553
     14          1           0        1.097519    0.564468    0.126541
     15          1           0        2.866181   -0.607987   -0.022645
     16          1           0        3.040416   -3.124014   -1.106146
     17          1           0        2.671003   -3.486191    0.573621
     18          1           0        4.616139   -2.122083    1.313945
     19          1           0        4.965537   -1.681024   -0.343810
     20          1           0        5.029354   -4.556275    0.756594
     21          1           0        6.448358   -3.569977    0.397390
     22          1           0        5.391774   -4.104042   -0.910505
     23          1           0       -1.725451   -1.896025   -0.094796
     24         17           0       -2.871159    3.582360    0.149059
     25          1           0       -0.387585    2.179312    0.164782
     26          6           0       -4.365932   -1.379167   -0.090187
     27          1           0       -4.600324    1.320025   -0.027120
     28          9           0       -4.701469   -1.792678    1.149345
     29          9           0       -5.493073   -0.882947   -0.633136
     30          9           0       -4.056740   -2.484223   -0.783048
     31          8           0        1.967708    2.065943    0.196326
     32          8           0        3.841601    0.905578   -0.167962
     33          6           0        3.207044    1.971441   -0.007188
     34          6           0        3.981347    3.294300   -0.053756
     35          6           0        5.466885    3.150849   -0.348924
     36          1           0        3.819022    3.792934    0.907206
     37          1           0        3.491455    3.927934   -0.799557
     38          1           0        5.960189    2.539006    0.408452
     39          1           0        5.960288    4.127088   -0.375234
     40          1           0        5.628511    2.660580   -1.310884
 ---------------------------------------------------------------------
 Rotational constants (GHZ):      0.2752449      0.1148324      0.0825629
 Standard basis: 6-311+G(d) (5D, 7F)
 There are   588 symmetry adapted cartesian basis functions of A   symmetry.
 There are   565 symmetry adapted basis functions of A   symmetry.
   565 basis functions,   930 primitive gaussians,   588 cartesian basis functions
    92 alpha electrons       92 beta electrons
       nuclear repulsion energy      2087.0948699510 Hartrees.
 NAtoms=   40 NActive=   40 NUniq=   40 SFac= 1.00D+00 NAtFMM=   60 NAOKFM=F Big=F
 Integral buffers will be    131072 words long.
 Raffenetti 2 integral format.
 Two-electron integral symmetry is turned on.
 Nuclear repulsion after empirical dispersion term =     2087.0923985013 Hartrees.
 ------------------------------------------------------------------------------
 Polarizable Continuum Model (PCM)
 =================================
 Model                : PCM (using non-symmetric T matrix).
 Atomic radii         : SMD-Coulomb.
 Polarization charges : Total charges.
 Charge compensation  : None.
 Solution method      : On-the-fly selection.
 Cavity type          : VdW (van der Waals Surface) (Alpha=1.000).
 Cavity algorithm     : GePol (No added spheres)
                        Default sphere list used, NSphG=   40.
                        Lebedev-Laikov grids with approx.  5.0 points / Ang**2.
                        Smoothing algorithm: York/Karplus (Gamma=1.0000).
                        Polarization charges: spherical gaussians, with
                                              point-specific exponents (IZeta= 3).
                        Self-potential: point-specific (ISelfS= 7).
                        Self-field    : sphere-specific E.n sum rule (ISelfD= 2).
 1st derivatives      : Analytical E(r).r(x)/FMM algorithm (CHGder, D1EAlg=3).
                        Cavity 1st derivative terms included.
 Solvent              : n-Pentadecane, Eps=   2.033300 Eps(inf)=   2.049192
 ------------------------------------------------------------------------------
 ------------------------------------------------------------------------------
 Atomic radii for non-electrostatic terms: SMD-CDS.
 ------------------------------------------------------------------------------
 Nuclear repulsion after PCM non-electrostatic terms =     2087.0828200230 Hartrees.
 One-electron integrals computed using PRISM.
 NBasis=   565 RedAO= T EigKep=  1.28D-06  NBF=   565
 NBsUse=   562 1.00D-06 EigRej=  9.40D-07 NBFU=   562
 ExpMin= 4.38D-02 ExpMax= 1.06D+05 ExpMxC= 3.62D+03 IAcc=3 IRadAn=         5 AccDes= 0.00D+00
 Harris functional with IExCor= 1009 and IRadAn=       5 diagonalized for initial guess.
 HarFok:  IExCor= 1009 AccDes= 0.00D+00 IRadAn=         5 IDoV= 1 UseB2=F ITyADJ=14
 ICtDFT=  3500011 ScaDFX=  1.000000  1.000000  1.000000  1.000000
 FoFCou: FMM=F IPFlag=           0 FMFlag=      100000 FMFlg1=           0
         NFxFlg=           0 DoJE=T BraDBF=F KetDBF=T FulRan=T
         wScrn=  0.000000 ICntrl=     500 IOpCl=  0 I1Cent=   200000004 NGrid=           0
         NMat0=    1 NMatS0=      1 NMatT0=    0 NMatD0=    1 NMtDS0=    0 NMtDT0=    0
 Petite list used in FoFCou.
 Requested convergence on RMS density matrix=1.00D-08 within 128 cycles.
 Requested convergence on MAX density matrix=1.00D-06.
 Requested convergence on             energy=1.00D-06.
 No special actions if energy rises.
 Inv3:  Mode=1 IEnd=    30089667.
 Iteration    1 A*A^-1 deviation from unit magnitude is 4.44D-15 for   3126.
 Iteration    1 A*A^-1 deviation from orthogonality  is 5.55D-15 for   1032     53.
 Iteration    1 A^-1*A deviation from unit magnitude is 5.33D-15 for   3163.
 Iteration    1 A^-1*A deviation from orthogonality  is 3.66D-15 for   1038     63.
 Error on total polarization charges =  0.02346
 SCF Done:  E(RM062X) =  -1638.71847281     A.U. after   15 cycles
            NFock= 15  Conv=0.79D-08     -V/T= 2.0030
 SMD-CDS (non-electrostatic) energy       (kcal/mol) =      -6.01
 (included in total energy above)

 **********************************************************************

            Population analysis using the SCF density.

 **********************************************************************

 Orbital symmetries:
       Occupied  (A) (A) (A) (A) (A) (A) (A) (A) (A) (A) (A) (A)
                 (A) (A) (A) (A) (A) (A) (A) (A) (A) (A) (A) (A)
                 (A) (A) (A) (A) (A) (A) (A) (A) (A) (A) (A) (A)
                 (A) (A) (A) (A) (A) (A) (A) (A) (A) (A) (A) (A)
                 (A) (A) (A) (A) (A) (A) (A) (A) (A) (A) (A) (A)
                 (A) (A) (A) (A) (A) (A) (A) (A) (A) (A) (A) (A)
                 (A) (A) (A) (A) (A) (A) (A) (A) (A) (A) (A) (A)
                 (A) (A) (A) (A) (A) (A) (A) (A)
       Virtual   (A) (A) (A) (A) (A) (A) (A) (A) (A) (A) (A) (A)
                 (A) (A) (A) (A) (A) (A) (A) (A) (A) (A) (A) (A)
                 (A) (A) (A) (A) (A) (A) (A) (A) (A) (A) (A) (A)
                 (A) (A) (A) (A) (A) (A) (A) (A) (A) (A) (A) (A)
                 (A) (A) (A) (A) (A) (A) (A) (A) (A) (A) (A) (A)
                 (A) (A) (A) (A) (A) (A) (A) (A) (A) (A) (A) (A)
                 (A) (A) (A) (A) (A) (A) (A) (A) (A) (A) (A) (A)
                 (A) (A) (A) (A) (A) (A) (A) (A) (A) (A) (A) (A)
                 (A) (A) (A) (A) (A) (A) (A) (A) (A) (A) (A) (A)
                 (A) (A) (A) (A) (A) (A) (A) (A) (A) (A) (A) (A)
                 (A) (A) (A) (A) (A) (A) (A) (A) (A) (A) (A) (A)
                 (A) (A) (A) (A) (A) (A) (A) (A) (A) (A) (A) (A)
                 (A) (A) (A) (A) (A) (A) (A) (A) (A) (A) (A) (A)
                 (A) (A) (A) (A) (A) (A) (A) (A) (A) (A) (A) (A)
                 (A) (A) (A) (A) (A) (A) (A) (A) (A) (A) (A) (A)
                 (A) (A) (A) (A) (A) (A) (A) (A) (A) (A) (A) (A)
                 (A) (A) (A) (A) (A) (A) (A) (A) (A) (A) (A) (A)
                 (A) (A) (A) (A) (A) (A) (A) (A) (A) (A) (A) (A)
                 (A) (A) (A) (A) (A) (A) (A) (A) (A) (A) (A) (A)
                 (A) (A) (A) (A) (A) (A) (A) (A) (A) (A) (A) (A)
                 (A) (A) (A) (A) (A) (A) (A) (A) (A) (A) (A) (A)
                 (A) (A) (A) (A) (A) (A) (A) (A) (A) (A) (A) (A)
                 (A) (A) (A) (A) (A) (A) (A) (A) (A) (A) (A) (A)
                 (A) (A) (A) (A) (A) (A) (A) (A) (A) (A) (A) (A)
                 (A) (A) (A) (A) (A) (A) (A) (A) (A) (A) (A) (A)
                 (A) (A) (A) (A) (A) (A) (A) (A) (A) (A) (A) (A)
                 (A) (A) (A) (A) (A) (A) (A) (A) (A) (A) (A) (A)
                 (A) (A) (A) (A) (A) (A) (A) (A) (A) (A) (A) (A)
                 (A) (A) (A) (A) (A) (A) (A) (A) (A) (A) (A) (A)
                 (A) (A) (A) (A) (A) (A) (A) (A) (A) (A) (A) (A)
                 (A) (A) (A) (A) (A) (A) (A) (A) (A) (A) (A) (A)
                 (A) (A) (A) (A) (A) (A) (A) (A) (A) (A) (A) (A)
                 (A) (A) (A) (A) (A) (A) (A) (A) (A) (A) (A) (A)
                 (A) (A) (A) (A) (A) (A) (A) (A) (A) (A) (A) (A)
                 (A) (A) (A) (A) (A) (A) (A) (A) (A) (A) (A) (A)
                 (A) (A) (A) (A) (A) (A) (A) (A) (A) (A) (A) (A)
                 (A) (A) (A) (A) (A) (A) (A) (A) (A) (A) (A) (A)
                 (A) (A) (A) (A) (A) (A) (A) (A) (A) (A) (A) (A)
                 (A) (A) (A) (A) (A) (A) (A) (A) (A) (A) (A) (A)
                 (A) (A)
 The electronic state is 1-A.
 Alpha  occ. eigenvalues -- -102.63534 -25.23881 -25.23709 -25.23374 -19.52253
 Alpha  occ. eigenvalues --  -19.50003 -19.49754 -14.70655 -14.68701 -10.76100
 Alpha  occ. eigenvalues --  -10.60617 -10.56793 -10.56140 -10.55481 -10.53078
 Alpha  occ. eigenvalues --  -10.51333 -10.50917 -10.50479 -10.50190 -10.48079
 Alpha  occ. eigenvalues --  -10.48042 -10.46751 -10.46449  -9.77806  -7.50309
 Alpha  occ. eigenvalues --   -7.49654  -7.49643  -1.42998  -1.33712  -1.33238
 Alpha  occ. eigenvalues --   -1.11091  -1.09052  -0.99741  -0.99106  -0.96513
 Alpha  occ. eigenvalues --   -0.94807  -0.90330  -0.84013  -0.82394  -0.80035
 Alpha  occ. eigenvalues --   -0.79107  -0.76732  -0.72827  -0.68965  -0.67189
 Alpha  occ. eigenvalues --   -0.66422  -0.65330  -0.65048  -0.62694  -0.60913
 Alpha  occ. eigenvalues --   -0.59750  -0.56603  -0.54397  -0.53626  -0.53525
 Alpha  occ. eigenvalues --   -0.52958  -0.51419  -0.50087  -0.49748  -0.49272
 Alpha  occ. eigenvalues --   -0.48179  -0.47865  -0.47372  -0.46746  -0.46338
 Alpha  occ. eigenvalues --   -0.46223  -0.45836  -0.44645  -0.43687  -0.43314
 Alpha  occ. eigenvalues --   -0.43263  -0.41595  -0.40561  -0.40271  -0.39622
 Alpha  occ. eigenvalues --   -0.38732  -0.38028  -0.37347  -0.36859  -0.35982
 Alpha  occ. eigenvalues --   -0.35146  -0.34404  -0.34000  -0.33878  -0.32514
 Alpha  occ. eigenvalues --   -0.28576  -0.26618  -0.25856  -0.25432  -0.24938
 Alpha  occ. eigenvalues --   -0.24767  -0.21454
 Alpha virt. eigenvalues --    0.04360   0.05523   0.05914   0.05992   0.06595
 Alpha virt. eigenvalues --    0.07048   0.07615   0.07860   0.08121   0.08738
 Alpha virt. eigenvalues --    0.08895   0.09046   0.09639   0.09746   0.10441
 Alpha virt. eigenvalues --    0.10672   0.10925   0.11493   0.11548   0.12072
 Alpha virt. eigenvalues --    0.12295   0.12628   0.13273   0.13388   0.13996
 Alpha virt. eigenvalues --    0.14355   0.14703   0.15150   0.15461   0.15794
 Alpha virt. eigenvalues --    0.15933   0.16299   0.16504   0.17046   0.17459
 Alpha virt. eigenvalues --    0.17850   0.17944   0.18195   0.18874   0.19454
 Alpha virt. eigenvalues --    0.20156   0.20385   0.20718   0.21259   0.21776
 Alpha virt. eigenvalues --    0.22286   0.22345   0.23025   0.23494   0.23849
 Alpha virt. eigenvalues --    0.24021   0.24500   0.24937   0.25403   0.25602
 Alpha virt. eigenvalues --    0.25774   0.26061   0.26279   0.26932   0.27138
 Alpha virt. eigenvalues --    0.27711   0.27962   0.28467   0.28737   0.28837
 Alpha virt. eigenvalues --    0.29174   0.29486   0.29710   0.30132   0.30537
 Alpha virt. eigenvalues --    0.30708   0.31018   0.31291   0.31427   0.31523
 Alpha virt. eigenvalues --    0.31990   0.32272   0.32726   0.32864   0.33067
 Alpha virt. eigenvalues --    0.33213   0.33990   0.34281   0.34520   0.34844
 Alpha virt. eigenvalues --    0.35040   0.35180   0.35599   0.35959   0.36738
 Alpha virt. eigenvalues --    0.36885   0.37642   0.38109   0.38474   0.39078
 Alpha virt. eigenvalues --    0.39263   0.39434   0.39640   0.40415   0.40746
 Alpha virt. eigenvalues --    0.40934   0.41136   0.41683   0.42212   0.42818
 Alpha virt. eigenvalues --    0.42872   0.43516   0.44116   0.44337   0.44967
 Alpha virt. eigenvalues --    0.45246   0.45479   0.45911   0.47078   0.47540
 Alpha virt. eigenvalues --    0.47777   0.48540   0.48873   0.49566   0.49697
 Alpha virt. eigenvalues --    0.50698   0.51172   0.51671   0.51846   0.52745
 Alpha virt. eigenvalues --    0.53174   0.53950   0.54194   0.54409   0.55685
 Alpha virt. eigenvalues --    0.56242   0.56434   0.57514   0.58411   0.58877
 Alpha virt. eigenvalues --    0.59791   0.59952   0.60521   0.61228   0.61560
 Alpha virt. eigenvalues --    0.62239   0.62952   0.63264   0.64275   0.65612
 Alpha virt. eigenvalues --    0.66231   0.66924   0.67371   0.68712   0.69241
 Alpha virt. eigenvalues --    0.70115   0.70703   0.71473   0.71880   0.72181
 Alpha virt. eigenvalues --    0.72689   0.73213   0.73657   0.74557   0.74810
 Alpha virt. eigenvalues --    0.75427   0.76020   0.76643   0.77001   0.78080
 Alpha virt. eigenvalues --    0.78413   0.78655   0.78993   0.79229   0.79897
 Alpha virt. eigenvalues --    0.81042   0.81343   0.81965   0.82744   0.83087
 Alpha virt. eigenvalues --    0.83682   0.84264   0.84521   0.84606   0.85295
 Alpha virt. eigenvalues --    0.85863   0.86649   0.86726   0.87457   0.88285
 Alpha virt. eigenvalues --    0.89130   0.93423   0.93816   0.95245   0.95810
 Alpha virt. eigenvalues --    0.96425   0.97387   0.98129   0.98372   0.99581
 Alpha virt. eigenvalues --    1.00631   1.00901   1.02202   1.03017   1.03593
 Alpha virt. eigenvalues --    1.04633   1.05375   1.05950   1.06839   1.08103
 Alpha virt. eigenvalues --    1.09460   1.10543   1.11566   1.12802   1.13208
 Alpha virt. eigenvalues --    1.14851   1.15071   1.15852   1.18390   1.19552
 Alpha virt. eigenvalues --    1.20253   1.21080   1.23348   1.23660   1.24266
 Alpha virt. eigenvalues --    1.25865   1.27619   1.28011   1.28978   1.29198
 Alpha virt. eigenvalues --    1.30290   1.31156   1.32392   1.32951   1.34521
 Alpha virt. eigenvalues --    1.35069   1.37277   1.38395   1.38844   1.39551
 Alpha virt. eigenvalues --    1.41187   1.42793   1.44056   1.44276   1.45320
 Alpha virt. eigenvalues --    1.47399   1.49854   1.50626   1.51310   1.51639
 Alpha virt. eigenvalues --    1.51834   1.52580   1.53687   1.54784   1.55565
 Alpha virt. eigenvalues --    1.56712   1.58083   1.58833   1.58996   1.59203
 Alpha virt. eigenvalues --    1.61220   1.62119   1.62798   1.64071   1.64860
 Alpha virt. eigenvalues --    1.65482   1.66189   1.67068   1.67366   1.68034
 Alpha virt. eigenvalues --    1.68516   1.69494   1.70574   1.71307   1.74131
 Alpha virt. eigenvalues --    1.74759   1.76633   1.78460   1.80854   1.81652
 Alpha virt. eigenvalues --    1.82539   1.83915   1.84164   1.84373   1.85062
 Alpha virt. eigenvalues --    1.86348   1.87466   1.88329   1.88588   1.90035
 Alpha virt. eigenvalues --    1.91585   1.92472   1.93864   1.95065   1.96104
 Alpha virt. eigenvalues --    1.97564   1.98473   2.00093   2.00389   2.03737
 Alpha virt. eigenvalues --    2.04544   2.05807   2.07508   2.08306   2.10212
 Alpha virt. eigenvalues --    2.11872   2.14292   2.16264   2.17469   2.18604
 Alpha virt. eigenvalues --    2.22033   2.22890   2.24181   2.24785   2.27309
 Alpha virt. eigenvalues --    2.29355   2.32070   2.34706   2.35131   2.36942
 Alpha virt. eigenvalues --    2.39847   2.40482   2.42740   2.44805   2.46284
 Alpha virt. eigenvalues --    2.52237   2.53926   2.55261   2.59085   2.59488
 Alpha virt. eigenvalues --    2.60106   2.60791   2.61419   2.63347   2.64477
 Alpha virt. eigenvalues --    2.64883   2.66178   2.67631   2.68319   2.70487
 Alpha virt. eigenvalues --    2.72346   2.72781   2.73797   2.76347   2.77106
 Alpha virt. eigenvalues --    2.83043   2.83602   2.83798   2.88618   2.89771
 Alpha virt. eigenvalues --    2.91646   2.93063   2.96483   2.97781   3.00578
 Alpha virt. eigenvalues --    3.01260   3.03092   3.03232   3.05379   3.06580
 Alpha virt. eigenvalues --    3.07733   3.08437   3.08833   3.09871   3.12074
 Alpha virt. eigenvalues --    3.12944   3.15329   3.17626   3.17975   3.19856
 Alpha virt. eigenvalues --    3.22023   3.23950   3.26677   3.28864   3.31289
 Alpha virt. eigenvalues --    3.31794   3.32222   3.33792   3.35895   3.38677
 Alpha virt. eigenvalues --    3.39442   3.43226   3.43710   3.44543   3.47028
 Alpha virt. eigenvalues --    3.48385   3.49335   3.49720   3.50290   3.53209
 Alpha virt. eigenvalues --    3.54486   3.57460   3.66191   3.70513   3.73438
 Alpha virt. eigenvalues --    3.78060   3.78867   3.81372   3.84560   3.85229
 Alpha virt. eigenvalues --    3.86276   3.88532   3.89304   3.90116   3.91641
 Alpha virt. eigenvalues --    3.92032   3.93131   3.95681   4.01933   4.05657
 Alpha virt. eigenvalues --    4.06403   4.07624   4.08244   4.12461   4.13548
 Alpha virt. eigenvalues --    4.14896   4.17318   4.26232   4.27964   4.29282
 Alpha virt. eigenvalues --    4.31598   4.34465   4.70920   4.75961   4.80905
 Alpha virt. eigenvalues --    4.86235   5.00045   5.02934   5.05656   5.25691
 Alpha virt. eigenvalues --    5.27514   5.28477   5.30838   5.47495   5.50902
 Alpha virt. eigenvalues --    5.52429   5.84175   5.98211   6.10677   6.51229
 Alpha virt. eigenvalues --    6.53268   6.55542   6.56190   6.57775   6.60887
 Alpha virt. eigenvalues --    6.65752   6.91920   6.93183  10.01720  23.52211
 Alpha virt. eigenvalues --   23.65332  23.68807  23.70163  23.81412  23.86867
 Alpha virt. eigenvalues --   23.87614  23.97360  24.01580  24.04612  24.05070
 Alpha virt. eigenvalues --   24.14168  24.17752  24.25405  25.98344  26.29031
 Alpha virt. eigenvalues --   26.76856  35.71505  35.81275  50.15377  50.23062
 Alpha virt. eigenvalues --   50.24064  66.93726  66.94919  67.00043 216.11948
          Condensed to atoms (all electrons):
               1          2          3          4          5          6
     1  C   27.054569  -0.183504   0.655402  -0.285679  -0.024233  -0.267038
     2  N   -0.183504   8.380829   0.384735  -0.086301  -0.716822  -0.679769
     3  C    0.655402   0.384735   9.428560   0.698761   0.147580  -1.669900
     4  O   -0.285679  -0.086301   0.698761   8.140365  -0.187459  -0.135472
     5  N   -0.024233  -0.716822   0.147580  -0.187459   8.180816   0.680162
     6  C   -0.267038  -0.679769  -1.669900  -0.135472   0.680162   9.249108
     7  C   -0.016999   0.069197   0.439537   0.023499  -0.092786  -1.127180
     8  C   -0.008185  -0.022912  -0.330114  -0.002256  -0.037278   0.531419
     9  C   -4.059532   0.456500  -1.294583   0.262934  -0.215071  -0.508171
    10  C  -10.326995   0.138999  -0.959202   0.103355   0.051342  -0.045627
    11  C   -0.282637  -0.049359   0.141115  -0.019880  -0.023390   0.011880
    12  C   -5.460745   0.009816  -0.943327  -0.008903  -0.041891  -0.105376
    13  C    2.054553  -0.256195  -0.428831  -0.087699  -0.294756  -0.203444
    14  H   -0.055306   0.069938  -0.048178  -0.002740   0.023456   0.029755
    15  H   -0.033290   0.034386  -0.025329  -0.008250   0.107186   0.015065
    16  H    0.011712   0.003991   0.040696  -0.004130  -0.061122   0.417129
    17  H    0.007188   0.013480   0.074185   0.004919  -0.079091   0.322482
    18  H    0.003601   0.000073   0.023731  -0.000259   0.006210  -0.071195
    19  H   -0.003491  -0.000995  -0.016115  -0.000276   0.007179  -0.064455
    20  H   -0.000221  -0.000061  -0.007752  -0.000084   0.000582  -0.053367
    21  H    0.000076  -0.000013   0.004191   0.000017  -0.001848   0.076388
    22  H    0.000149   0.000068   0.006706  -0.000013   0.000657  -0.026662
    23  H    0.154687  -0.031208   0.092755   0.008811   0.006877   0.010419
    24  Cl  -0.170857  -0.019147  -0.063407  -0.000246  -0.000644  -0.002266
    25  H    0.084354  -0.029687  -0.008712   0.000144   0.000641  -0.000427
    26  C   -1.682243   0.026210  -0.337655   0.008160  -0.001242  -0.023906
    27  H    0.006722   0.000664   0.002325  -0.000004   0.000004   0.000019
    28  F   -0.008428   0.000704   0.000478   0.000138   0.000014  -0.000043
    29  F    0.029168   0.000281   0.002468   0.000014   0.000007   0.000048
    30  F    0.101690   0.000322   0.014390  -0.000571  -0.000089   0.000177
    31  O   -0.209364   0.025314   0.009709  -0.000787  -0.055002  -0.017140
    32  O    0.000124  -0.039686  -0.053410   0.000131  -0.010184   0.079755
    33  C    0.207354  -0.002991   0.011514  -0.001564   0.041619   0.005577
    34  C   -0.191753  -0.052810  -0.056762  -0.001411  -0.062237   0.084652
    35  C   -0.000709   0.002595   0.005389   0.000096   0.009580  -0.015285
    36  H    0.000385   0.000477   0.000532   0.000000  -0.000065  -0.000458
    37  H    0.002435   0.000203  -0.000302  -0.000000   0.000228   0.000142
    38  H    0.000235  -0.000009  -0.000416  -0.000000   0.000122   0.000896
    39  H    0.000092   0.000018   0.000177   0.000000  -0.000076  -0.000103
    40  H   -0.000011  -0.000020  -0.000234  -0.000000   0.000203  -0.000078
               7          8          9         10         11         12
     1  C   -0.016999  -0.008185  -4.059532 -10.326995  -0.282637  -5.460745
     2  N    0.069197  -0.022912   0.456500   0.138999  -0.049359   0.009816
     3  C    0.439537  -0.330114  -1.294583  -0.959202   0.141115  -0.943327
     4  O    0.023499  -0.002256   0.262934   0.103355  -0.019880  -0.008903
     5  N   -0.092786  -0.037278  -0.215071   0.051342  -0.023390  -0.041891
     6  C   -1.127180   0.531419  -0.508171  -0.045627   0.011880  -0.105376
     7  C    6.643468  -0.523400   0.020158  -0.003733   0.000242   0.001926
     8  C   -0.523400   6.525552  -0.011814   0.000047   0.000091  -0.001446
     9  C    0.020158  -0.011814  17.934835   4.275393  -3.548104  -1.778962
    10  C   -0.003733   0.000047   4.275393  23.681779  -5.951141  -1.423927
    11  C    0.000242   0.000091  -3.548104  -5.951141  25.325591  -5.954601
    12  C    0.001926  -0.001446  -1.778962  -1.423927  -5.954601  21.024140
    13  C    0.020820  -0.007928  -5.303669  -3.845808  -1.570881   2.059221
    14  H   -0.007104   0.000382  -0.039694  -0.006078   0.008671   0.025875
    15  H   -0.038467   0.010449  -0.033441  -0.007914   0.002469  -0.001273
    16  H   -0.067132  -0.021482   0.000684   0.000167   0.000018   0.000191
    17  H    0.011310  -0.013726  -0.008981  -0.000998   0.000194   0.000099
    18  H    0.437806  -0.068384  -0.000042  -0.000002   0.000005   0.000054
    19  H    0.466992  -0.061578  -0.001077  -0.000067   0.000011   0.000002
    20  H    0.004352   0.400105  -0.000127  -0.000008   0.000000   0.000000
    21  H   -0.133810   0.405554   0.000042   0.000001  -0.000000  -0.000000
    22  H    0.038823   0.326210   0.000018  -0.000001   0.000000   0.000001
    23  H   -0.000430   0.000089   0.232770  -0.195920   0.032770  -0.033886
    24  Cl  -0.000008  -0.000008   0.176521  -0.022149   0.190192  -1.248763
    25  H    0.000036   0.000003  -0.031406   0.022300   0.032251  -0.099362
    26  C    0.000372  -0.000340  -0.078587   0.899168  -1.896694  -1.143316
    27  H   -0.000000   0.000000  -0.034443  -0.006188   0.127006   0.164021
    28  F   -0.000002  -0.000000  -0.025616   0.130817  -0.092683  -0.020490
    29  F   -0.000000   0.000000   0.029279  -0.255993   0.015684   0.137553
    30  F   -0.000001  -0.000001  -0.023833  -0.223074   0.086467   0.018810
    31  O   -0.001273  -0.000237   0.039631   0.009770  -0.016116   0.030678
    32  O   -0.019063   0.007908  -0.002677   0.000301  -0.000525  -0.003203
    33  C    0.006994  -0.010401  -0.124131  -0.048011   0.027525  -0.072309
    34  C   -0.035996   0.008773  -0.071270  -0.013674   0.021391   0.060031
    35  C    0.010259  -0.003631  -0.002006  -0.000678   0.000934   0.003185
    36  H    0.000536   0.000027   0.000100  -0.000019  -0.000050  -0.000598
    37  H   -0.000260  -0.000024   0.000357   0.000056  -0.000158  -0.000932
    38  H   -0.000575  -0.000053   0.000023   0.000003  -0.000003  -0.000027
    39  H   -0.000023  -0.000007   0.000012   0.000000  -0.000001  -0.000022
    40  H    0.000411   0.000186   0.000008   0.000001  -0.000003  -0.000036
              13         14         15         16         17         18
     1  C    2.054553  -0.055306  -0.033290   0.011712   0.007188   0.003601
     2  N   -0.256195   0.069938   0.034386   0.003991   0.013480   0.000073
     3  C   -0.428831  -0.048178  -0.025329   0.040696   0.074185   0.023731
     4  O   -0.087699  -0.002740  -0.008250  -0.004130   0.004919  -0.000259
     5  N   -0.294756   0.023456   0.107186  -0.061122  -0.079091   0.006210
     6  C   -0.203444   0.029755   0.015065   0.417129   0.322482  -0.071195
     7  C    0.020820  -0.007104  -0.038467  -0.067132   0.011310   0.437806
     8  C   -0.007928   0.000382   0.010449  -0.021482  -0.013726  -0.068384
     9  C   -5.303669  -0.039694  -0.033441   0.000684  -0.008981  -0.000042
    10  C   -3.845808  -0.006078  -0.007914   0.000167  -0.000998  -0.000002
    11  C   -1.570881   0.008671   0.002469   0.000018   0.000194   0.000005
    12  C    2.059221   0.025875  -0.001273   0.000191   0.000099   0.000054
    13  C   13.850810   0.051614   0.031495  -0.000270   0.002591   0.000087
    14  H    0.051614   0.318528   0.028643  -0.000019  -0.000145   0.000064
    15  H    0.031495   0.028643   0.334956   0.001361   0.002688   0.000207
    16  H   -0.000270  -0.000019   0.001361   0.474637  -0.049167   0.006423
    17  H    0.002591  -0.000145   0.002688  -0.049167   0.476377  -0.009706
    18  H    0.000087   0.000064   0.000207   0.006423  -0.009706   0.445610
    19  H    0.000881   0.000052   0.006795  -0.008605   0.005505  -0.036884
    20  H    0.000036  -0.000000   0.000041  -0.000865   0.003373  -0.008571
    21  H   -0.000015   0.000000  -0.000071  -0.000116  -0.000267  -0.003964
    22  H    0.000013   0.000000  -0.000057   0.003475  -0.000574   0.006564
    23  H    0.025019  -0.000510   0.000047  -0.000020  -0.000038   0.000000
    24  Cl   0.255783   0.002079  -0.000003   0.000001   0.000001   0.000000
    25  H    0.313264   0.012414  -0.000110  -0.000000  -0.000000  -0.000000
    26  C   -0.369308  -0.000801  -0.000533   0.000002  -0.000168   0.000002
    27  H    0.022505  -0.000005  -0.000000  -0.000000  -0.000000  -0.000000
    28  F    0.001531   0.000001  -0.000000  -0.000000  -0.000000   0.000000
    29  F    0.019771   0.000002   0.000000   0.000000  -0.000000   0.000000
    30  F    0.005385   0.000000  -0.000000  -0.000000  -0.000000  -0.000000
    31  O    0.194690   0.079738   0.010715  -0.000020   0.000019  -0.000090
    32  O   -0.011044   0.011304   0.075116   0.000678  -0.001210  -0.000614
    33  C   -0.071856  -0.011649  -0.008239   0.000934  -0.001032   0.000890
    34  C    0.156307   0.049413   0.049552   0.000310  -0.000624   0.001274
    35  C   -0.000594  -0.003359  -0.005603  -0.000007   0.000091   0.000078
    36  H   -0.000366  -0.000227  -0.000016   0.000000   0.000000  -0.000002
    37  H   -0.000651  -0.000386  -0.000095  -0.000000   0.000000   0.000000
    38  H   -0.000117  -0.000021  -0.000327  -0.000000  -0.000000   0.000004
    39  H   -0.000081  -0.000000   0.000052   0.000000  -0.000000   0.000000
    40  H   -0.000058  -0.000013  -0.000307   0.000001  -0.000000  -0.000004
              19         20         21         22         23         24
     1  C   -0.003491  -0.000221   0.000076   0.000149   0.154687  -0.170857
     2  N   -0.000995  -0.000061  -0.000013   0.000068  -0.031208  -0.019147
     3  C   -0.016115  -0.007752   0.004191   0.006706   0.092755  -0.063407
     4  O   -0.000276  -0.000084   0.000017  -0.000013   0.008811  -0.000246
     5  N    0.007179   0.000582  -0.001848   0.000657   0.006877  -0.000644
     6  C   -0.064455  -0.053367   0.076388  -0.026662   0.010419  -0.002266
     7  C    0.466992   0.004352  -0.133810   0.038823  -0.000430  -0.000008
     8  C   -0.061578   0.400105   0.405554   0.326210   0.000089  -0.000008
     9  C   -0.001077  -0.000127   0.000042   0.000018   0.232770   0.176521
    10  C   -0.000067  -0.000008   0.000001  -0.000001  -0.195920  -0.022149
    11  C    0.000011   0.000000  -0.000000   0.000000   0.032770   0.190192
    12  C    0.000002   0.000000  -0.000000   0.000001  -0.033886  -1.248763
    13  C    0.000881   0.000036  -0.000015   0.000013   0.025019   0.255783
    14  H    0.000052  -0.000000   0.000000   0.000000  -0.000510   0.002079
    15  H    0.006795   0.000041  -0.000071  -0.000057   0.000047  -0.000003
    16  H   -0.008605  -0.000865  -0.000116   0.003475  -0.000020   0.000001
    17  H    0.005505   0.003373  -0.000267  -0.000574  -0.000038   0.000001
    18  H   -0.036884  -0.008571  -0.003964   0.006564   0.000000   0.000000
    19  H    0.435954   0.006598  -0.003623  -0.008041  -0.000000   0.000000
    20  H    0.006598   0.465667  -0.026243  -0.038054  -0.000000   0.000000
    21  H   -0.003623  -0.026243   0.447181  -0.026798   0.000000   0.000000
    22  H   -0.008041  -0.038054  -0.026798   0.460742   0.000000  -0.000000
    23  H   -0.000000  -0.000000   0.000000   0.000000   0.345826  -0.000008
    24  Cl   0.000000   0.000000   0.000000  -0.000000  -0.000008  17.601971
    25  H   -0.000001  -0.000000   0.000000   0.000000   0.000011  -0.014603
    26  C   -0.000004  -0.000001   0.000000   0.000000   0.014853  -0.036776
    27  H    0.000000  -0.000000   0.000000   0.000000  -0.000232  -0.017335
    28  F   -0.000000  -0.000000   0.000000   0.000000  -0.001328  -0.000049
    29  F    0.000000   0.000000  -0.000000   0.000000   0.000281   0.000999
    30  F   -0.000000  -0.000000   0.000000   0.000000   0.006505  -0.000259
    31  O    0.000053  -0.000002   0.000000   0.000000  -0.000028   0.000497
    32  O   -0.005222  -0.000103   0.000062   0.000114  -0.000002   0.000007
    33  C    0.003743  -0.000020  -0.000103   0.000218   0.000470  -0.002262
    34  C   -0.000945  -0.000036   0.000080   0.000010   0.000075  -0.000934
    35  C    0.001920   0.000019  -0.000040   0.000011   0.000000   0.000166
    36  H    0.000002   0.000000  -0.000000   0.000000  -0.000000  -0.000005
    37  H    0.000004   0.000000  -0.000000   0.000000  -0.000000   0.000041
    38  H   -0.000037  -0.000000   0.000001   0.000000   0.000000   0.000000
    39  H   -0.000002  -0.000000   0.000000  -0.000000  -0.000000   0.000000
    40  H   -0.000055  -0.000000   0.000000  -0.000000   0.000000  -0.000000
              25         26         27         28         29         30
     1  C    0.084354  -1.682243   0.006722  -0.008428   0.029168   0.101690
     2  N   -0.029687   0.026210   0.000664   0.000704   0.000281   0.000322
     3  C   -0.008712  -0.337655   0.002325   0.000478   0.002468   0.014390
     4  O    0.000144   0.008160  -0.000004   0.000138   0.000014  -0.000571
     5  N    0.000641  -0.001242   0.000004   0.000014   0.000007  -0.000089
     6  C   -0.000427  -0.023906   0.000019  -0.000043   0.000048   0.000177
     7  C    0.000036   0.000372  -0.000000  -0.000002  -0.000000  -0.000001
     8  C    0.000003  -0.000340   0.000000  -0.000000   0.000000  -0.000001
     9  C   -0.031406  -0.078587  -0.034443  -0.025616   0.029279  -0.023833
    10  C    0.022300   0.899168  -0.006188   0.130817  -0.255993  -0.223074
    11  C    0.032251  -1.896694   0.127006  -0.092683   0.015684   0.086467
    12  C   -0.099362  -1.143316   0.164021  -0.020490   0.137553   0.018810
    13  C    0.313264  -0.369308   0.022505   0.001531   0.019771   0.005385
    14  H    0.012414  -0.000801  -0.000005   0.000001   0.000002   0.000000
    15  H   -0.000110  -0.000533  -0.000000  -0.000000   0.000000  -0.000000
    16  H   -0.000000   0.000002  -0.000000  -0.000000   0.000000  -0.000000
    17  H   -0.000000  -0.000168  -0.000000  -0.000000  -0.000000  -0.000000
    18  H   -0.000000   0.000002  -0.000000   0.000000   0.000000  -0.000000
    19  H   -0.000001  -0.000004   0.000000  -0.000000   0.000000  -0.000000
    20  H   -0.000000  -0.000001  -0.000000  -0.000000   0.000000  -0.000000
    21  H    0.000000   0.000000   0.000000   0.000000  -0.000000   0.000000
    22  H    0.000000   0.000000   0.000000   0.000000   0.000000   0.000000
    23  H    0.000011   0.014853  -0.000232  -0.001328   0.000281   0.006505
    24  Cl  -0.014603  -0.036776  -0.017335  -0.000049   0.000999  -0.000259
    25  H    0.334369   0.002210  -0.000319  -0.000000  -0.000004  -0.000003
    26  C    0.002210   9.338198   0.044874   0.184550   0.166711   0.187148
    27  H   -0.000319   0.044874   0.386511  -0.000575   0.005694   0.000490
    28  F   -0.000000   0.184550  -0.000575   8.998658  -0.044562  -0.046887
    29  F   -0.000004   0.166711   0.005694  -0.044562   9.047645  -0.023766
    30  F   -0.000003   0.187148   0.000490  -0.046887  -0.023766   9.006795
    31  O    0.006593  -0.000613   0.000006  -0.000000  -0.000000   0.000000
    32  O    0.000993   0.000006   0.000000   0.000000  -0.000000   0.000000
    33  C    0.013024  -0.004532  -0.000022  -0.000003   0.000005  -0.000005
    34  C   -0.003957   0.000184  -0.000003   0.000000   0.000000  -0.000001
    35  C    0.000419  -0.000055  -0.000000  -0.000000   0.000000  -0.000000
    36  H    0.000049  -0.000000   0.000000   0.000000   0.000000  -0.000000
    37  H   -0.000151   0.000001   0.000000  -0.000000   0.000000   0.000000
    38  H   -0.000001   0.000000   0.000000  -0.000000   0.000000   0.000000
    39  H   -0.000001  -0.000000   0.000000   0.000000  -0.000000   0.000000
    40  H    0.000001   0.000000   0.000000   0.000000  -0.000000   0.000000
              31         32         33         34         35         36
     1  C   -0.209364   0.000124   0.207354  -0.191753  -0.000709   0.000385
     2  N    0.025314  -0.039686  -0.002991  -0.052810   0.002595   0.000477
     3  C    0.009709  -0.053410   0.011514  -0.056762   0.005389   0.000532
     4  O   -0.000787   0.000131  -0.001564  -0.001411   0.000096   0.000000
     5  N   -0.055002  -0.010184   0.041619  -0.062237   0.009580  -0.000065
     6  C   -0.017140   0.079755   0.005577   0.084652  -0.015285  -0.000458
     7  C   -0.001273  -0.019063   0.006994  -0.035996   0.010259   0.000536
     8  C   -0.000237   0.007908  -0.010401   0.008773  -0.003631   0.000027
     9  C    0.039631  -0.002677  -0.124131  -0.071270  -0.002006   0.000100
    10  C    0.009770   0.000301  -0.048011  -0.013674  -0.000678  -0.000019
    11  C   -0.016116  -0.000525   0.027525   0.021391   0.000934  -0.000050
    12  C    0.030678  -0.003203  -0.072309   0.060031   0.003185  -0.000598
    13  C    0.194690  -0.011044  -0.071856   0.156307  -0.000594  -0.000366
    14  H    0.079738   0.011304  -0.011649   0.049413  -0.003359  -0.000227
    15  H    0.010715   0.075116  -0.008239   0.049552  -0.005603  -0.000016
    16  H   -0.000020   0.000678   0.000934   0.000310  -0.000007   0.000000
    17  H    0.000019  -0.001210  -0.001032  -0.000624   0.000091   0.000000
    18  H   -0.000090  -0.000614   0.000890   0.001274   0.000078  -0.000002
    19  H    0.000053  -0.005222   0.003743  -0.000945   0.001920   0.000002
    20  H   -0.000002  -0.000103  -0.000020  -0.000036   0.000019   0.000000
    21  H    0.000000   0.000062  -0.000103   0.000080  -0.000040  -0.000000
    22  H    0.000000   0.000114   0.000218   0.000010   0.000011   0.000000
    23  H   -0.000028  -0.000002   0.000470   0.000075   0.000000  -0.000000
    24  Cl   0.000497   0.000007  -0.002262  -0.000934   0.000166  -0.000005
    25  H    0.006593   0.000993   0.013024  -0.003957   0.000419   0.000049
    26  C   -0.000613   0.000006  -0.004532   0.000184  -0.000055  -0.000000
    27  H    0.000006   0.000000  -0.000022  -0.000003  -0.000000   0.000000
    28  F   -0.000000   0.000000  -0.000003   0.000000  -0.000000   0.000000
    29  F   -0.000000  -0.000000   0.000005   0.000000   0.000000   0.000000
    30  F    0.000000   0.000000  -0.000005  -0.000001  -0.000000  -0.000000
    31  O    8.458988  -0.143463   0.309440  -0.253293   0.025808  -0.004188
    32  O   -0.143463   8.337245   0.372532  -0.151296   0.015184   0.000802
    33  C    0.309440   0.372532   6.409721  -1.447614   0.351723  -0.020780
    34  C   -0.253293  -0.151296  -1.447614   8.053377  -0.554504   0.403938
    35  C    0.025808   0.015184   0.351723  -0.554504   6.074463  -0.044859
    36  H   -0.004188   0.000802  -0.020780   0.403938  -0.044859   0.447516
    37  H   -0.004583   0.001198  -0.020195   0.396898  -0.041538  -0.033971
    38  H   -0.000535  -0.007949  -0.002588  -0.034130   0.393369  -0.007053
    39  H   -0.000596   0.004060   0.056877  -0.111938   0.399826  -0.002987
    40  H    0.000003  -0.007782  -0.008796  -0.028658   0.394290   0.005807
              37         38         39         40
     1  C    0.002435   0.000235   0.000092  -0.000011
     2  N    0.000203  -0.000009   0.000018  -0.000020
     3  C   -0.000302  -0.000416   0.000177  -0.000234
     4  O   -0.000000  -0.000000   0.000000  -0.000000
     5  N    0.000228   0.000122  -0.000076   0.000203
     6  C    0.000142   0.000896  -0.000103  -0.000078
     7  C   -0.000260  -0.000575  -0.000023   0.000411
     8  C   -0.000024  -0.000053  -0.000007   0.000186
     9  C    0.000357   0.000023   0.000012   0.000008
    10  C    0.000056   0.000003   0.000000   0.000001
    11  C   -0.000158  -0.000003  -0.000001  -0.000003
    12  C   -0.000932  -0.000027  -0.000022  -0.000036
    13  C   -0.000651  -0.000117  -0.000081  -0.000058
    14  H   -0.000386  -0.000021  -0.000000  -0.000013
    15  H   -0.000095  -0.000327   0.000052  -0.000307
    16  H   -0.000000  -0.000000   0.000000   0.000001
    17  H    0.000000  -0.000000  -0.000000  -0.000000
    18  H    0.000000   0.000004   0.000000  -0.000004
    19  H    0.000004  -0.000037  -0.000002  -0.000055
    20  H    0.000000  -0.000000  -0.000000  -0.000000
    21  H   -0.000000   0.000001   0.000000   0.000000
    22  H    0.000000   0.000000  -0.000000  -0.000000
    23  H   -0.000000   0.000000  -0.000000   0.000000
    24  Cl   0.000041   0.000000   0.000000  -0.000000
    25  H   -0.000151  -0.000001  -0.000001   0.000001
    26  C    0.000001   0.000000  -0.000000   0.000000
    27  H    0.000000   0.000000   0.000000   0.000000
    28  F   -0.000000  -0.000000   0.000000   0.000000
    29  F    0.000000   0.000000  -0.000000  -0.000000
    30  F    0.000000   0.000000   0.000000   0.000000
    31  O   -0.004583  -0.000535  -0.000596   0.000003
    32  O    0.001198  -0.007949   0.004060  -0.007782
    33  C   -0.020195  -0.002588   0.056877  -0.008796
    34  C    0.396898  -0.034130  -0.111938  -0.028658
[...]
 79,-0.00000564,0.00004051,-0.00000512,0.00002644,-0.00000951,-0.000007
 85,0.00000011,-0.00001149,0.00000246,0.00000201,-0.00000286,-0.0000030
 3,-0.00000333,-0.00000860,0.00000577,-0.00000231,0.00001548,0.00001706
 ,0.00000472,-0.00003878,0.00000956,-0.00001833,-0.00001200,0.00001789,
 -0.00001084,0.00000100,-0.00000058,-0.00000224,0.00000333,-0.00000748,
 0.00000909,0.00000645,-0.00000558,-0.00000081,0.00000380,-0.00000310,0
 .00000217,0.00115809,-0.00007208,0.00437483,-0.00247181,-0.00558105,0.
 00392916,-0.01351361,-0.00512375,-0.03367734,-0.02586010,-0.06079245,-
 0.05901581,0.00848762,0.00382066,0.01756006,0.02635066,0.06645021,-0.0
 0013881,0.00005650,0.00000003,0.00013152,-0.00006260,0.00000494,-0.000
 18449,0.00007535,-0.00000318,0.00003979,-0.00007629,-0.00000097,0.0000
 6040,-0.00016773,0.00002345,0.00002104,0.00000005,0.00000212,-0.000002
 11,0.00001600,-0.00001845,0.00000427,-0.00000561,0.00000357,0.00003742
 ,-0.00003126,-0.00000038,-0.00002591,0.00000536,0.00000576,0.00003157,
 0.00001219,0.00000380,-0.00005441,-0.00003733,-0.00000294,0.00004916,0
 .00000564,0.00001390,-0.00001496,0.00007282,0.00000464,0.00002398,0.00
 021781,-0.00004526,0.00000006,0.00000086,-0.00000277,-0.00000520,-0.00
 001196,0.00000270,-0.00000038,0.00000175,-0.00000102,0.00001254,-0.000
 00407,0.00001191,-0.00000471,-0.00000752,0.00000307,-0.00000020,0.0000
 0248,-0.00000156,-0.00000050,0.00000187,-0.00000185,-0.00000749,0.0000
 0565,-0.00000333,0.00003057,0.00003171,0.00000779,-0.00002122,-0.00002
 425,-0.00002819,-0.00001601,-0.00000590,-0.00001448,0.00000040,-0.0000
 0116,-0.00000351,0.00000330,-0.00000001,0.00000573,0.00000598,-0.00000
 033,0.00000055,0.00000892,0.00000577,0.00000649,0.00106758,-0.00019573
 ,0.00135623,0.00081057,-0.00072261,-0.00020350,-0.00142863,0.00234436,
 -0.00050820,-0.09957887,-0.05565265,-0.24714275,-0.00053216,-0.0000246
 8,-0.00158009,0.11026625,0.05917651,0.26721103,0.00000307,0.00000925,0
 .00001194,0.00008584,0.00007513,0.00002106,-0.00025564,0.00003509,0.00
 003220,0.00006273,-0.00003969,-0.00002222,0.00007733,-0.00024215,-0.00
 001313,0.00000581,-0.00000826,0.00002504,-0.00000141,0.00001818,-0.000
 01381,0.00000591,-0.00000526,0.00000647,0.00000061,-0.00000730,-0.0000
 0817,-0.00000380,0.00000599,0.00000083,0.00000085,0.00000481,-0.000000
 36,0.00001542,0.00000702,-0.00000380,-0.00000555,-0.00000775,-0.000005
 21,-0.00002854,-0.00018321,-0.00007020,0.00000194,0.00031944,-0.000037
 80,0.00000043,-0.00000634,-0.00000739,-0.00000471,-0.00001080,-0.00000
 266,-0.00000159,0.00001062,-0.00001221,0.00001200,0.00000582,0.0000268
 4,-0.00000468,-0.00000776,0.00000170,0.00000736,0.00000210,-0.00000194
 ,-0.00000388,-0.00000228,-0.00000560,-0.00000385,0.00000088,0.00000426
 ,-0.00000360,-0.00000707,-0.00000167,0.00002960,-0.00000871,0.00000897
 ,-0.00000008,-0.00001914,0.00000708,-0.00000052,0.00000129,0.00000253,
 -0.00000087,0.00000790,-0.00000685,-0.00000132,0.00000366,-0.00000097,
 0.00000171,0.00000511,-0.00000031,0.00068573,0.00186760,-0.00109391,0.
 00049713,-0.00255628,-0.00089942,-0.00686112,-0.00130801,0.00432049,-0
 .16156187,-0.03935859,0.12714550,-0.01815276,-0.00606658,0.01985243,0.
 00966102,0.00397255,-0.00990350,0.17795665,-0.00016871,0.00007860,0.00
 002300,0.00018235,-0.00000002,0.00006833,-0.00038877,0.00017708,0.0000
 7391,0.00007905,-0.00018909,-0.00005433,0.00011695,-0.00056192,0.00006
 687,0.00011570,0.00001531,0.00003137,-0.00002049,0.00002644,-0.0000239
 2,0.00000874,-0.00000951,0.00001057,0.00003741,-0.00004128,-0.00001622
 ,-0.00002477,0.00000625,-0.00000110,0.00003517,0.00000280,-0.00000195,
 -0.00003570,-0.00003079,-0.00000261,0.00006485,0.00001484,-0.00001792,
 -0.00002335,0.00011159,-0.00014469,0.00006030,0.00086724,-0.00022414,-
 0.00001549,-0.00000823,-0.00001471,-0.00002611,-0.00002561,0.00000206,
 0.00000854,-0.00000053,-0.00000301,0.00004149,-0.00000795,0.00001444,-
 0.00000874,-0.00000701,0.00000025,-0.00001146,0.00000241,0.00000226,-0
 .00000395,-0.00000317,-0.00000472,-0.00001055,0.00000607,0.00000434,0.
 00001634,0.00002422,-0.00000333,-0.00004108,-0.00001712,0.00003311,-0.
 00000993,0.00000276,0.00001386,0.00000059,-0.00000083,0.00000216,0.000
 00204,0.00000107,-0.00000462,0.00000703,-0.00000318,-0.00000575,0.0000
 0300,-0.00000091,-0.00000227,0.00173052,-0.00011469,-0.00361856,-0.001
 82122,-0.00622490,-0.00412213,-0.02218451,-0.00472759,0.02820879,-0.03
 967288,-0.05971514,0.04751517,0.01310582,0.00355927,-0.01442172,0.0061
 5126,0.00149684,-0.00629563,0.04087465,0.06596914,0.00017318,-0.000064
 42,-0.00001632,-0.00014100,0.00009044,0.00002135,0.00016075,-0.0000800
 1,-0.00001908,-0.00003241,0.00008209,0.00000983,-0.00005858,0.00013663
 ,0.00004231,-0.00002270,-0.00000336,-0.00000994,0.00000329,-0.00001039
 ,-0.00000241,-0.00000576,0.00000567,0.00000128,-0.00004348,0.00003454,
 0.00000654,0.00002924,-0.00000765,-0.00000209,-0.00004138,-0.00001473,
 0.00000127,0.00007206,0.00005150,0.00000255,-0.00006065,-0.00001340,0.
 00000200,0.00000785,-0.00014045,-0.00002219,-0.00002000,-0.00018055,-0
 .00004298,0.00000179,0.00000344,0.00000733,0.00000459,0.00000807,-0.00
 000223,-0.00000349,-0.00000666,0.00000982,-0.00001138,0.00000208,-0.00
 001191,0.00000407,0.00000547,-0.00000286,0.00000028,-0.00000201,-0.000
 00076,0.00000303,0.00000121,0.00000449,0.00000826,-0.00000588,-0.00000
 209,-0.00003627,-0.00004069,-0.00000199,0.00003000,0.00003723,-0.00001
 200,0.00001671,0.00000810,-0.00000148,0.00000043,0.00000131,-0.0000005
 6,-0.00000317,-0.00000314,0.00000247,-0.00000843,0.00000096,0.00000336
 ,-0.00000858,-0.00000544,-0.00000344,-0.00149681,0.00090175,0.00052089
 ,-0.00063962,0.00010904,-0.00055870,-0.00005146,-0.00306616,0.00081996
 ,0.12604503,0.04482844,-0.18138222,-0.00458088,-0.00190593,0.00471434,
 0.01907742,0.00757609,-0.02139450,-0.13773595,-0.04781924,0.19531608,0
 .00000178,0.00001221,0.00001023,0.00003610,0.00010111,-0.00001188,-0.0
 0009622,-0.00001310,0.00001634,0.00002443,0.00002160,-0.00000575,0.000
 02745,-0.00000580,-0.00004118,-0.00000536,0.00000054,0.00000144,-0.000
 00274,-0.00000836,0.00003641,0.00000197,-0.00000171,-0.00001037,0.0000
 0338,0.00000066,-0.00000332,-0.00000896,0.00001130,0.00000217,0.000004
 72,0.00001135,-0.00000175,-0.00000072,-0.00001445,0.00000018,-0.000004
 05,-0.00001145,-0.00001600,-0.00000989,-0.00014357,-0.00000070,-0.0000
 0654,-0.00001521,0.00003495,0.00000308,-0.00000180,-0.00000228,0.00000
 012,0.00000531,0.00000099,0.00000488,0.00000640,-0.00001046,0.00000504
 ,0.00000581,-0.00000859,0.00000015,0.00000503,-0.00000035,-0.00000130,
 -0.00000220,0.00000445,-0.00000309,-0.00000307,-0.00000222,-0.00000153
 ,0.00000021,0.00000343,0.00000209,0.00001017,-0.00000182,0.00001143,-0
 .00002067,0.00001257,0.00000331,-0.00003712,0.00000771,-0.00000069,0.0
 0000071,0.00000228,-0.00000166,0.00001402,-0.00001075,-0.00000415,0.00
 000830,0.00000008,0.00000295,0.00001087,0.00000140,0.00064258,0.000554
 24,-0.00022510,0.00118590,-0.00030718,-0.00055571,-0.00153387,-0.00196
 214,0.00014515,-0.01954698,-0.00579557,0.02160974,-0.16273835,-0.03766
 651,0.12910712,0.00080698,-0.00082563,-0.00031798,-0.00407225,0.003619
 25,-0.00156041,0.17929437,0.00008760,-0.00003259,-0.00001057,-0.000083
 42,0.00004671,0.00000584,0.00013035,-0.00008639,-0.00001093,-0.0000253
 3,0.00008085,0.00001190,-0.00003509,0.00016245,0.00000980,-0.00001532,
 -0.00000178,-0.00001735,-0.00000064,-0.00002142,0.00001286,-0.00001205
 ,0.00001317,-0.00000100,-0.00001965,0.00002140,0.00000237,0.00001136,0
 .00000174,-0.00000071,-0.00001709,0.00000074,0.00000271,0.00002501,0.0
 0001329,-0.00000497,-0.00003151,-0.00001073,0.00000552,0.00001095,-0.0
 0009423,-0.00000428,-0.00003660,-0.00024034,0.00001361,0.00000129,0.00
 000581,0.00001111,0.00000248,0.00001240,-0.00000100,-0.00000248,-0.000
 01206,0.00001952,-0.00001813,-0.00000071,-0.00003260,0.00000817,0.0000
 0882,-0.00000193,0.00000046,-0.00000453,-0.00000150,0.00000595,0.00000
 391,0.00000632,0.00000471,-0.00000320,-0.00000064,-0.00001198,-0.00001
 084,0.00000020,0.00001800,-0.00000223,-0.00000217,0.00001045,-0.000018
 51,-0.00000253,-0.00000048,0.00000076,0.00000037,-0.00000277,0.0000061
 8,-0.00000243,-0.00000721,0.00000561,0.00000312,-0.00000142,0.00000469
 ,0.00000115,-0.00070391,0.00019772,0.00015432,-0.00110730,-0.00060335,
 0.00044930,0.00134901,0.00037214,-0.00076644,0.01172003,0.00393360,-0.
 01419443,-0.03894493,-0.05953231,0.04300802,-0.00088884,0.00070948,0.0
 0014642,0.00321495,-0.00177958,0.00043811,0.03981222,0.06161321,0.0000
 4644,-0.00002318,-0.00000714,-0.00009264,-0.00003950,0.00000736,0.0001
 5529,-0.00003889,-0.00001657,-0.00004122,0.00002820,0.00000841,-0.0000
 7003,0.00007767,0.00002727,0.00004564,0.00001184,-0.00002869,-0.000012
 33,-0.00003276,0.00004239,-0.00000570,0.00000665,-0.00001318,-0.000011
 11,0.00001282,0.00000313,0.00000965,-0.00000492,-0.00000113,-0.0000145
 6,-0.00000473,0.00000204,0.00001626,0.00001494,-0.00000202,-0.00001436
 ,-0.00000301,0.00000674,0.00002040,0.00003419,-0.00000583,-0.00000364,
 -0.00008214,-0.00001992,-0.00000650,0.00000365,0.00000573,-0.00000936,
 0.00001164,0.00000351,0.00000515,-0.00001210,0.00001216,0.00000045,-0.
 00001738,-0.00004832,0.00000587,0.00001631,-0.00000416,-0.00001915,-0.
 00000517,0.00000898,0.00000326,-0.00000100,0.00000615,0.00000403,-0.00
 000194,-0.00000210,-0.00000878,-0.00000976,0.00000048,0.00000378,0.000
 00069,-0.00000363,0.00000594,0.00001180,-0.00000340,-0.00000019,0.,-0.
 00000088,-0.00000084,-0.00000455,0.00000319,-0.00000247,-0.00000162,0.
 00000162,-0.00000380,-0.00000445,-0.00000098,-0.00053074,-0.00039533,-
 0.00017665,-0.00167910,0.00060143,0.00018269,0.00189347,0.00109214,0.0
 0027250,-0.00416290,-0.00200147,0.00447564,0.12990711,0.04122894,-0.19
 269135,0.00036698,-0.00061172,0.00073551,-0.00122391,0.00079639,0.0012
 4749,-0.14076652,-0.04756371,0.20524620,0.00012203,-0.00001079,-0.0000
 0695,0.00005017,0.00034861,0.00004193,-0.00020647,-0.00001846,0.000001
 14,0.00006256,0.00006114,0.00000532,0.00005826,-0.00001877,-0.00000814
 ,-0.00005022,-0.00001766,0.00000422,0.00001148,0.00002316,-0.00001144,
 0.00000647,-0.00000818,0.00000082,-0.00002415,0.00001780,0.00000239,0.
 00000305,0.00001079,0.00000326,-0.00002224,0.00000849,0.00000244,0.000
 04999,0.00002217,-0.00000050,-0.00004779,-0.00003934,-0.00000168,-0.00
 007398,-0.00051772,-0.00005739,-0.00001231,-0.00001440,-0.00000476,0.0
 0001118,0.00000372,0.00000045,0.00000911,-0.00000277,0.00000077,-0.000
 00340,0.00000566,-0.00000607,-0.00000180,0.00000653,0.00001667,-0.0000
 0369,-0.00000682,0.00000289,0.00000941,0.00000306,-0.00000232,-0.00000
 086,0.00000137,-0.00000259,0.00000053,-0.00000087,-0.00000014,-0.00002
 082,-0.00001360,-0.00000021,0.00004782,-0.00001128,-0.00000647,0.00000
 540,-0.00003303,-0.00000520,-0.00000103,0.00000298,0.00000025,-0.00000
 220,0.00001093,-0.00000439,-0.00000827,0.00000914,0.00000416,0.0000020
 1,0.00000949,0.00000357,-0.00057411,0.00348324,-0.00001651,0.00221455,
 -0.00047361,0.00022087,-0.00680932,-0.00203014,-0.00105886,0.00685147,
 0.03137711,0.00075187,-0.05789627,-0.04954549,-0.00043433,0.00114953,-
 0.00093042,-0.00019898,0.00108941,-0.00084443,0.00054968,-0.00402834,-
 0.02044070,-0.00281667,0.06166391,-0.00032329,0.00007735,0.00002203,0.
 00013648,-0.00045826,-0.00004897,-0.00003189,0.00025322,0.00002921,-0.
 00001888,-0.00026837,-0.00002750,-0.00000500,-0.00031344,-0.00000860,0
 .00010001,0.00002802,0.00002226,-0.00001150,0.00002534,-0.00002810,0.0
 0001242,-0.00001010,0.00000794,0.00006040,-0.00006755,-0.00001053,-0.0
 0001795,-0.00002609,-0.00000872,0.00006599,-0.00001863,-0.00000482,-0.
 00012553,-0.00004329,0.00000327,0.00012083,0.00007515,0.00000747,0.000
 02165,0.00078015,0.00006749,0.00010036,0.00051994,-0.00000611,-0.00001
 661,-0.00000935,-0.00001879,-0.00001566,-0.00002667,0.00000388,0.00000
 634,0.00000863,-0.00001284,0.00003691,-0.00000113,0.00002975,-0.000011
 06,-0.00001511,0.00000416,-0.00000884,0.00000756,0.00000173,-0.0000046
 1,-0.00000302,-0.00000873,-0.00001076,0.00000927,0.00000120,0.00005325
 ,0.00002917,0.00000017,-0.00008929,0.00003892,0.00000699,-0.00004319,0
 .00012487,0.00000561,0.00000118,-0.00000420,-0.00000039,0.00001142,-0.
 00004190,0.00001961,0.00003451,-0.00003501,-0.00001376,0.00000091,-0.0
 0003431,-0.00000621,0.00168869,-0.00309896,0.00013130,0.00053425,-0.00
 113625,0.00008785,0.00166414,0.00279504,0.00030631,-0.00522132,-0.0153
 9048,-0.00054000,-0.04893483,-0.30235360,-0.00380860,0.00003116,0.0004
 2616,0.00057442,0.00021485,0.00044019,-0.00056121,-0.00117893,-0.00558
 247,-0.00000191,0.05242807,0.32952330,0.00001663,-0.00000099,0.0000005
 3,0.00000896,0.00005354,0.00000549,-0.00002901,-0.00000781,-0.00000302
 ,0.00000909,0.00001374,0.00000058,0.00000866,0.00000188,0.00002177,-0.
 00000331,-0.00000225,-0.00000356,0.00000047,0.00000812,-0.00000827,-0.
 00000083,-0.00000116,0.00000331,-0.00000326,0.00000316,0.00000109,0.00
 000012,0.00000322,0.00000050,-0.00000237,0.00000227,-0.00000192,0.0000
 0512,0.00000110,0.00000234,-0.00000723,-0.00000558,-0.00000725,-0.0000
 1115,-0.00008487,-0.00001056,-0.00000298,-0.00000775,-0.00002417,0.000
 00088,0.00000488,0.00000316,0.00000107,0.00000023,0.00000070,-0.000001
 03,-0.00000854,0.00001154,-0.00000096,-0.00000369,-0.00001284,-0.00000
 003,-0.00000019,0.00000047,-0.00000130,-0.00000021,-0.00000121,0.00000
 294,0.00000310,0.00000184,-0.00000015,-0.00000030,0.00000062,-0.000002
 25,-0.00000078,-0.00000132,0.00000766,-0.00000394,0.00000356,0.0000008
 1,-0.00000891,0.00000180,-0.00000039,0.00000047,0.00000118,-0.00000054
 ,0.00000337,-0.00000282,-0.00000123,0.00000198,0.00000014,0.00000072,0
 .00000251,0.00000046,-0.00012744,0.00052909,0.00004954,0.00016465,-0.0
 0000479,0.00058666,-0.00101154,-0.00026867,0.00055077,0.00127339,0.004
 49388,-0.00115735,-0.00047210,-0.00386953,-0.05026356,0.00038486,0.000
 17215,0.00000187,-0.00006420,-0.00042061,0.00007151,0.00284738,0.02436
 353,0.00131750,0.00134728,0.00394115,0.04728529,0.00002887,0.00000035,
 -0.00001392,-0.00001071,0.00007795,0.00002988,-0.00001220,-0.00002512,
 -0.00001861,0.00000480,0.00003132,0.00001210,-0.00000875,0.00002313,0.
 00002869,0.00000709,0.00000174,-0.00002016,-0.00000338,-0.00001725,0.0
 0002175,-0.00000268,0.00000185,-0.00000534,-0.00000257,0.00000591,0.00
 000566,-0.00000332,0.00000477,0.00000333,-0.00000633,0.00000668,0.0000
 0409,0.00001078,-0.00000007,-0.00000295,-0.00001079,-0.00001551,0.0000
 1387,-0.00000526,-0.00012813,-0.00002899,-0.00000421,-0.00003594,-0.00
 002466,0.00000317,0.00000346,0.00000370,-0.00000288,0.00000505,0.00000
 285,-0.00000068,0.00000118,0.00000008,0.00000631,-0.00000125,-0.000012
 93,0.00000155,0.00000689,-0.00000245,-0.00000530,-0.00000253,0.0000054
 5,0.00000158,-0.00000188,0.00000145,0.00000062,0.00000015,-0.00000359,
 -0.00000240,0.00000229,0.00000392,0.00001104,-0.00001404,-0.00002014,0
 .00000254,-0.00001793,-0.00001431,-0.00000062,0.00000079,-0.00000227,-
 0.00000082,0.00000423,0.00000303,-0.00000528,0.00000529,0.00000464,0.0
 0000275,0.00000663,0.00000489,0.00034020,0.00036449,0.00036669,0.00079
 660,0.00036116,0.00043444,-0.00077140,-0.00162344,-0.00032748,-0.01303
 969,-0.00650589,-0.02645467,-0.09628281,-0.02705860,-0.10069911,-0.004
 40788,0.00368626,-0.00016879,0.00076749,-0.00094889,0.00037477,0.01000
 397,0.00599384,0.01900680,-0.00363110,-0.00125469,-0.00433739,0.106231
 70,0.00010726,-0.00003790,-0.00000650,-0.00009595,0.00005939,0.0000026
 7,0.00013494,-0.00010533,-0.00001492,-0.00002520,0.00009570,0.00000829
 ,-0.00003323,0.00017984,-0.00000355,-0.00002935,-0.00000407,-0.0000066
 4,0.00000257,-0.00002966,0.00003051,-0.00000779,0.00001223,-0.00000792
 ,-0.00002193,0.00002500,0.00000429,0.00001136,0.00000282,0.00000110,-0
 .00002130,0.00000327,0.00000071,0.00003457,0.00001276,0.00000102,-0.00
 003798,-0.00001340,-0.00000599,0.00001616,-0.00011106,-0.00000298,-0.0
 0003927,-0.00025897,0.00001532,0.00000204,-0.00000116,0.00000598,0.000
 00348,0.00001488,-0.00000317,-0.00000059,-0.00000058,-0.00000221,-0.00
 002323,0.00000277,-0.00001526,0.00000849,0.00000925,-0.00000332,0.0000
 0300,-0.00000428,-0.00000048,0.00000010,-0.00000088,0.00000396,0.00000
 573,-0.00000415,0.00000053,-0.00001594,-0.00001130,-0.00000076,0.00001
 956,-0.00000531,0.00000357,0.00001619,-0.00003128,-0.00000115,-0.00000
 029,0.00000068,0.00000017,-0.00000378,0.00001056,-0.00000490,-0.000010
 68,0.00000925,0.00000426,-0.00000236,0.00000810,0.00000069,-0.00061873
 ,0.00024053,-0.00029991,-0.00070894,-0.00070527,-0.00039643,0.00113478
 ,0.00040429,0.00107389,0.00742818,0.00423626,0.01687437,-0.02768834,-0
 .06184275,-0.05646187,0.00326422,-0.00177521,0.00057378,-0.00081169,0.
 00066695,-0.00039086,0.00380317,0.00082258,0.00691190,-0.01285498,-0.0
 0622410,-0.02890281,0.02705576,0.06434955,-0.00002714,0.00002104,-0.00
 000289,0.00007825,0.00006867,0.00002276,-0.00014495,0.00002112,-0.0000
 0758,0.00003964,-0.00000954,0.00000511,0.00005789,-0.00006514,0.000023
 45,-0.00003388,-0.00001180,0.00000592,0.00000764,0.00004050,-0.0000558
 5,0.00000272,-0.00000989,0.00001388,0.00001026,-0.00000956,0.00000082,
 -0.00001187,0.00000538,0.00000460,0.00000697,0.00000745,0.00000172,-0.
 00000538,-0.00001121,-0.00000101,0.00000783,-0.00000594,0.00000511,-0.
 00002192,-0.00008494,-0.00002760,0.00000600,0.00006806,-0.00003351,0.0
 0000573,0.00000867,0.00000439,0.00000739,-0.00001085,0.00000019,-0.000
 00301,-0.00000903,0.00001438,0.00000031,0.00000655,0.00001171,-0.00000
 457,-0.00001357,0.00000504,0.00000847,0.00000392,-0.00001114,0.0000029
 4,0.00001004,0.00000271,-0.00000357,0.00000187,-0.00000246,0.00000649,
 0.00001008,0.00000221,0.00000079,-0.00000608,-0.00000847,-0.00000583,-
 0.00001860,-0.00000976,0.00000026,-0.00000003,-0.00000171,0.00000081,0
 .00000482,0.00000191,-0.00000032,0.00000420,0.00000178,0.00000565,0.00
 000775,0.00000464,0.00068394,0.00054755,0.00003850,0.00164798,-0.00013
 801,0.00060094,-0.00225332,-0.00160162,-0.00026960,-0.00105802,0.00014
 403,-0.00242087,-0.10138798,-0.05446744,-0.25622444,-0.00051249,0.0003
 2556,0.00155184,-0.00033216,0.00035632,0.00068491,-0.01029088,-0.00604
 691,-0.02059073,0.00168363,-0.00015804,0.00157360,0.11182568,0.0610146
 4,0.27508549\\0.00000110,-0.00000010,0.00000509,-0.00000105,0.00000176
 ,-0.00000115,0.00000347,-0.00000292,0.00000690,0.00000087,0.00000094,-
 0.00000149,-0.00000284,0.00000431,-0.00000082,0.00000076,-0.00000009,-
 0.00000230,-0.00000011,0.00000023,-0.00000220,-0.00000050,-0.00000068,
 -0.00000364,-0.00000149,0.00000212,0.00000119,0.00000068,0.00000057,0.
 00000282,0.00000020,0.00000084,0.00000398,0.00000043,0.00000031,0.0000
 0421,-0.00000056,0.00000029,0.00000269,0.00000216,-0.00000154,0.000000
 15,-0.00000184,-0.00000819,-0.00000312,-0.00000024,0.00000054,-0.00000
 259,0.00000176,0.00000036,-0.00000296,-0.00000153,0.00000006,-0.000003
 32,0.00000017,-0.00000070,-0.00000328,-0.00000082,-0.00000029,-0.00000
 379,-0.00000050,-0.00000060,-0.00000479,0.00000078,-0.00000070,-0.0000
 0386,0.00000042,0.00000027,0.00000232,-0.00000047,0.00000022,0.0000040
 5,-0.00000018,0.00000057,0.00000112,0.00000136,0.00000135,0.00000626,0
 .00000064,0.00000052,0.00000515,-0.00000014,-0.00000007,0.00000315,0.0
 0000020,-0.00000091,0.00000554,0.00000287,-0.00000065,0.00000438,-0.00
 000046,0.00000474,-0.00000167,-0.00000153,0.00000356,-0.00000200,-0.00
 000199,-0.00000188,-0.00000101,0.00000191,-0.00000186,-0.00000270,-0.0
 0000173,-0.00000213,-0.00000220,-0.00000124,0.00000075,-0.00000039,0.0
 0000071,-0.00000029,-0.00000058,-0.00000158,-0.00000006,-0.00000350,-0
 .00000005,-0.00000037,-0.00000310,0.00000035,-0.00000028,-0.00000251\\
 \@


 In the beginning there was nothing, which exploded.
 Job cpu time:       0 days 12 hours  1 minutes 47.3 seconds.
 File lengths (MBytes):  RWF=   1418 Int=      0 D2E=      0 Chk=     36 Scr=      1
 Normal termination of Gaussian 09 at Thu Nov 14 23:48:21 2019.
pbs_rusage has been removed.
Please contact help@nci.org.au if you require this functionality.
