 Entering Gaussian System, Link 0=/apps/gaussian/g09e01/g09/g09
 Initial command:
 /apps/gaussian/g09e01/g09/l1.exe "/jobfs/local/3595162.r-man2/Gau-39271.inp" -scrdir="/jobfs/local/3595162.r-man2/"
 Entering Link 1 = /apps/gaussian/g09e01/g09/l1.exe PID=     39273.
  
 Copyright (c) 1988,1990,1992,1993,1995,1998,2003,2009,2015,
            Gaussian, Inc.  All Rights Reserved.
  
 This is part of the Gaussian(R) 09 program.  It is based on
 the Gaussian(R) 03 system (copyright 2003, Gaussian, Inc.),
 the Gaussian(R) 98 system (copyright 1998, Gaussian, Inc.),
 the Gaussian(R) 94 system (copyright 1995, Gaussian, Inc.),
 the Gaussian 92(TM) system (copyright 1992, Gaussian, Inc.),
 the Gaussian 90(TM) system (copyright 1990, Gaussian, Inc.),
 the Gaussian 88(TM) system (copyright 1988, Gaussian, Inc.),
 the Gaussian 86(TM) system (copyright 1986, Carnegie Mellon
 University), and the Gaussian 82(TM) system (copyright 1983,
 Carnegie Mellon University). Gaussian is a federally registered
 trademark of Gaussian, Inc.
  
 This software contains proprietary and confidential information,
 including trade secrets, belonging to Gaussian, Inc.
  
 This software is provided under written license and may be
 used, copied, transmitted, or stored only in accord with that
 written license.
  
 The following legend is applicable only to US Government
 contracts under FAR:
  
                    RESTRICTED RIGHTS LEGEND
  
 Use, reproduction and disclosure by the US Government is
 subject to restrictions as set forth in subparagraphs (a)
 and (c) of the Commercial Computer Software - Restricted
 Rights clause in FAR 52.227-19.
  
 Gaussian, Inc.
 340 Quinnipiac St., Bldg. 40, Wallingford CT 06492
  
  
 ---------------------------------------------------------------
 Warning -- This program may not be used in any manner that
 competes with the business of Gaussian, Inc. or will provide
 assistance to any competitor of Gaussian, Inc.  The licensee
 of this program is prohibited from giving any competitor of
 Gaussian, Inc. access to this program.  By using this program,
 the user acknowledges that Gaussian, Inc. is engaged in the
 business of creating and licensing software in the field of
 computational chemistry and represents and warrants to the
 licensee that it is not a competitor of Gaussian, Inc. and that
 it will not use this program in any manner prohibited above.
 ---------------------------------------------------------------
  

 Cite this work as:
 Gaussian 09, Revision E.01,
 M. J. Frisch, G. W. Trucks, H. B. Schlegel, G. E. Scuseria, 
 M. A. Robb, J. R. Cheeseman, G. Scalmani, V. Barone, B. Mennucci, 
 G. A. Petersson, H. Nakatsuji, M. Caricato, X. Li, H. P. Hratchian, 
 A. F. Izmaylov, J. Bloino, G. Zheng, J. L. Sonnenberg, M. Hada, 
 M. Ehara, K. Toyota, R. Fukuda, J. Hasegawa, M. Ishida, T. Nakajima, 
 Y. Honda, O. Kitao, H. Nakai, T. Vreven, J. A. Montgomery, Jr., 
 J. E. Peralta, F. Ogliaro, M. Bearpark, J. J. Heyd, E. Brothers, 
 K. N. Kudin, V. N. Staroverov, T. Keith, R. Kobayashi, J. Normand, 
 K. Raghavachari, A. Rendell, J. C. Burant, S. S. Iyengar, J. Tomasi, 
 M. Cossi, N. Rega, J. M. Millam, M. Klene, J. E. Knox, J. B. Cross, 
 V. Bakken, C. Adamo, J. Jaramillo, R. Gomperts, R. E. Stratmann, 
 O. Yazyev, A. J. Austin, R. Cammi, C. Pomelli, J. W. Ochterski, 
 R. L. Martin, K. Morokuma, V. G. Zakrzewski, G. A. Voth, 
 P. Salvador, J. J. Dannenberg, S. Dapprich, A. D. Daniels, 
 O. Farkas, J. B. Foresman, J. V. Ortiz, J. Cioslowski, 
 and D. J. Fox, Gaussian, Inc., Wallingford CT, 2013.
 
 ******************************************
 Gaussian 09:  ES64L-G09RevE.01 30-Nov-2015
                14-Nov-2019 
 ******************************************
 %chk=NM3_c2_carboxy.M062X_6-311pGd_opt_water_GD3.chk
 %mem=196608000
 %nproc=8
 Will use up to    8 processors via shared memory.
 ----------------------------------------------------------------------
 # M062X/6-311+G* SCF=Tight INT(grid=ultrafine) OPT IOP(2/17=4) Empiric
 alDispersion=GD3 SCRF=(SMD,Solvent=h2o) maxdisk=2684354560
 ----------------------------------------------------------------------
 1/14=-1,18=20,19=15,26=4,38=1/1,3;
 2/9=110,12=2,17=4,18=5,40=1/2;
 3/5=4,6=6,7=11,11=2,16=1,25=1,30=1,70=32201,71=1,72=1,74=-55,75=-5,124=31/1,2,3;
 4//1;
 5/5=2,32=2,38=5,53=1/2;
 6/7=2,8=2,9=2,10=2,28=1/1;
 7//1,2,3,16;
 1/14=-1,18=20,19=15,26=4/3(2);
 2/9=110,17=4/2;
 99//99;
 2/9=110,17=4/2;
 3/5=4,6=6,7=11,11=2,16=1,25=1,30=1,70=32205,71=1,72=1,74=-55,75=-5,124=31/1,2,3;
 4/5=5,16=3,69=1/1;
 5/5=2,32=2,38=5,53=1/2;
 7//1,2,3,16;
 1/14=-1,18=20,19=15,26=4/3(-5);
 2/9=110,17=4/2;
 6/7=2,8=2,9=2,10=2,19=2,28=1/1;
 99/9=1/99;
 -------------------------------------------
 NM3_c2_carboxy.M062X_6-311pGd_opt_water_GD3
 -------------------------------------------
 Symbolic Z-matrix:
 Charge = -1 Multiplicity = 1
 C                    -5.89842   1.33173   0.06814 
 N                    -4.6483    0.72309   0.04488 
 C                    -3.42559   1.35955   0.15796 
 O                    -3.30811   2.58345   0.3014 
 N                    -2.37301   0.52347   0.11359 
 C                    -1.01103   1.02702   0.21087 
 C                    -0.02062  -0.12361   0.12833 
 C                     1.41463   0.37631   0.23626 
 C                    -6.99537   0.53129   0.42035 
 C                    -8.26975   1.07027   0.42167 
 C                    -8.50966   2.40224   0.09313 
 C                    -7.41128   3.16842  -0.2579 
 C                    -6.11732   2.66756  -0.28716 
 H                    -4.64751  -0.30067   0.15439 
 H                    -2.5182   -0.46541  -0.10926 
 H                    -0.88532   1.56272   1.15653 
 H                    -0.81936   1.74432  -0.59397 
 H                    -0.16284  -0.65521  -0.81792 
 H                    -0.23136  -0.83929   0.92924 
 H                     1.64786   1.07677  -0.56996 
 H                     2.12577  -0.44976   0.17694 
 H                     1.58009   0.89259   1.18554 
 H                    -6.8319   -0.50651   0.68788 
 Cl                   -7.66233   4.84019  -0.70449 
 H                    -5.29753   3.29947  -0.5927 
 C                    -9.42938   0.22325   0.85442 
 H                    -9.50792   2.82115   0.10564 
 F                    -9.74034   0.42545   2.15042 
 F                    -10.54368   0.49319   0.15529 
 F                    -9.19184  -1.08861   0.72096 
 O                    -4.72265  -2.10898   0.40027 
 O                    -2.74164  -2.26371  -0.60703 
 C                    -3.80571  -2.77018  -0.1683 
 C                    -4.03581  -4.26954  -0.3188 
 C                    -2.88815  -5.03692  -0.95558 
 H                    -4.9551   -4.39141  -0.90021 
 H                    -4.26205  -4.66054   0.67759 
 H                    -2.67893  -4.67457  -1.96395 
 H                    -3.12922  -6.09987  -1.02503 
 H                    -1.97206  -4.93896  -0.36944 
 
 Add virtual bond connecting atoms O31        and H14        Dist= 3.45D+00.
 Add virtual bond connecting atoms O32        and H15        Dist= 3.55D+00.

 GradGradGradGradGradGradGradGradGradGradGradGradGradGradGradGradGradGrad
 Berny optimization.
 Initialization pass.
                           ----------------------------
                           !    Initial Parameters    !
                           ! (Angstroms and Degrees)  !
 --------------------------                            --------------------------
 ! Name  Definition              Value          Derivative Info.                !
 --------------------------------------------------------------------------------
 ! R1    R(1,2)                  1.3906         estimate D2E/DX2                !
 ! R2    R(1,9)                  1.4029         estimate D2E/DX2                !
 ! R3    R(1,13)                 1.3995         estimate D2E/DX2                !
 ! R4    R(2,3)                  1.3831         estimate D2E/DX2                !
 ! R5    R(2,14)                 1.0296         estimate D2E/DX2                !
 ! R6    R(3,4)                  1.2379         estimate D2E/DX2                !
 ! R7    R(3,5)                  1.345          estimate D2E/DX2                !
 ! R8    R(5,6)                  1.4553         estimate D2E/DX2                !
 ! R9    R(5,15)                 1.024          estimate D2E/DX2                !
 ! R10   R(6,7)                  1.5204         estimate D2E/DX2                !
 ! R11   R(6,16)                 1.0941         estimate D2E/DX2                !
 ! R12   R(6,17)                 1.095          estimate D2E/DX2                !
 ! R13   R(7,8)                  1.5236         estimate D2E/DX2                !
 ! R14   R(7,18)                 1.0946         estimate D2E/DX2                !
 ! R15   R(7,19)                 1.0946         estimate D2E/DX2                !
 ! R16   R(8,20)                 1.0932         estimate D2E/DX2                !
 ! R17   R(8,21)                 1.0916         estimate D2E/DX2                !
 ! R18   R(8,22)                 1.0932         estimate D2E/DX2                !
 ! R19   R(9,10)                 1.3837         estimate D2E/DX2                !
 ! R20   R(9,23)                 1.0841         estimate D2E/DX2                !
 ! R21   R(10,11)                1.3927         estimate D2E/DX2                !
 ! R22   R(10,26)                1.4998         estimate D2E/DX2                !
 ! R23   R(11,12)                1.3844         estimate D2E/DX2                !
 ! R24   R(11,27)                1.0827         estimate D2E/DX2                !
 ! R25   R(12,13)                1.3878         estimate D2E/DX2                !
 ! R26   R(12,24)                1.7485         estimate D2E/DX2                !
 ! R27   R(13,25)                1.0792         estimate D2E/DX2                !
 ! R28   R(14,31)                1.8265         estimate D2E/DX2                !
 ! R29   R(15,32)                1.8792         estimate D2E/DX2                !
 ! R30   R(26,28)                1.348          estimate D2E/DX2                !
 ! R31   R(26,29)                1.3429         estimate D2E/DX2                !
 ! R32   R(26,30)                1.3399         estimate D2E/DX2                !
 ! R33   R(31,33)                1.2654         estimate D2E/DX2                !
 ! R34   R(32,33)                1.2575         estimate D2E/DX2                !
 ! R35   R(33,34)                1.5244         estimate D2E/DX2                !
 ! R36   R(34,35)                1.5204         estimate D2E/DX2                !
 ! R37   R(34,36)                1.0945         estimate D2E/DX2                !
 ! R38   R(34,37)                1.094          estimate D2E/DX2                !
 ! R39   R(35,38)                1.0917         estimate D2E/DX2                !
 ! R40   R(35,39)                1.0922         estimate D2E/DX2                !
 ! R41   R(35,40)                1.092          estimate D2E/DX2                !
 ! A1    A(2,1,9)              117.2197         estimate D2E/DX2                !
 ! A2    A(2,1,13)             123.6511         estimate D2E/DX2                !
 ! A3    A(9,1,13)             119.0814         estimate D2E/DX2                !
 ! A4    A(1,2,3)              126.2961         estimate D2E/DX2                !
 ! A5    A(1,2,14)             115.7288         estimate D2E/DX2                !
 ! A6    A(3,2,14)             116.628          estimate D2E/DX2                !
 ! A7    A(2,3,4)              123.2551         estimate D2E/DX2                !
 ! A8    A(2,3,5)              113.7722         estimate D2E/DX2                !
 ! A9    A(4,3,5)              122.9683         estimate D2E/DX2                !
 ! A10   A(3,5,6)              121.0047         estimate D2E/DX2                !
 ! A11   A(3,5,15)             119.7702         estimate D2E/DX2                !
 ! A12   A(6,5,15)             118.7746         estimate D2E/DX2                !
 ! A13   A(5,6,7)              110.1294         estimate D2E/DX2                !
 ! A14   A(5,6,16)             109.5552         estimate D2E/DX2                !
 ! A15   A(5,6,17)             109.9586         estimate D2E/DX2                !
 ! A16   A(7,6,16)             110.0365         estimate D2E/DX2                !
 ! A17   A(7,6,17)             109.9875         estimate D2E/DX2                !
 ! A18   A(16,6,17)            107.1241         estimate D2E/DX2                !
 ! A19   A(6,7,8)              111.1901         estimate D2E/DX2                !
 ! A20   A(6,7,18)             109.2578         estimate D2E/DX2                !
 ! A21   A(6,7,19)             109.2492         estimate D2E/DX2                !
 ! A22   A(8,7,18)             110.0579         estimate D2E/DX2                !
 ! A23   A(8,7,19)             110.1248         estimate D2E/DX2                !
 ! A24   A(18,7,19)            106.8566         estimate D2E/DX2                !
 ! A25   A(7,8,20)             111.037          estimate D2E/DX2                !
 ! A26   A(7,8,21)             111.1936         estimate D2E/DX2                !
 ! A27   A(7,8,22)             111.0414         estimate D2E/DX2                !
 ! A28   A(20,8,21)            107.8077         estimate D2E/DX2                !
 ! A29   A(20,8,22)            107.7887         estimate D2E/DX2                !
 ! A30   A(21,8,22)            107.8166         estimate D2E/DX2                !
 ! A31   A(1,9,10)             119.8783         estimate D2E/DX2                !
 ! A32   A(1,9,23)             119.3569         estimate D2E/DX2                !
 ! A33   A(10,9,23)            120.7648         estimate D2E/DX2                !
 ! A34   A(9,10,11)            122.0705         estimate D2E/DX2                !
 ! A35   A(9,10,26)            119.4988         estimate D2E/DX2                !
 ! A36   A(11,10,26)           118.3591         estimate D2E/DX2                !
 ! A37   A(10,11,12)           116.8998         estimate D2E/DX2                !
 ! A38   A(10,11,27)           121.7453         estimate D2E/DX2                !
 ! A39   A(12,11,27)           121.3541         estimate D2E/DX2                !
 ! A40   A(11,12,13)           123.0474         estimate D2E/DX2                !
 ! A41   A(11,12,24)           118.684          estimate D2E/DX2                !
 ! A42   A(13,12,24)           118.2645         estimate D2E/DX2                !
 ! A43   A(1,13,12)            119.0097         estimate D2E/DX2                !
 ! A44   A(1,13,25)            120.7938         estimate D2E/DX2                !
 ! A45   A(12,13,25)           120.1915         estimate D2E/DX2                !
 ! A46   A(10,26,28)           111.7799         estimate D2E/DX2                !
 ! A47   A(10,26,29)           112.1991         estimate D2E/DX2                !
 ! A48   A(10,26,30)           112.776          estimate D2E/DX2                !
 ! A49   A(28,26,29)           106.1985         estimate D2E/DX2                !
 ! A50   A(28,26,30)           106.4708         estimate D2E/DX2                !
 ! A51   A(29,26,30)           106.982          estimate D2E/DX2                !
 ! A52   A(14,31,33)           115.2791         estimate D2E/DX2                !
 ! A53   A(15,32,33)           113.18           estimate D2E/DX2                !
 ! A54   A(31,33,32)           124.0199         estimate D2E/DX2                !
 ! A55   A(31,33,34)           116.6754         estimate D2E/DX2                !
 ! A56   A(32,33,34)           119.3046         estimate D2E/DX2                !
 ! A57   A(33,34,35)           115.0787         estimate D2E/DX2                !
 ! A58   A(33,34,36)           106.7826         estimate D2E/DX2                !
 ! A59   A(33,34,37)           107.0274         estimate D2E/DX2                !
 ! A60   A(35,34,36)           110.8132         estimate D2E/DX2                !
 ! A61   A(35,34,37)           110.9271         estimate D2E/DX2                !
 ! A62   A(36,34,37)           105.6833         estimate D2E/DX2                !
 ! A63   A(34,35,38)           111.3456         estimate D2E/DX2                !
 ! A64   A(34,35,39)           110.5636         estimate D2E/DX2                !
 ! A65   A(34,35,40)           111.2952         estimate D2E/DX2                !
 ! A66   A(38,35,39)           107.8546         estimate D2E/DX2                !
 ! A67   A(38,35,40)           107.7733         estimate D2E/DX2                !
 ! A68   A(39,35,40)           107.8558         estimate D2E/DX2                !
 ! A69   L(2,14,31,5,-1)       182.3584         estimate D2E/DX2                !
 ! A70   L(5,15,32,1,-1)       181.116          estimate D2E/DX2                !
 ! A71   L(2,14,31,5,-2)       178.1794         estimate D2E/DX2                !
 ! A72   L(5,15,32,1,-2)       176.9733         estimate D2E/DX2                !
 ! D1    D(9,1,2,3)           -157.5806         estimate D2E/DX2                !
 ! D2    D(9,1,2,14)             8.6413         estimate D2E/DX2                !
 ! D3    D(13,1,2,3)            24.9621         estimate D2E/DX2                !
 ! D4    D(13,1,2,14)         -168.816          estimate D2E/DX2                !
 ! D5    D(2,1,9,10)          -178.0408         estimate D2E/DX2                !
 ! D6    D(2,1,9,23)             1.8861         estimate D2E/DX2                !
 ! D7    D(13,1,9,10)           -0.4627         estimate D2E/DX2                !
 ! D8    D(13,1,9,23)          179.4642         estimate D2E/DX2                !
 ! D9    D(2,1,13,12)          178.5413         estimate D2E/DX2                !
 ! D10   D(2,1,13,25)           -0.6524         estimate D2E/DX2                !
 ! D11   D(9,1,13,12)            1.1287         estimate D2E/DX2                !
 ! D12   D(9,1,13,25)         -178.065          estimate D2E/DX2                !
 ! D13   D(1,2,3,4)              0.2394         estimate D2E/DX2                !
 ! D14   D(1,2,3,5)            179.4961         estimate D2E/DX2                !
 ! D15   D(14,2,3,4)          -165.8737         estimate D2E/DX2                !
 ! D16   D(14,2,3,5)            13.383          estimate D2E/DX2                !
 ! D17   D(1,2,31,33)          149.7173         estimate D2E/DX2                !
 ! D18   D(3,2,31,33)          -43.7687         estimate D2E/DX2                !
 ! D19   D(2,3,5,6)            179.6509         estimate D2E/DX2                !
 ! D20   D(2,3,5,15)             7.4473         estimate D2E/DX2                !
 ! D21   D(4,3,5,6)             -1.09           estimate D2E/DX2                !
 ! D22   D(4,3,5,15)          -173.2935         estimate D2E/DX2                !
 ! D23   D(3,5,6,7)           -179.7894         estimate D2E/DX2                !
 ! D24   D(3,5,6,16)            59.0502         estimate D2E/DX2                !
 ! D25   D(3,5,6,17)           -58.4289         estimate D2E/DX2                !
 ! D26   D(15,5,6,7)            -7.5098         estimate D2E/DX2                !
 ! D27   D(15,5,6,16)         -128.6703         estimate D2E/DX2                !
 ! D28   D(15,5,6,17)          113.8507         estimate D2E/DX2                !
 ! D29   D(3,5,32,33)          -36.9488         estimate D2E/DX2                !
 ! D30   D(6,5,32,33)          152.7124         estimate D2E/DX2                !
 ! D31   D(5,6,7,8)           -179.6582         estimate D2E/DX2                !
 ! D32   D(5,6,7,18)            58.6679         estimate D2E/DX2                !
 ! D33   D(5,6,7,19)           -57.9061         estimate D2E/DX2                !
 ! D34   D(16,6,7,8)           -58.7859         estimate D2E/DX2                !
 ! D35   D(16,6,7,18)          179.5402         estimate D2E/DX2                !
 ! D36   D(16,6,7,19)           62.9662         estimate D2E/DX2                !
 ! D37   D(17,6,7,8)            58.9985         estimate D2E/DX2                !
 ! D38   D(17,6,7,18)          -62.6754         estimate D2E/DX2                !
 ! D39   D(17,6,7,19)         -179.2494         estimate D2E/DX2                !
 ! D40   D(6,7,8,20)           -59.9595         estimate D2E/DX2                !
 ! D41   D(6,7,8,21)          -179.9965         estimate D2E/DX2                !
 ! D42   D(6,7,8,22)            59.9522         estimate D2E/DX2                !
 ! D43   D(18,7,8,20)           61.247          estimate D2E/DX2                !
 ! D44   D(18,7,8,21)          -58.7901         estimate D2E/DX2                !
 ! D45   D(18,7,8,22)         -178.8413         estimate D2E/DX2                !
 ! D46   D(19,7,8,20)          178.7997         estimate D2E/DX2                !
 ! D47   D(19,7,8,21)           58.7627         estimate D2E/DX2                !
 ! D48   D(19,7,8,22)          -61.2886         estimate D2E/DX2                !
 ! D49   D(1,9,10,11)           -0.5987         estimate D2E/DX2                !
 ! D50   D(1,9,10,26)         -177.47           estimate D2E/DX2                !
 ! D51   D(23,9,10,11)         179.4754         estimate D2E/DX2                !
 ! D52   D(23,9,10,26)           2.6041         estimate D2E/DX2                !
 ! D53   D(9,10,11,12)           0.938          estimate D2E/DX2                !
 ! D54   D(9,10,11,27)        -179.3662         estimate D2E/DX2                !
 ! D55   D(26,10,11,12)        177.8435         estimate D2E/DX2                !
 ! D56   D(26,10,11,27)         -2.4607         estimate D2E/DX2                !
 ! D57   D(9,10,26,28)          96.3289         estimate D2E/DX2                !
 ! D58   D(9,10,26,29)        -144.4938         estimate D2E/DX2                !
 ! D59   D(9,10,26,30)         -23.5987         estimate D2E/DX2                !
 ! D60   D(11,10,26,28)        -80.6583         estimate D2E/DX2                !
 ! D61   D(11,10,26,29)         38.5189         estimate D2E/DX2                !
 ! D62   D(11,10,26,30)        159.414          estimate D2E/DX2                !
 ! D63   D(10,11,12,13)         -0.2345         estimate D2E/DX2                !
 ! D64   D(10,11,12,24)        179.0097         estimate D2E/DX2                !
 ! D65   D(27,11,12,13)       -179.9316         estimate D2E/DX2                !
 ! D66   D(27,11,12,24)         -0.6874         estimate D2E/DX2                !
 ! D67   D(11,12,13,1)          -0.7927         estimate D2E/DX2                !
 ! D68   D(11,12,13,25)        178.406          estimate D2E/DX2                !
 ! D69   D(24,12,13,1)         179.9601         estimate D2E/DX2                !
 ! D70   D(24,12,13,25)         -0.8412         estimate D2E/DX2                !
 ! D71   D(14,31,33,32)         16.2707         estimate D2E/DX2                !
 ! D72   D(14,31,33,34)       -163.5739         estimate D2E/DX2                !
 ! D73   D(15,32,33,31)          8.7355         estimate D2E/DX2                !
 ! D74   D(15,32,33,34)       -171.4238         estimate D2E/DX2                !
 ! D75   D(31,33,34,35)       -177.6314         estimate D2E/DX2                !
 ! D76   D(31,33,34,36)         58.9401         estimate D2E/DX2                !
 ! D77   D(31,33,34,37)        -53.8685         estimate D2E/DX2                !
 ! D78   D(32,33,34,35)          2.5164         estimate D2E/DX2                !
 ! D79   D(32,33,34,36)       -120.9122         estimate D2E/DX2                !
 ! D80   D(32,33,34,37)        126.2793         estimate D2E/DX2                !
 ! D81   D(33,34,35,38)        -60.2599         estimate D2E/DX2                !
 ! D82   D(33,34,35,39)        179.8595         estimate D2E/DX2                !
 ! D83   D(33,34,35,40)         60.0104         estimate D2E/DX2                !
 ! D84   D(36,34,35,38)         61.0016         estimate D2E/DX2                !
 ! D85   D(36,34,35,39)        -58.879          estimate D2E/DX2                !
 ! D86   D(36,34,35,40)       -178.7281         estimate D2E/DX2                !
 ! D87   D(37,34,35,38)        178.0651         estimate D2E/DX2                !
 ! D88   D(37,34,35,39)         58.1845         estimate D2E/DX2                !
 ! D89   D(37,34,35,40)        -61.6646         estimate D2E/DX2                !
 --------------------------------------------------------------------------------
 Trust Radius=3.00D-01 FncErr=1.00D-07 GrdErr=1.00D-06
 Number of steps in this run=    212 maximum allowed number of steps=    240.
 GradGradGradGradGradGradGradGradGradGradGradGradGradGradGradGradGradGrad

                          Input orientation:                          
 ---------------------------------------------------------------------
 Center     Atomic      Atomic             Coordinates (Angstroms)
 Number     Number       Type             X           Y           Z
 ---------------------------------------------------------------------
      1          6           0       -5.898425    1.331731    0.068142
      2          7           0       -4.648303    0.723085    0.044881
      3          6           0       -3.425591    1.359553    0.157961
      4          8           0       -3.308110    2.583446    0.301398
      5          7           0       -2.373008    0.523469    0.113587
      6          6           0       -1.011033    1.027022    0.210866
      7          6           0       -0.020615   -0.123611    0.128326
      8          6           0        1.414628    0.376307    0.236256
      9          6           0       -6.995369    0.531293    0.420346
     10          6           0       -8.269753    1.070265    0.421667
     11          6           0       -8.509659    2.402244    0.093126
     12          6           0       -7.411281    3.168422   -0.257899
     13          6           0       -6.117321    2.667563   -0.287156
     14          1           0       -4.647511   -0.300667    0.154390
     15          1           0       -2.518199   -0.465405   -0.109263
     16          1           0       -0.885323    1.562725    1.156530
     17          1           0       -0.819358    1.744318   -0.593971
     18          1           0       -0.162839   -0.655210   -0.817921
     19          1           0       -0.231360   -0.839291    0.929239
     20          1           0        1.647863    1.076772   -0.569962
     21          1           0        2.125773   -0.449765    0.176939
     22          1           0        1.580089    0.892590    1.185536
     23          1           0       -6.831903   -0.506508    0.687882
     24         17           0       -7.662332    4.840194   -0.704493
     25          1           0       -5.297529    3.299475   -0.592705
     26          6           0       -9.429382    0.223249    0.854423
     27          1           0       -9.507923    2.821147    0.105645
     28          9           0       -9.740337    0.425454    2.150419
     29          9           0      -10.543679    0.493193    0.155289
     30          9           0       -9.191842   -1.088606    0.720961
     31          8           0       -4.722652   -2.108975    0.400267
     32          8           0       -2.741643   -2.263706   -0.607027
     33          6           0       -3.805708   -2.770181   -0.168297
     34          6           0       -4.035810   -4.269542   -0.318798
     35          6           0       -2.888147   -5.036922   -0.955585
     36          1           0       -4.955103   -4.391406   -0.900212
     37          1           0       -4.262047   -4.660536    0.677594
     38          1           0       -2.678934   -4.674574   -1.963947
     39          1           0       -3.129222   -6.099872   -1.025027
     40          1           0       -1.972062   -4.938961   -0.369436
 ---------------------------------------------------------------------
                    Distance matrix (angstroms):
                    1          2          3          4          5
     1  C    0.000000
     2  N    1.390610   0.000000
     3  C    2.474621   1.383077   0.000000
     4  O    2.886335   2.307133   1.237857   0.000000
     5  N    3.617169   2.285067   1.344966   2.270064   0.000000
     6  C    4.898961   3.653719   2.437923   2.776187   1.455337
     7  C    6.055600   4.705247   3.714096   4.262127   2.439812
     8  C    7.377117   6.075855   4.939699   5.213441   3.792479
     9  C    1.402866   2.384633   3.673986   4.221535   4.632535
    10  C    2.411751   3.657513   4.859952   5.188650   5.930050
    11  C    2.822263   4.210935   5.190295   5.208870   6.417842
    12  C    2.401764   3.702080   4.396666   4.182227   5.702453
    13  C    1.399499   2.459524   3.025629   2.871435   4.333314
    14  H    2.058385   1.029593   2.061415   3.183350   2.419551
    15  H    3.832375   2.444097   2.055539   3.176176   1.024019
    16  H    5.135090   4.012578   2.737039   2.764601   2.093082
    17  H    5.138632   4.013959   2.739689   2.774834   2.098795
    18  H    6.134328   4.771112   3.956913   4.651289   2.672422
    19  H    6.129474   4.767861   3.953846   4.644966   2.666283
    20  H    7.577509   6.335995   5.133202   5.252713   4.115919
    21  H    8.220299   6.876127   5.838804   6.224382   4.603285
    22  H    7.574271   6.334247   5.131354   5.247397   4.112457
    23  H    2.152808   2.587172   3.919944   4.702585   4.612202
    24  Cl   4.002205   5.157181   5.550555   5.006394   6.876068
    25  H    2.160974   2.732360   2.798383   2.295627   4.093638
    26  C    3.783467   4.874824   6.149939   6.583793   7.101505
    27  H    3.904900   5.293531   6.255698   6.207456   7.495759
    28  F    4.462903   5.518214   6.687185   7.032024   7.644333
    29  F    4.721136   5.900890   7.170618   7.532859   8.170833
    30  F    4.138937   4.937921   6.289683   6.948259   7.033078
    31  O    3.651193   2.855239   3.711033   4.901991   3.540166
    32  O    4.832007   3.602951   3.765766   4.963970   2.902330
    33  C    4.610971   3.599767   4.160004   5.397179   3.602807
    34  C    5.915515   5.043187   5.682110   6.919366   5.091642
    35  C    7.118253   6.105470   6.514884   7.734751   5.685635
    36  H    5.880635   5.210120   6.044226   7.266706   5.643669
    37  H    6.241509   5.434418   6.100095   7.316201   5.546214
    38  H    7.111274   6.086750   6.439773   7.629319   5.606192
    39  H    8.005763   7.071426   7.558460   8.785865   6.762910
    40  H    7.411436   6.276359   6.485535   7.669527   5.498383
                    6          7          8          9         10
     6  C    0.000000
     7  C    1.520426   0.000000
     8  C    2.511555   1.523644   0.000000
     9  C    6.008486   7.011516   8.413439   0.000000
    10  C    7.261909   8.340244   9.710983   1.383672   0.000000
    11  C    7.624598   8.856921  10.129975   2.429116   1.392717
    12  C    6.765243   8.099913   9.270209   2.754533   2.366653
    13  C    5.386426   6.718118   7.890126   2.415611   2.772499
    14  H    3.871682   4.630356   6.100371   2.505060   3.882207
    15  H    2.145081   2.532035   4.036706   4.617244   5.976666
    16  H    1.094103   2.156073   2.746683   6.240071   7.437228
    17  H    1.094996   2.156121   2.747986   6.375215   7.549454
    18  H    2.146564   1.094627   2.159565   7.044470   8.380686
    19  H    2.146409   1.094566   2.160366   6.920209   8.277669
    20  H    2.771623   2.170793   1.093178   8.716863   9.967069
    21  H    3.467217   2.171571   1.091622   9.176979  10.508917
    22  H    2.771635   2.170855   1.093187   8.617106   9.881015
    23  H    6.038360   6.844951   8.305938   1.084126   2.150465
    24  Cl   7.721266   9.150343  10.158864   4.502969   3.981150
    25  H    4.917705   6.331131   7.367845   3.401729   3.851290
    26  C    8.481086   9.443115  10.862694   2.491532   1.499818
    27  H    8.684878   9.933838  11.193589   3.414000   2.167608
    28  F    8.962394   9.943004  11.318113   3.246414   2.359446
    29  F    9.547744  10.541160  11.959153   3.558400   2.361082
    30  F    8.465325   9.240879  10.718122   2.745713   2.366548
    31  O    4.862763   5.111240   6.623423   3.483771   4.763397
    32  O    3.806947   3.539031   4.995536   5.192466   6.537092
    33  C    4.729981   4.628094   6.108679   4.628193   5.918174
    34  C    6.122369   5.788821   7.183263   5.688000   6.854787
    35  C    6.454113   5.791220   7.016937   7.054606   8.255679
    36  H    6.793345   6.604630   8.037171   5.489948   6.524119
    37  H    6.567743   6.234993   7.601922   5.873016   6.997806
    38  H    6.326128   5.670585   6.863639   7.170601   8.363707
    39  H    7.537027   6.834425   8.011136   7.810797   8.940294
    40  H    6.070690   5.219532   6.331556   7.468671   8.740569
                   11         12         13         14         15
    11  C    0.000000
    12  C    1.384443   0.000000
    13  C    2.436861   1.387821   0.000000
    14  H    4.714411   4.454547   3.341511   0.000000
    15  H    6.645447   6.096642   4.775020   2.151887   0.000000
    16  H    7.743780   6.867824   5.538836   4.316315   2.895139
    17  H    7.748916   6.752367   5.386551   4.404175   2.829113
    18  H    8.935739   8.214237   6.839473   4.602539   2.466970
    19  H    8.929551   8.307968   6.958605   4.515849   2.539274
    20  H   10.265077   9.302713   7.931499   6.484886   4.466165
    21  H   11.011512  10.209591   8.825062   6.774962   4.652809
    22  H   10.260382   9.386567   8.035513   6.424182   4.507396
    23  H    3.410197   3.838658   3.396477   2.257997   4.386932
    24  Cl   2.701437   1.748512   2.698435   6.021236   7.413892
    25  H    3.404874   2.144112   1.079228   3.733858   4.704541
    26  C    2.484649   3.739524   4.271723   4.861155   7.011946
    27  H    1.082667   2.156079   3.416733   5.776825   7.726827
    28  F    3.107205   4.329940   4.908673   5.517994   7.619650
    29  F    2.790264   4.139987   4.951392   5.949371   8.086855
    30  F    3.611867   4.717081   4.957599   4.646805   6.753900
    31  O    5.898039   5.959264   5.023243   1.826494   2.796525
    32  O    7.451934   7.171849   5.984558   2.840002   1.879250
    33  C    6.996391   6.948035   5.909885   2.628927   2.640673
    34  C    8.043491   8.168282   7.242729   4.043520   4.101036
    35  C    9.383090   9.395380   8.380540   5.172960   4.663891
    36  H    7.731447   7.974734   7.180225   4.235675   4.688025
    37  H    8.262365   8.490313   7.620618   4.408036   4.610778
    38  H    9.397354   9.317634   8.278956   5.243445   4.602476
    39  H   10.123505  10.238447   9.291992   6.109583   5.741009
    40  H    9.841109   9.763565   8.663091   5.380166   4.514272
                   16         17         18         19         20
    16  H    0.000000
    17  H    1.761131   0.000000
    18  H    3.056088   2.497780   0.000000
    19  H    2.499802   3.056296   1.758166   0.000000
    20  H    3.103861   2.556046   2.517913   3.074147   0.000000
    21  H    3.751854   3.752612   2.503937   2.504747   1.765383
    22  H    2.555029   3.106353   3.073650   2.519216   1.766434
    23  H    6.313729   6.546759   6.838564   6.613332   8.717532
    24  Cl   7.754552   7.511522   9.298103   9.494471  10.042966
    25  H    5.054076   4.740520   6.485005   6.716529   7.292420
    26  C    8.653693   8.862505   9.457126   9.259492  11.201014
    27  H    8.777086   8.782949  10.013422  10.006585  11.311536
    28  F    8.982899   9.426290  10.085006   9.670135  11.726712
    29  F    9.768840   9.833062  10.489414  10.426813  12.227029
    30  F    8.730266   8.936050   9.169454   8.966370  11.128996
    31  O    5.364551   5.574233   4.938553   4.697192   7.188448
    32  O    4.604088   4.445177   3.046631   3.269647   5.516151
    33  C    5.390537   5.429566   4.262113   4.208193   6.685942
    34  C    6.790986   6.825524   5.320941   5.272386   7.807066
    35  C    7.213021   7.099004   5.161943   5.313302   7.622424
    36  H    7.499665   7.405759   6.077148   6.186934   8.579580
    37  H    7.096522   7.381812   5.923066   5.559827   8.330675
    38  H    7.201272   6.821805   4.878462   5.391710   7.330917
    39  H    8.277057   8.188565   6.203762   6.315890   8.633183
    40  H    6.766202   6.785673   4.671718   4.639385   7.023754
                   21         22         23         24         25
    21  H    0.000000
    22  H    1.765490   0.000000
    23  H    8.972415   8.542057   0.000000
    24  Cl  11.160985  10.226345   5.587087   0.000000
    25  H    8.351919   7.500457   4.298803   2.824643   0.000000
    26  C   11.594547  11.034767   2.703179   5.183518   5.350659
    27  H   12.084984  11.306171   4.309684   2.852907   4.294637
    28  F   12.060895  11.371071   3.386231   5.653190   5.960140
    29  F   12.704513  12.174016   3.880765   5.285622   5.996399
    30  F   11.348678  10.962457   2.430894   6.286652   6.012208
    31  O    7.050090   7.024997   2.664500   7.625822   5.528816
    32  O    5.253258   5.643833   4.636244   8.642226   6.122233
    33  C    6.378557   6.652486   3.874934   8.548618   6.264692
    34  C    7.266467   7.774892   4.794994   9.812630   7.678344
    35  C    6.889413   7.727137   6.227266  10.973300   8.685177
    36  H    8.175304   8.659081   4.597483   9.622361   7.704639
    37  H    7.667170   8.076248   4.884692  10.185086   8.126971
    38  H    6.746674   7.684519   6.453846  10.814402   8.504281
    39  H    7.809187   8.715430   6.923123  11.846387   9.655888
    40  H    6.102758   7.003050   6.662027  11.319156   8.887091
                   26         27         28         29         30
    26  C    0.000000
    27  H    2.704794   0.000000
    28  F    1.348031   3.158238   0.000000
    29  F    1.342876   2.548455   2.151858   0.000000
    30  F    1.339851   3.970477   2.153270   2.156278   0.000000
    31  O    5.272460   6.876898   5.887574   6.380881   4.595396
    32  O    7.283312   8.493891   7.988543   8.309837   6.689506
    33  C    6.452309   7.990823   7.127998   7.493635   5.712173
    34  C    7.117039   8.966719   7.789843   8.078414   6.146880
    35  C    8.586808  10.329419   9.297167   9.509121   7.624734
    36  H    6.662804   8.588414   7.443585   7.497038   5.611297
    37  H    7.112241   9.155432   7.618935   8.142028   6.087976
    38  H    8.803433  10.349113   9.633365   9.646305   7.904801
    39  H    9.121744  11.025010   9.816832   9.991788   8.057086
    40  H    9.151932  10.827473   9.771014  10.161508   8.254661
                   31         32         33         34         35
    31  O    0.000000
    32  O    2.227775   0.000000
    33  C    1.265403   1.257472   0.000000
    34  C    2.378414   2.404438   1.524362   0.000000
    35  C    3.711686   2.798872   2.569018   1.520361   0.000000
    36  H    2.637190   3.084230   2.117824   1.094529   2.166117
    37  H    2.607591   3.115554   2.120665   1.094010   2.167150
    38  H    4.043339   2.767210   2.849683   2.170640   1.091724
    39  H    4.527443   3.878288   3.504064   2.161196   1.092155
    40  H    4.020822   2.793867   2.847160   2.170193   1.091961
                   36         37         38         39         40
    36  H    0.000000
    37  H    1.744198   0.000000
    38  H    2.528372   3.079640   0.000000
    39  H    2.503653   2.500779   1.765165   0.000000
    40  H    3.078972   2.533342   1.764095   1.765370   0.000000
 Stoichiometry    C14H17ClF3N2O3(1-)
 Framework group  C1[X(C14H17ClF3N2O3)]
 Deg. of freedom   114
 Full point group                 C1      NOp   1
 Largest Abelian subgroup         C1      NOp   1
 Largest concise Abelian subgroup C1      NOp   1
                         Standard orientation:                         
 ---------------------------------------------------------------------
 Center     Atomic      Atomic             Coordinates (Angstroms)
 Number     Number       Type             X           Y           Z
 ---------------------------------------------------------------------
      1          6           0        0.913309   -0.638371   -0.052702
      2          7           0       -0.475028   -0.575439   -0.004182
      3          6           0       -1.335777   -1.636943    0.208478
      4          8           0       -0.948957   -2.798839    0.389199
      5          7           0       -2.634760   -1.288363    0.216796
      6          6           0       -3.676774   -2.283790    0.420115
      7          6           0       -5.045958   -1.624021    0.378478
      8          6           0       -6.155953   -2.644548    0.597397
      9          6           0        1.618714    0.546891    0.203408
     10          6           0        3.000386    0.556367    0.129648
     11          6           0        3.732117   -0.586802   -0.182437
     12          6           0        3.011838   -1.741149   -0.438099
     13          6           0        1.625888   -1.794706   -0.389926
     14          1           0       -0.876968    0.368678    0.080372
     15          1           0       -2.907017   -0.335015   -0.039366
     16          1           0       -3.527956   -2.777930    1.384864
     17          1           0       -3.610439   -3.057392   -0.351995
     18          1           0       -5.178050   -1.127145   -0.587894
     19          1           0       -5.094394   -0.844556    1.145396
     20          1           0       -6.134453   -3.419210   -0.173624
     21          1           0       -7.139020   -2.170922    0.567453
     22          1           0       -6.051072   -3.136410    1.568030
     23          1           0        1.070698    1.447427    0.456470
     24         17           0        3.882543   -3.197430   -0.860486
     25          1           0        1.109834   -2.713522   -0.622732
     26          6           0        3.749023    1.813126    0.460636
     27          1           0        4.813733   -0.575791   -0.228841
     28          9           0        4.184050    1.814865    1.736541
     29          9           0        4.839355    1.971333   -0.307128
     30          9           0        3.002580    2.915857    0.312280
     31          8           0       -1.514004    2.069179    0.276737
     32          8           0       -3.444287    1.378046   -0.594655
     33          6           0       -2.647438    2.284977   -0.242882
     34          6           0       -3.041028    3.743703   -0.445083
     35          6           0       -4.431684    3.962298   -1.019357
     36          1           0       -2.278778    4.190035   -1.091423
     37          1           0       -2.935628    4.241182    0.523557
     38          1           0       -4.533526    3.497230   -2.001803
     39          1           0       -4.637312    5.029101   -1.130938
     40          1           0       -5.200246    3.539393   -0.369094
 ---------------------------------------------------------------------
 Rotational constants (GHZ):      0.2588052      0.1183408      0.0851040
 Standard basis: 6-311+G(d) (5D, 7F)
 There are   588 symmetry adapted cartesian basis functions of A   symmetry.
 There are   565 symmetry adapted basis functions of A   symmetry.
   565 basis functions,   930 primitive gaussians,   588 cartesian basis functions
    92 alpha electrons       92 beta electrons
       nuclear repulsion energy      2085.0596754811 Hartrees.
 NAtoms=   40 NActive=   40 NUniq=   40 SFac= 1.00D+00 NAtFMM=   60 NAOKFM=F Big=F
 Integral buffers will be    131072 words long.
 Raffenetti 2 integral format.
 Two-electron integral symmetry is turned on.
 Nuclear repulsion after empirical dispersion term =     2085.0572337263 Hartrees.
 ------------------------------------------------------------------------------
 Polarizable Continuum Model (PCM)
 =================================
 Model                : PCM (using non-symmetric T matrix).
 Atomic radii         : SMD-Coulomb.
 Polarization charges : Total charges.
 Charge compensation  : None.
 Solution method      : On-the-fly selection.
 Cavity type          : VdW (van der Waals Surface) (Alpha=1.000).
 Cavity algorithm     : GePol (No added spheres)
                        Default sphere list used, NSphG=   40.
                        Lebedev-Laikov grids with approx.  5.0 points / Ang**2.
                        Smoothing algorithm: York/Karplus (Gamma=1.0000).
                        Polarization charges: spherical gaussians, with
                                              point-specific exponents (IZeta= 3).
                        Self-potential: point-specific (ISelfS= 7).
                        Self-field    : sphere-specific E.n sum rule (ISelfD= 2).
 1st derivatives      : Analytical E(r).r(x)/FMM algorithm (CHGder, D1EAlg=3).
                        Cavity 1st derivative terms included.
 Solvent              : Water, Eps=  78.355300 Eps(inf)=   1.777849
 ------------------------------------------------------------------------------
 ------------------------------------------------------------------------------
 Atomic radii for non-electrostatic terms: SMD-CDS.
 ------------------------------------------------------------------------------
 Nuclear repulsion after PCM non-electrostatic terms =     2085.0720454561 Hartrees.
 One-electron integrals computed using PRISM.
 NBasis=   565 RedAO= T EigKep=  1.33D-06  NBF=   565
 NBsUse=   563 1.00D-06 EigRej=  7.77D-07 NBFU=   563
 ExpMin= 4.38D-02 ExpMax= 1.06D+05 ExpMxC= 3.62D+03 IAcc=3 IRadAn=         5 AccDes= 0.00D+00
 Harris functional with IExCor= 1009 and IRadAn=       5 diagonalized for initial guess.
 HarFok:  IExCor= 1009 AccDes= 0.00D+00 IRadAn=         5 IDoV= 1 UseB2=F ITyADJ=14
 ICtDFT=  3500011 ScaDFX=  1.000000  1.000000  1.000000  1.000000
 FoFCou: FMM=F IPFlag=           0 FMFlag=      100000 FMFlg1=           0
         NFxFlg=           0 DoJE=T BraDBF=F KetDBF=T FulRan=T
         wScrn=  0.000000 ICntrl=     500 IOpCl=  0 I1Cent=   200000004 NGrid=           0
         NMat0=    1 NMatS0=      1 NMatT0=    0 NMatD0=    1 NMtDS0=    0 NMtDT0=    0
 Petite list used in FoFCou.
 Requested convergence on RMS density matrix=1.00D-08 within 128 cycles.
 Requested convergence on MAX density matrix=1.00D-06.
 Requested convergence on             energy=1.00D-06.
 No special actions if energy rises.
 Inv3:  Mode=1 IEnd=    29710827.
 Iteration    1 A*A^-1 deviation from unit magnitude is 9.88D-15 for   3145.
 Iteration    1 A*A^-1 deviation from orthogonality  is 3.49D-15 for   2561    137.
 Iteration    1 A^-1*A deviation from unit magnitude is 9.77D-15 for   3145.
 Iteration    1 A^-1*A deviation from orthogonality  is 1.20D-09 for   1914   1420.
 Iteration    2 A*A^-1 deviation from unit magnitude is 3.77D-15 for    679.
 Iteration    2 A*A^-1 deviation from orthogonality  is 4.55D-15 for   1883    545.
 Iteration    2 A^-1*A deviation from unit magnitude is 1.11D-15 for   2855.
 Iteration    2 A^-1*A deviation from orthogonality  is 8.27D-16 for   3133   2971.
 Error on total polarization charges =  0.05758
 SCF Done:  E(RM062X) =  -1638.74941511     A.U. after   15 cycles
            NFock= 15  Conv=0.37D-08     -V/T= 2.0030
 SMD-CDS (non-electrostatic) energy       (kcal/mol) =       9.29
 (included in total energy above)

 **********************************************************************

            Population analysis using the SCF density.

 **********************************************************************

 Orbital symmetries:
       Occupied  (A) (A) (A) (A) (A) (A) (A) (A) (A) (A) (A) (A)
                 (A) (A) (A) (A) (A) (A) (A) (A) (A) (A) (A) (A)
                 (A) (A) (A) (A) (A) (A) (A) (A) (A) (A) (A) (A)
                 (A) (A) (A) (A) (A) (A) (A) (A) (A) (A) (A) (A)
                 (A) (A) (A) (A) (A) (A) (A) (A) (A) (A) (A) (A)
                 (A) (A) (A) (A) (A) (A) (A) (A) (A) (A) (A) (A)
                 (A) (A) (A) (A) (A) (A) (A) (A) (A) (A) (A) (A)
                 (A) (A) (A) (A) (A) (A) (A) (A)
       Virtual   (A) (A) (A) (A) (A) (A) (A) (A) (A) (A) (A) (A)
                 (A) (A) (A) (A) (A) (A) (A) (A) (A) (A) (A) (A)
                 (A) (A) (A) (A) (A) (A) (A) (A) (A) (A) (A) (A)
                 (A) (A) (A) (A) (A) (A) (A) (A) (A) (A) (A) (A)
                 (A) (A) (A) (A) (A) (A) (A) (A) (A) (A) (A) (A)
                 (A) (A) (A) (A) (A) (A) (A) (A) (A) (A) (A) (A)
                 (A) (A) (A) (A) (A) (A) (A) (A) (A) (A) (A) (A)
                 (A) (A) (A) (A) (A) (A) (A) (A) (A) (A) (A) (A)
                 (A) (A) (A) (A) (A) (A) (A) (A) (A) (A) (A) (A)
                 (A) (A) (A) (A) (A) (A) (A) (A) (A) (A) (A) (A)
                 (A) (A) (A) (A) (A) (A) (A) (A) (A) (A) (A) (A)
                 (A) (A) (A) (A) (A) (A) (A) (A) (A) (A) (A) (A)
                 (A) (A) (A) (A) (A) (A) (A) (A) (A) (A) (A) (A)
                 (A) (A) (A) (A) (A) (A) (A) (A) (A) (A) (A) (A)
                 (A) (A) (A) (A) (A) (A) (A) (A) (A) (A) (A) (A)
                 (A) (A) (A) (A) (A) (A) (A) (A) (A) (A) (A) (A)
                 (A) (A) (A) (A) (A) (A) (A) (A) (A) (A) (A) (A)
                 (A) (A) (A) (A) (A) (A) (A) (A) (A) (A) (A) (A)
                 (A) (A) (A) (A) (A) (A) (A) (A) (A) (A) (A) (A)
                 (A) (A) (A) (A) (A) (A) (A) (A) (A) (A) (A) (A)
                 (A) (A) (A) (A) (A) (A) (A) (A) (A) (A) (A) (A)
                 (A) (A) (A) (A) (A) (A) (A) (A) (A) (A) (A) (A)
                 (A) (A) (A) (A) (A) (A) (A) (A) (A) (A) (A) (A)
                 (A) (A) (A) (A) (A) (A) (A) (A) (A) (A) (A) (A)
                 (A) (A) (A) (A) (A) (A) (A) (A) (A) (A) (A) (A)
                 (A) (A) (A) (A) (A) (A) (A) (A) (A) (A) (A) (A)
                 (A) (A) (A) (A) (A) (A) (A) (A) (A) (A) (A) (A)
                 (A) (A) (A) (A) (A) (A) (A) (A) (A) (A) (A) (A)
                 (A) (A) (A) (A) (A) (A) (A) (A) (A) (A) (A) (A)
                 (A) (A) (A) (A) (A) (A) (A) (A) (A) (A) (A) (A)
                 (A) (A) (A) (A) (A) (A) (A) (A) (A) (A) (A) (A)
                 (A) (A) (A) (A) (A) (A) (A) (A) (A) (A) (A) (A)
                 (A) (A) (A) (A) (A) (A) (A) (A) (A) (A) (A) (A)
                 (A) (A) (A) (A) (A) (A) (A) (A) (A) (A) (A) (A)
                 (A) (A) (A) (A) (A) (A) (A) (A) (A) (A) (A) (A)
                 (A) (A) (A) (A) (A) (A) (A) (A) (A) (A) (A) (A)
                 (A) (A) (A) (A) (A) (A) (A) (A) (A) (A) (A) (A)
                 (A) (A) (A) (A) (A) (A) (A) (A) (A) (A) (A) (A)
                 (A) (A) (A) (A) (A) (A) (A) (A) (A) (A) (A) (A)
                 (A) (A) (A)
 The electronic state is 1-A.
 Alpha  occ. eigenvalues -- -102.68341 -25.28541 -25.28404 -25.28118 -19.59341
 Alpha  occ. eigenvalues --  -19.57931 -19.57619 -14.77199 -14.75487 -10.80925
 Alpha  occ. eigenvalues --  -10.67533 -10.63872 -10.61950 -10.61032 -10.58305
 Alpha  occ. eigenvalues --  -10.56401 -10.56173 -10.56102 -10.55952 -10.52690
 Alpha  occ. eigenvalues --  -10.52460 -10.51549 -10.51345  -9.82613  -7.55119
 Alpha  occ. eigenvalues --   -7.54458  -7.54443  -1.47738  -1.38444  -1.37995
 Alpha  occ. eigenvalues --   -1.17831  -1.16689  -1.06842  -1.05825  -1.02686
 Alpha  occ. eigenvalues --   -1.00326  -0.95537  -0.89284  -0.87304  -0.85741
 Alpha  occ. eigenvalues --   -0.84503  -0.81776  -0.77800  -0.74184  -0.72247
 Alpha  occ. eigenvalues --   -0.71913  -0.70090  -0.69498  -0.68214  -0.67982
 Alpha  occ. eigenvalues --   -0.64454  -0.62665  -0.59613  -0.59399  -0.58480
 Alpha  occ. eigenvalues --   -0.58232  -0.57734  -0.55711  -0.55301  -0.54038
 Alpha  occ. eigenvalues --   -0.53905  -0.53422  -0.53072  -0.52810  -0.52078
 Alpha  occ. eigenvalues --   -0.51866  -0.51142  -0.50784  -0.50377  -0.49162
 Alpha  occ. eigenvalues --   -0.48370  -0.46480  -0.46307  -0.45563  -0.45428
 Alpha  occ. eigenvalues --   -0.44309  -0.43698  -0.42168  -0.41748  -0.41488
 Alpha  occ. eigenvalues --   -0.39684  -0.39474  -0.39020  -0.38798  -0.37878
 Alpha  occ. eigenvalues --   -0.35971  -0.33982  -0.32994  -0.32528  -0.32466
 Alpha  occ. eigenvalues --   -0.31643  -0.27699
 Alpha virt. eigenvalues --   -0.00879   0.00385   0.01235   0.02159   0.02620
 Alpha virt. eigenvalues --    0.03164   0.03340   0.03456   0.04278   0.04434
 Alpha virt. eigenvalues --    0.04889   0.05237   0.05445   0.05509   0.06196
 Alpha virt. eigenvalues --    0.06436   0.06914   0.07157   0.07404   0.07963
 Alpha virt. eigenvalues --    0.08004   0.08094   0.08667   0.08944   0.09181
 Alpha virt. eigenvalues --    0.09797   0.09899   0.10012   0.10675   0.10805
 Alpha virt. eigenvalues --    0.11714   0.12026   0.12117   0.12646   0.12745
 Alpha virt. eigenvalues --    0.12936   0.13351   0.13774   0.14528   0.14729
 Alpha virt. eigenvalues --    0.15285   0.15541   0.15844   0.16746   0.17140
 Alpha virt. eigenvalues --    0.17425   0.18133   0.18369   0.18442   0.18514
 Alpha virt. eigenvalues --    0.19626   0.19766   0.20106   0.20489   0.20523
 Alpha virt. eigenvalues --    0.20702   0.21359   0.21727   0.22143   0.22280
 Alpha virt. eigenvalues --    0.22645   0.22925   0.23053   0.23442   0.23800
 Alpha virt. eigenvalues --    0.24055   0.24313   0.24647   0.25073   0.25229
 Alpha virt. eigenvalues --    0.25829   0.26045   0.26119   0.26269   0.26684
 Alpha virt. eigenvalues --    0.27072   0.27379   0.27547   0.27657   0.28085
 Alpha virt. eigenvalues --    0.28220   0.28591   0.29048   0.29131   0.29526
 Alpha virt. eigenvalues --    0.29584   0.30049   0.30546   0.30665   0.30954
 Alpha virt. eigenvalues --    0.31745   0.31861   0.32388   0.32671   0.33058
 Alpha virt. eigenvalues --    0.33557   0.33662   0.33741   0.33917   0.34152
 Alpha virt. eigenvalues --    0.34702   0.35076   0.36398   0.36736   0.37060
 Alpha virt. eigenvalues --    0.37457   0.37623   0.37710   0.38170   0.38568
 Alpha virt. eigenvalues --    0.38759   0.39505   0.40068   0.40214   0.41045
 Alpha virt. eigenvalues --    0.41749   0.42417   0.42798   0.43985   0.44584
 Alpha virt. eigenvalues --    0.44750   0.45124   0.45589   0.46404   0.46768
 Alpha virt. eigenvalues --    0.47470   0.47818   0.48384   0.48677   0.49213
 Alpha virt. eigenvalues --    0.49787   0.50044   0.51015   0.51345   0.51427
 Alpha virt. eigenvalues --    0.52108   0.53195   0.54000   0.54324   0.54647
 Alpha virt. eigenvalues --    0.56045   0.56597   0.57760   0.58638   0.58912
 Alpha virt. eigenvalues --    0.59897   0.60471   0.61997   0.62530   0.63159
 Alpha virt. eigenvalues --    0.64402   0.64787   0.65544   0.66515   0.66783
 Alpha virt. eigenvalues --    0.67653   0.68132   0.68636   0.68798   0.69945
 Alpha virt. eigenvalues --    0.70153   0.70499   0.70932   0.71169   0.72028
 Alpha virt. eigenvalues --    0.72791   0.72994   0.73128   0.73742   0.74200
 Alpha virt. eigenvalues --    0.74594   0.75015   0.75122   0.75591   0.76885
 Alpha virt. eigenvalues --    0.77012   0.77531   0.78269   0.79141   0.79661
 Alpha virt. eigenvalues --    0.79911   0.80168   0.81351   0.81777   0.81929
 Alpha virt. eigenvalues --    0.82550   0.84667   0.85436   0.88009   0.88639
 Alpha virt. eigenvalues --    0.89139   0.89650   0.91077   0.91762   0.92810
 Alpha virt. eigenvalues --    0.93846   0.94061   0.94832   0.96369   0.96704
 Alpha virt. eigenvalues --    0.97421   0.98253   0.99151   0.99681   1.00047
 Alpha virt. eigenvalues --    1.01889   1.02931   1.04182   1.04582   1.05174
 Alpha virt. eigenvalues --    1.05811   1.08194   1.08337   1.09527   1.10288
 Alpha virt. eigenvalues --    1.12495   1.13099   1.13642   1.16054   1.17585
 Alpha virt. eigenvalues --    1.17785   1.19321   1.21163   1.22318   1.23261
 Alpha virt. eigenvalues --    1.23683   1.24041   1.24932   1.25252   1.26260
 Alpha virt. eigenvalues --    1.27575   1.28641   1.29120   1.30103   1.31638
 Alpha virt. eigenvalues --    1.33111   1.35130   1.35551   1.37168   1.38595
 Alpha virt. eigenvalues --    1.40227   1.40834   1.42170   1.42956   1.44924
 Alpha virt. eigenvalues --    1.46258   1.47117   1.47550   1.47953   1.49183
 Alpha virt. eigenvalues --    1.50377   1.51203   1.52368   1.53680   1.54157
 Alpha virt. eigenvalues --    1.54629   1.55264   1.56520   1.58007   1.58667
 Alpha virt. eigenvalues --    1.59128   1.59724   1.60191   1.61962   1.62243
 Alpha virt. eigenvalues --    1.62982   1.63286   1.64743   1.64883   1.65539
 Alpha virt. eigenvalues --    1.67366   1.69433   1.70031   1.73053   1.74529
 Alpha virt. eigenvalues --    1.75887   1.77143   1.77298   1.79059   1.79308
 Alpha virt. eigenvalues --    1.79315   1.80121   1.80408   1.81510   1.82149
 Alpha virt. eigenvalues --    1.85067   1.85762   1.86408   1.87606   1.88648
 Alpha virt. eigenvalues --    1.90497   1.92471   1.92541   1.93818   1.94807
 Alpha virt. eigenvalues --    1.96716   1.99344   1.99850   2.00630   2.02533
 Alpha virt. eigenvalues --    2.04582   2.05063   2.08902   2.10267   2.11194
 Alpha virt. eigenvalues --    2.12213   2.16283   2.16994   2.17284   2.19710
 Alpha virt. eigenvalues --    2.21267   2.23600   2.23961   2.29041   2.30236
 Alpha virt. eigenvalues --    2.31222   2.32802   2.34531   2.36466   2.37871
 Alpha virt. eigenvalues --    2.42324   2.44998   2.47707   2.50065   2.54497
 Alpha virt. eigenvalues --    2.54920   2.56286   2.56674   2.57289   2.58836
 Alpha virt. eigenvalues --    2.59622   2.59970   2.60906   2.61327   2.62573
 Alpha virt. eigenvalues --    2.66092   2.66798   2.67720   2.68385   2.71218
 Alpha virt. eigenvalues --    2.72608   2.76350   2.77550   2.78895   2.82879
 Alpha virt. eigenvalues --    2.83632   2.85378   2.88451   2.90936   2.93588
 Alpha virt. eigenvalues --    2.94632   2.94845   2.95184   2.98421   2.99769
 Alpha virt. eigenvalues --    3.00483   3.00760   3.01674   3.02591   3.04443
 Alpha virt. eigenvalues --    3.04811   3.08014   3.09466   3.09769   3.11422
 Alpha virt. eigenvalues --    3.13609   3.16012   3.19000   3.21689   3.24282
 Alpha virt. eigenvalues --    3.25661   3.26204   3.26837   3.28199   3.30546
 Alpha virt. eigenvalues --    3.31208   3.31848   3.34233   3.36305   3.37829
 Alpha virt. eigenvalues --    3.39431   3.39928   3.40873   3.41994   3.42702
 Alpha virt. eigenvalues --    3.45402   3.46709   3.51218   3.59307   3.62164
 Alpha virt. eigenvalues --    3.66359   3.69772   3.70139   3.75407   3.76316
 Alpha virt. eigenvalues --    3.80465   3.81747   3.83799   3.83878   3.84455
 Alpha virt. eigenvalues --    3.86362   3.87077   3.87630   3.87973   3.97019
 Alpha virt. eigenvalues --    4.00660   4.01601   4.01875   4.02922   4.05968
 Alpha virt. eigenvalues --    4.07863   4.08254   4.11830   4.18922   4.21269
 Alpha virt. eigenvalues --    4.21789   4.27318   4.30003   4.63289   4.66932
 Alpha virt. eigenvalues --    4.75743   4.79971   4.92465   4.98623   5.01207
 Alpha virt. eigenvalues --    5.20277   5.21210   5.21532   5.22585   5.38629
 Alpha virt. eigenvalues --    5.40231   5.42094   5.73706   5.89541   6.01065
 Alpha virt. eigenvalues --    6.46456   6.49125   6.51093   6.52084   6.53622
 Alpha virt. eigenvalues --    6.55859   6.61279   6.87328   6.89482   9.96864
 Alpha virt. eigenvalues --   23.45724  23.61219  23.63437  23.64894  23.76063
 Alpha virt. eigenvalues --   23.81760  23.83123  23.92358  23.94311  23.94693
 Alpha virt. eigenvalues --   23.98246  24.09619  24.12014  24.20393  25.93685
 Alpha virt. eigenvalues --   26.23903  26.71210  35.64485  35.73269  50.06117
 Alpha virt. eigenvalues --   50.14779  50.15117  66.88959  66.90337  66.95557
 Alpha virt. eigenvalues --  216.07023
          Condensed to atoms (all electrons):
               1          2          3          4          5          6
     1  C   31.329702  -0.256997  -0.749017  -0.022234  -0.242329  -0.585276
     2  N   -0.256997   7.920989   0.430098  -0.129830  -0.472398  -0.430294
     3  C   -0.749017   0.430098   8.291351   0.643269   0.236769  -1.133162
     4  O   -0.022234  -0.129830   0.643269   8.317645  -0.159998  -0.099024
     5  N   -0.242329  -0.472398   0.236769  -0.159998   7.812341   0.455027
     6  C   -0.585276  -0.430294  -1.133162  -0.099024   0.455027   8.539021
     7  C   -0.033455   0.035251   0.214307   0.019855  -0.055513  -0.925998
     8  C   -0.017560  -0.016703  -0.231209  -0.001341  -0.038476   0.319676
     9  C   -4.642438   0.190859  -0.325190  -0.017581  -0.133196  -0.072721
    10  C   -3.782704   0.192354  -0.650119  -0.011371  -0.011335  -0.065370
    11  C  -13.487755   0.063857  -0.593232  -0.017102  -0.021486  -0.049172
    12  C   -0.175696  -0.041323   0.000178   0.023982   0.065496   0.002525
    13  C    2.886365  -0.236390   0.028617   0.014044  -0.000753  -0.076000
    14  H    0.082290   0.141246  -0.052195  -0.005477   0.031011   0.013041
    15  H   -0.026551   0.039031  -0.016747  -0.007421   0.160375  -0.025281
    16  H    0.001378   0.012227   0.078398   0.002486  -0.055743   0.321714
    17  H    0.012698   0.000150   0.018690  -0.001192  -0.061721   0.421119
    18  H   -0.000156  -0.000083   0.008103  -0.000105   0.008702  -0.069217
    19  H    0.000359  -0.001096   0.001219  -0.000323   0.010150  -0.069899
    20  H   -0.000099  -0.000000  -0.000947  -0.000044   0.000751  -0.042390
    21  H    0.000147   0.000006   0.006045   0.000012  -0.001572   0.085447
    22  H   -0.000090  -0.000082  -0.004143  -0.000022  -0.000031  -0.035673
    23  H    0.168499  -0.029435  -0.000369  -0.000033  -0.001213  -0.000989
    24  Cl   0.009089  -0.000294   0.054364  -0.000157   0.003895   0.006633
    25  H   -0.109780  -0.008880   0.050088  -0.009814  -0.001509   0.003040
    26  C   -3.459369  -0.002218  -0.377936  -0.002806  -0.006123  -0.017047
    27  H    0.020689   0.000500   0.000704   0.000009   0.000001   0.000008
    28  F    0.005063   0.000807   0.000684   0.000003  -0.000005  -0.000010
    29  F    0.043219   0.000712   0.000215  -0.000001   0.000010   0.000001
    30  F    0.156939  -0.000009  -0.002440  -0.000000  -0.000006  -0.000035
    31  O   -0.110487  -0.000370  -0.016577  -0.000977  -0.022163  -0.005667
    32  O    0.020692  -0.018401  -0.037824  -0.000679  -0.023072   0.049151
    33  C    0.087879   0.007143  -0.000242   0.000025   0.017823   0.010465
    34  C   -0.107950  -0.029698  -0.031552  -0.000580  -0.050331   0.019496
    35  C   -0.006612  -0.000034  -0.001175   0.000016   0.007210  -0.007520
    36  H    0.000870   0.000303  -0.000916  -0.000000   0.000440   0.000389
    37  H    0.000401   0.000118   0.000785   0.000001  -0.000084  -0.000871
    38  H   -0.000150  -0.000073   0.000153   0.000000   0.000026  -0.000500
    39  H    0.000046   0.000011   0.000055  -0.000000  -0.000040   0.000029
    40  H    0.000238   0.000041  -0.000379  -0.000000   0.000118   0.000952
               7          8          9         10         11         12
     1  C   -0.033455  -0.017560  -4.642438  -3.782704 -13.487755  -0.175696
     2  N    0.035251  -0.016703   0.190859   0.192354   0.063857  -0.041323
     3  C    0.214307  -0.231209  -0.325190  -0.650119  -0.593232   0.000178
     4  O    0.019855  -0.001341  -0.017581  -0.011371  -0.017102   0.023982
     5  N   -0.055513  -0.038476  -0.133196  -0.011335  -0.021486   0.065496
     6  C   -0.925998   0.319676  -0.072721  -0.065370  -0.049172   0.002525
     7  C    6.542698  -0.428393   0.012122  -0.001286   0.001529  -0.005786
     8  C   -0.428393   6.640296  -0.003363  -0.000831  -0.000187   0.000932
     9  C    0.012122  -0.003363  18.989917   2.447773   1.467547  -7.307930
    10  C   -0.001286  -0.000831   2.447773  26.611139 -10.877730   1.266817
    11  C    0.001529  -0.000187   1.467547 -10.877730  41.119739 -12.057553
    12  C   -0.005786   0.000932  -7.307930   1.266817 -12.057553  25.186768
    13  C   -0.005411  -0.000047  -4.311772  -3.522593  -4.752878   2.443600
    14  H   -0.004055   0.000332  -0.135344  -0.035472  -0.017681   0.038876
    15  H   -0.027483   0.007080   0.008813  -0.002283   0.000848  -0.002428
    16  H   -0.017965  -0.019816  -0.003768  -0.000114   0.000205   0.001923
    17  H   -0.035277  -0.016357   0.004333   0.000338  -0.000038  -0.001905
    18  H    0.457360  -0.077688  -0.000569  -0.000027  -0.000002   0.000093
    19  H    0.457352  -0.067748   0.001142   0.000076   0.000001  -0.000094
    20  H    0.044574   0.342226   0.000012   0.000000  -0.000000  -0.000002
    21  H   -0.148444   0.408701  -0.000001   0.000001  -0.000000   0.000000
    22  H    0.022193   0.360934   0.000007  -0.000001  -0.000000  -0.000003
    23  H    0.000128   0.000003   0.303294  -0.159183  -0.033060   0.004291
    24  Cl  -0.000230   0.000042   0.044575  -0.161994   0.035760  -0.950487
    25  H   -0.000070   0.000035  -0.047426  -0.014060   0.074125   0.034485
    26  C    0.000066  -0.000085  -0.300522  -4.948855   5.650781  -3.503065
    27  H   -0.000000  -0.000000  -0.061733   0.070414   0.054656   0.172733
    28  F   -0.000000  -0.000000  -0.028607   0.290356  -0.206088   0.001438
    29  F   -0.000000   0.000000   0.065635   0.052007  -0.310355   0.172216
    30  F    0.000001  -0.000000   0.034844  -0.232339  -0.068315   0.058739
    31  O   -0.002699   0.000284   0.140563   0.026242  -0.006519   0.000163
    32  O   -0.008220   0.007273  -0.016387  -0.001362  -0.000863   0.000880
    33  C   -0.001253  -0.015402  -0.074137  -0.052576   0.010217  -0.006535
    34  C   -0.019231   0.004039   0.097068   0.050870   0.001357  -0.007771
    35  C    0.004809  -0.003632   0.004987   0.005065   0.001315   0.000103
    36  H   -0.000582  -0.000043   0.000243   0.000035  -0.000105   0.000033
    37  H    0.001157   0.000092  -0.000660  -0.000279  -0.000003   0.000005
    38  H    0.000944   0.000299   0.000064  -0.000018  -0.000003  -0.000002
    39  H   -0.000082   0.000000  -0.000067  -0.000014   0.000000   0.000000
    40  H   -0.000879  -0.000326  -0.000124  -0.000017  -0.000002   0.000001
              13         14         15         16         17         18
     1  C    2.886365   0.082290  -0.026551   0.001378   0.012698  -0.000156
     2  N   -0.236390   0.141246   0.039031   0.012227   0.000150  -0.000083
     3  C    0.028617  -0.052195  -0.016747   0.078398   0.018690   0.008103
     4  O    0.014044  -0.005477  -0.007421   0.002486  -0.001192  -0.000105
     5  N   -0.000753   0.031011   0.160375  -0.055743  -0.061721   0.008702
     6  C   -0.076000   0.013041  -0.025281   0.321714   0.421119  -0.069217
     7  C   -0.005411  -0.004055  -0.027483  -0.017965  -0.035277   0.457360
     8  C   -0.000047   0.000332   0.007080  -0.019816  -0.016357  -0.077688
     9  C   -4.311772  -0.135344   0.008813  -0.003768   0.004333  -0.000569
    10  C   -3.522593  -0.035472  -0.002283  -0.000114   0.000338  -0.000027
    11  C   -4.752878  -0.017681   0.000848   0.000205  -0.000038  -0.000002
    12  C    2.443600   0.038876  -0.002428   0.001923  -0.001905   0.000093
    13  C   13.761030   0.077879  -0.000640   0.012682  -0.015119   0.001057
    14  H    0.077879   0.301117   0.019192  -0.000291   0.000271   0.000048
    15  H   -0.000640   0.019192   0.313776   0.002880   0.000697   0.002056
    16  H    0.012682  -0.000291   0.002880   0.443313  -0.047351   0.005601
    17  H   -0.015119   0.000271   0.000697  -0.047351   0.448300  -0.008861
    18  H    0.001057   0.000048   0.002056   0.005601  -0.008861   0.444560
    19  H   -0.001152   0.000065  -0.000116  -0.008286   0.005712  -0.039540
    20  H    0.000018  -0.000000  -0.000036  -0.000804   0.002812  -0.007979
    21  H    0.000001   0.000000  -0.000052  -0.000058  -0.000043  -0.003823
    22  H   -0.000042   0.000000  -0.000041   0.003201  -0.000634   0.006535
    23  H    0.017215   0.010922   0.000054   0.000001   0.000000  -0.000000
    24  Cl   0.202399   0.000597  -0.000021   0.000002  -0.000004   0.000000
    25  H    0.354551  -0.000202   0.000023  -0.000010   0.000032  -0.000000
    26  C   -0.257713   0.003026  -0.000092   0.000018   0.000006   0.000000
    27  H    0.035157  -0.000003   0.000000  -0.000000  -0.000000   0.000000
    28  F   -0.001612   0.000005   0.000000   0.000000   0.000000  -0.000000
    29  F    0.019377   0.000001   0.000000  -0.000000   0.000000   0.000000
    30  F    0.001614  -0.000061  -0.000001   0.000000   0.000000   0.000000
    31  O   -0.007849   0.047081   0.013470   0.000021  -0.000019   0.000205
    32  O   -0.001623   0.009473   0.049817  -0.000534  -0.000016  -0.001255
    33  C    0.000153  -0.008653  -0.003946   0.000046  -0.000418   0.002802
    34  C   -0.023171   0.023585   0.027198  -0.000283  -0.000112  -0.000570
    35  C   -0.001251  -0.001272  -0.003498   0.000062   0.000011   0.000605
    36  H    0.000006  -0.000439  -0.000139   0.000000  -0.000000   0.000002
    37  H    0.000098   0.000070   0.000049   0.000000   0.000000  -0.000001
    38  H   -0.000020   0.000021  -0.000044   0.000000   0.000000  -0.000030
    39  H    0.000004  -0.000001   0.000028  -0.000000  -0.000000   0.000001
    40  H    0.000008  -0.000023  -0.000234  -0.000000  -0.000000  -0.000011
              19         20         21         22         23         24
     1  C    0.000359  -0.000099   0.000147  -0.000090   0.168499   0.009089
     2  N   -0.001096  -0.000000   0.000006  -0.000082  -0.029435  -0.000294
     3  C    0.001219  -0.000947   0.006045  -0.004143  -0.000369   0.054364
     4  O   -0.000323  -0.000044   0.000012  -0.000022  -0.000033  -0.000157
     5  N    0.010150   0.000751  -0.001572  -0.000031  -0.001213   0.003895
     6  C   -0.069899  -0.042390   0.085447  -0.035673  -0.000989   0.006633
     7  C    0.457352   0.044574  -0.148444   0.022193   0.000128  -0.000230
     8  C   -0.067748   0.342226   0.408701   0.360934   0.000003   0.000042
     9  C    0.001142   0.000012  -0.000001   0.000007   0.303294   0.044575
    10  C    0.000076   0.000000   0.000001  -0.000001  -0.159183  -0.161994
    11  C    0.000001  -0.000000  -0.000000  -0.000000  -0.033060   0.035760
    12  C   -0.000094  -0.000002   0.000000  -0.000003   0.004291  -0.950487
    13  C   -0.001152   0.000018   0.000001  -0.000042   0.017215   0.202399
    14  H    0.000065  -0.000000   0.000000   0.000000   0.010922   0.000597
    15  H   -0.000116  -0.000036  -0.000052  -0.000041   0.000054  -0.000021
    16  H   -0.008286  -0.000804  -0.000058   0.003201   0.000001   0.000002
    17  H    0.005712   0.002812  -0.000043  -0.000634   0.000000  -0.000004
    18  H   -0.039540  -0.007979  -0.003823   0.006535  -0.000000   0.000000
    19  H    0.440262   0.006473  -0.003769  -0.007715  -0.000000   0.000000
    20  H    0.006473   0.447001  -0.024248  -0.036440   0.000000   0.000000
    21  H   -0.003769  -0.024248   0.426189  -0.024299   0.000000  -0.000000
    22  H   -0.007715  -0.036440  -0.024299   0.446874  -0.000000   0.000000
    23  H   -0.000000   0.000000   0.000000  -0.000000   0.344137   0.000519
    24  Cl   0.000000   0.000000  -0.000000   0.000000   0.000519  17.546451
    25  H   -0.000000  -0.000000   0.000000  -0.000000  -0.000027  -0.012816
    26  C   -0.000000   0.000000   0.000000  -0.000000   0.020623  -0.150417
    27  H    0.000000   0.000000   0.000000   0.000000  -0.000187  -0.016539
    28  F    0.000000   0.000000   0.000000  -0.000000  -0.000911  -0.000711
    29  F    0.000000   0.000000   0.000000  -0.000000   0.000075  -0.000166
    30  F    0.000000  -0.000000  -0.000000   0.000000   0.006953  -0.000258
    31  O   -0.000288  -0.000000   0.000000  -0.000001  -0.000073   0.000041
    32  O   -0.000765   0.000040  -0.000015  -0.000016   0.000405   0.000008
    33  C    0.002674   0.000076  -0.000108   0.000125   0.006283  -0.000211
    34  C   -0.001070  -0.000033   0.000166  -0.000028  -0.002399  -0.000051
    35  C    0.000816   0.000014  -0.000066   0.000022  -0.000120   0.000006
    36  H    0.000002   0.000000  -0.000000   0.000000  -0.000089   0.000000
    37  H   -0.000003   0.000000  -0.000000   0.000000   0.000039  -0.000000
    38  H   -0.000008  -0.000000   0.000000  -0.000000   0.000001  -0.000000
    39  H    0.000000  -0.000000  -0.000000  -0.000000  -0.000000  -0.000000
    40  H   -0.000010   0.000000   0.000001  -0.000000  -0.000000  -0.000000
              25         26         27         28         29         30
     1  C   -0.109780  -3.459369   0.020689   0.005063   0.043219   0.156939
     2  N   -0.008880  -0.002218   0.000500   0.000807   0.000712  -0.000009
     3  C    0.050088  -0.377936   0.000704   0.000684   0.000215  -0.002440
     4  O   -0.009814  -0.002806   0.000009   0.000003  -0.000001  -0.000000
     5  N   -0.001509  -0.006123   0.000001  -0.000005   0.000010  -0.000006
     6  C    0.003040  -0.017047   0.000008  -0.000010   0.000001  -0.000035
     7  C   -0.000070   0.000066  -0.000000  -0.000000  -0.000000   0.000001
     8  C    0.000035  -0.000085  -0.000000  -0.000000   0.000000  -0.000000
     9  C   -0.047426  -0.300522  -0.061733  -0.028607   0.065635   0.034844
    10  C   -0.014060  -4.948855   0.070414   0.290356   0.052007  -0.232339
    11  C    0.074125   5.650781   0.054656  -0.206088  -0.310355  -0.068315
    12  C    0.034485  -3.503065   0.172733   0.001438   0.172216   0.058739
    13  C    0.354551  -0.257713   0.035157  -0.001612   0.019377   0.001614
    14  H   -0.000202   0.003026  -0.000003   0.000005   0.000001  -0.000061
    15  H    0.000023  -0.000092   0.000000   0.000000   0.000000  -0.000001
    16  H   -0.000010   0.000018  -0.000000   0.000000  -0.000000   0.000000
    17  H    0.000032   0.000006  -0.000000   0.000000   0.000000   0.000000
    18  H   -0.000000   0.000000   0.000000  -0.000000   0.000000   0.000000
    19  H   -0.000000  -0.000000   0.000000   0.000000   0.000000   0.000000
    20  H   -0.000000   0.000000   0.000000   0.000000   0.000000  -0.000000
    21  H    0.000000   0.000000   0.000000   0.000000   0.000000  -0.000000
    22  H   -0.000000  -0.000000   0.000000  -0.000000  -0.000000   0.000000
    23  H   -0.000027   0.020623  -0.000187  -0.000911   0.000075   0.006953
    24  Cl  -0.012816  -0.150417  -0.016539  -0.000711  -0.000166  -0.000258
    25  H    0.358222   0.002202  -0.000282  -0.000002  -0.000003  -0.000001
    26  C    0.002202  12.059423   0.030316   0.119944   0.118573   0.210352
    27  H   -0.000282   0.030316   0.350615  -0.000783   0.004204   0.000462
    28  F   -0.000002   0.119944  -0.000783   8.982803  -0.048345  -0.042409
    29  F   -0.000003   0.118573   0.004204  -0.048345   9.010806  -0.019055
    30  F   -0.000001   0.210352   0.000462  -0.042409  -0.019055   9.026463
    31  O    0.000045   0.000230  -0.000003   0.000021   0.000008   0.000113
    32  O    0.000010  -0.000070   0.000000   0.000000   0.000000  -0.000004
    33  C   -0.000104  -0.007547  -0.000001   0.000155   0.000013   0.000648
    34  C   -0.000022   0.008161   0.000003  -0.000012  -0.000022  -0.000772
    35  C   -0.000001  -0.000278  -0.000000   0.000001  -0.000001  -0.000010
    36  H    0.000000   0.000117  -0.000000  -0.000000   0.000000   0.000002
    37  H   -0.000000  -0.000028  -0.000000   0.000000   0.000000  -0.000000
    38  H    0.000000   0.000001   0.000000   0.000000   0.000000  -0.000000
    39  H   -0.000000  -0.000003  -0.000000  -0.000000   0.000000  -0.000000
    40  H    0.000000   0.000001   0.000000  -0.000000   0.000000  -0.000000
              31         32         33         34         35         36
     1  C   -0.110487   0.020692   0.087879  -0.107950  -0.006612   0.000870
     2  N   -0.000370  -0.018401   0.007143  -0.029698  -0.000034   0.000303
     3  C   -0.016577  -0.037824  -0.000242  -0.031552  -0.001175  -0.000916
     4  O   -0.000977  -0.000679   0.000025  -0.000580   0.000016  -0.000000
     5  N   -0.022163  -0.023072   0.017823  -0.050331   0.007210   0.000440
     6  C   -0.005667   0.049151   0.010465   0.019496  -0.007520   0.000389
     7  C   -0.002699  -0.008220  -0.001253  -0.019231   0.004809  -0.000582
     8  C    0.000284   0.007273  -0.015402   0.004039  -0.003632  -0.000043
     9  C    0.140563  -0.016387  -0.074137   0.097068   0.004987   0.000243
    10  C    0.026242  -0.001362  -0.052576   0.050870   0.005065   0.000035
    11  C   -0.006519  -0.000863   0.010217   0.001357   0.001315  -0.000105
    12  C    0.000163   0.000880  -0.006535  -0.007771   0.000103   0.000033
    13  C   -0.007849  -0.001623   0.000153  -0.023171  -0.001251   0.000006
    14  H    0.047081   0.009473  -0.008653   0.023585  -0.001272  -0.000439
    15  H    0.013470   0.049817  -0.003946   0.027198  -0.003498  -0.000139
    16  H    0.000021  -0.000534   0.000046  -0.000283   0.000062   0.000000
    17  H   -0.000019  -0.000016  -0.000418  -0.000112   0.000011  -0.000000
    18  H    0.000205  -0.001255   0.002802  -0.000570   0.000605   0.000002
    19  H   -0.000288  -0.000765   0.002674  -0.001070   0.000816   0.000002
    20  H   -0.000000   0.000040   0.000076  -0.000033   0.000014   0.000000
    21  H    0.000000  -0.000015  -0.000108   0.000166  -0.000066  -0.000000
    22  H   -0.000001  -0.000016   0.000125  -0.000028   0.000022   0.000000
    23  H   -0.000073   0.000405   0.006283  -0.002399  -0.000120  -0.000089
    24  Cl   0.000041   0.000008  -0.000211  -0.000051   0.000006   0.000000
    25  H    0.000045   0.000010  -0.000104  -0.000022  -0.000001   0.000000
    26  C    0.000230  -0.000070  -0.007547   0.008161  -0.000278   0.000117
    27  H   -0.000003   0.000000  -0.000001   0.000003  -0.000000  -0.000000
    28  F    0.000021   0.000000   0.000155  -0.000012   0.000001  -0.000000
    29  F    0.000008   0.000000   0.000013  -0.000022  -0.000001   0.000000
    30  F    0.000113  -0.000004   0.000648  -0.000772  -0.000010   0.000002
    31  O    8.601404  -0.149663   0.300275  -0.193484   0.013871  -0.003328
    32  O   -0.149663   8.503780   0.355776  -0.168881   0.005334  -0.001650
    33  C    0.300275   0.355776   5.894001  -0.959269   0.278746  -0.027967
    34  C   -0.193484  -0.168881  -0.959269   7.376673  -0.393972   0.395500
    35  C    0.013871   0.005334   0.278746  -0.393972   6.034898  -0.035130
    36  H   -0.003328  -0.001650  -0.027967   0.395500  -0.035130   0.420377
    37  H   -0.002908   0.004456  -0.027818   0.413083  -0.051995  -0.030747
    38  H    0.000026  -0.001539  -0.026102  -0.008920   0.383821  -0.007219
    39  H   -0.000583   0.002311   0.056565  -0.110182   0.402970  -0.002626
    40  H   -0.000483  -0.005092  -0.014063  -0.023451   0.387426   0.005307
              37         38         39         40
     1  C    0.000401  -0.000150   0.000046   0.000238
     2  N    0.000118  -0.000073   0.000011   0.000041
     3  C    0.000785   0.000153   0.000055  -0.000379
     4  O    0.000001   0.000000  -0.000000  -0.000000
     5  N   -0.000084   0.000026  -0.000040   0.000118
     6  C   -0.000871  -0.000500   0.000029   0.000952
     7  C    0.001157   0.000944  -0.000082  -0.000879
     8  C    0.000092   0.000299   0.000000  -0.000326
     9  C   -0.000660   0.000064  -0.000067  -0.000124
    10  C   -0.000279  -0.000018  -0.000014  -0.000017
    11  C   -0.000003  -0.000003   0.000000  -0.000002
    12  C    0.000005  -0.000002   0.000000   0.000001
    13  C    0.000098  -0.000020   0.000004   0.000008
    14  H    0.000070   0.000021  -0.000001  -0.000023
    15  H    0.000049  -0.000044   0.000028  -0.000234
    16  H    0.000000   0.000000  -0.000000  -0.000000
    17  H    0.000000   0.000000  -0.000000  -0.000000
    18  H   -0.000001  -0.000030   0.000001  -0.000011
    19  H   -0.000003  -0.000008   0.000000  -0.000010
    20  H    0.000000  -0.000000  -0.000000   0.000000
    21  H   -0.000000   0.000000  -0.000000   0.000001
    22  H    0.000000  -0.000000  -0.000000  -0.000000
    23  H    0.000039   0.000001  -0.000000  -0.000000
    24  Cl  -0.000000  -0.000000  -0.000000  -0.000000
    25  H   -0.000000   0.000000  -0.000000   0.000000
    26  C   -0.000028   0.000001  -0.000003   0.000001
    27  H   -0.000000   0.000000  -0.000000   0.000000
    28  F    0.000000   0.000000  -0.000000  -0.000000
[...]
 00066,0.00000044,-0.00000306,-0.00000019,-0.00000013,-0.00000079,-0.00
 000108,-0.00000101,-0.00000488,-0.00000906,-0.00000426,0.00000179,-0.0
 0000462,0.00000088,-0.00000028,0.00000144,-0.00000130,-0.00000582,-0.0
 0001027,-0.00000200,-0.00000017,-0.00000021,-0.00000028,0.00000126,0.0
 0000187,0.00000006,0.00000282,0.00000156,0.00000097,0.00000035,0.00000
 566,0.00000123,0.00207268,-0.00056316,0.00291278,-0.00071081,-0.006373
 73,0.00414091,-0.02819251,-0.00096466,-0.02240495,-0.02699836,-0.04947
 557,-0.02099996,0.01549028,0.00122067,0.01019373,0.02579323,0.05473408
 ,-0.00004012,0.00000607,0.00000210,0.00000984,-0.00008142,0.00000095,0
 .00000134,0.00002684,0.00000638,-0.00000408,-0.00003590,-0.00000658,0.
 00000176,-0.00004052,-0.00000070,0.00001424,0.00000100,0.00000102,-0.0
 0000133,-0.00000102,-0.00000117,0.00000083,0.00000013,0.00000024,0.000
 00853,0.00000449,-0.00000514,0.00000027,0.00000222,0.00000287,0.000004
 16,-0.00000037,0.00000073,-0.00000420,-0.00000018,0.00000006,0.0000107
 2,-0.00000754,0.00000089,-0.00000367,0.00014776,-0.00001187,0.00001399
 ,0.00007764,-0.00000104,-0.00000308,-0.00000216,-0.00000131,-0.0000034
 5,-0.00000243,0.00000110,-0.00000020,0.00000015,-0.00000067,-0.0000004
 3,0.00000065,0.00000131,-0.00000054,-0.00000026,0.00000052,-0.00000082
 ,0.00000012,0.00000012,-0.00000045,-0.00000028,-0.00000080,-0.00000267
 ,-0.00000518,-0.00000231,0.00000073,-0.00000137,-0.00000004,0.00000002
 ,0.00000123,-0.00000021,-0.00000154,-0.00001277,-0.00000031,-0.0000002
 9,0.00000026,-0.00000012,0.00000072,0.00000236,0.00000025,0.00000030,0
 .00000225,-0.00000062,0.00000082,0.00000632,-0.00000035,0.00098947,-0.
 00145472,0.00031722,-0.00021055,-0.00010526,-0.00037343,-0.00062053,0.
 00250075,-0.00172070,-0.12129369,-0.01892602,-0.12251450,0.01382401,0.
 00207877,0.00868072,0.13029936,0.02088369,0.13086572,0.00003924,0.0000
 0347,-0.00000319,0.00002377,0.00011078,0.00002013,-0.00012312,0.000009
 94,-0.00000601,0.00003328,-0.00000549,-0.00000028,0.00002093,-0.000130
 92,-0.00002244,0.00001938,-0.00000549,-0.00000031,-0.00000145,-0.00000
 104,0.00000804,0.00000042,0.00000048,-0.00000275,-0.00000667,-0.000009
 55,0.00000184,0.00000172,0.00000089,0.00000120,-0.00000365,0.00000134,
 -0.00000047,0.00000362,-0.00000171,0.00000082,-0.00000992,0.00000594,-
 0.00000094,-0.00001667,-0.00021513,-0.00002699,0.00000466,0.00016789,0
 .00002849,-0.00000365,-0.00000284,-0.00000145,-0.00000356,-0.00000151,
 0.00000018,0.,0.00000200,-0.00000116,-0.00000031,0.00000263,-0.0000009
 0,0.00000023,0.00000015,0.00000003,-0.00000074,-0.00000014,0.00000030,
 -0.00000023,-0.00000057,-0.00000035,0.00000273,0.00000165,-0.00000197,
 -0.00000157,0.00000240,-0.00000058,0.00000020,-0.00000048,0.00000025,0
 .00000331,0.00000579,-0.00000176,0.00000013,0.00000019,0.00000010,-0.0
 0000094,-0.00000114,0.00000149,-0.00000136,-0.00000101,0.00000014,0.00
 000030,-0.00000415,-0.00000046,-0.00039794,0.00249743,-0.00030217,-0.0
 0062433,-0.00210306,-0.00131899,-0.00357288,-0.00464191,0.00733915,-0.
 05401745,-0.01754517,0.04961883,-0.00530275,-0.00915789,0.02351005,0.0
 0558834,0.01104702,-0.02447122,0.05974612,-0.00003783,0.00002355,-0.00
 000340,0.00007762,0.00005150,0.00003087,-0.00023198,0.00011565,0.00000
 778,0.00005087,-0.00013363,-0.00001998,0.00006535,-0.00040756,-0.00005
 653,0.00008270,-0.00000619,0.00000267,-0.00000896,-0.00000386,0.000002
 83,0.00000395,0.00000230,-0.00000115,0.00001213,-0.00000874,-0.0000027
 6,-0.00000069,0.00000446,-0.00000252,0.00000429,-0.00000268,0.00000058
 ,-0.00000421,0.00000303,-0.00000077,0.00000754,-0.00000997,0.00000045,
 -0.00004761,0.00006435,-0.00002684,0.00005705,0.00066739,0.00008866,-0
 .00001859,-0.00001274,-0.00000540,-0.00001633,-0.00001213,0.00000083,0
 .00000053,0.00000391,-0.00000708,-0.00000405,0.00000209,0.00000502,-0.
 00000155,-0.00000184,0.00000081,-0.00000420,-0.00000003,-0.00000008,-0
 .00000197,-0.00000196,-0.00000155,-0.00000141,0.00000593,0.00000080,0.
 00000079,-0.00000224,0.00000086,-0.00000050,0.00000187,-0.00000035,-0.
 00000314,-0.00000617,0.00000682,0.00000046,0.,0.00000014,0.00000086,0.
 00000107,-0.00000366,0.00000140,0.00000084,-0.00000076,-0.00000028,0.0
 0000339,-0.00000131,-0.00085105,0.00068967,-0.00341704,-0.00437734,-0.
 00579390,-0.00330323,-0.00303989,-0.00963431,0.03368716,-0.01684619,-0
 .08318006,0.09125313,0.00359572,0.00620668,-0.01793455,0.00139080,0.00
 134846,-0.00454462,0.01832049,0.09023976,-0.00000561,-0.00000274,0.000
 00312,-0.00001089,-0.00001024,-0.00000847,0.00004251,-0.00000499,-0.00
 000269,-0.00001004,0.00000229,0.00000088,0.00000163,0.00001941,0.00001
 448,-0.00000470,0.00000662,0.00000135,-0.00000082,0.00000182,-0.000002
 93,-0.00000061,-0.00000040,0.00000119,-0.00000022,0.00000046,-0.000005
 06,-0.00000069,-0.00000397,0.00000074,0.00000056,0.00000060,0.00000105
 ,0.00000056,0.00000192,0.00000025,0.00000036,-0.00000084,-0.00000053,0
 .00000907,0.00007570,0.00002592,-0.00002070,-0.00001187,-0.00003038,0.
 00000152,0.00000186,0.00000030,0.00000120,0.00000113,0.00000048,0.0000
 0043,-0.00000096,0.00000227,0.00000012,-0.00000050,-0.00000160,0.00000
 049,0.00000018,-0.00000026,0.00000047,-0.00000028,-0.00000030,0.000000
 71,0.00000045,0.00000019,-0.00000160,0.00000462,0.00000323,0.00000036,
 -0.00000107,0.00000002,0.00000025,0.00000027,-0.00000043,-0.00000247,0
 .00000850,-0.00000427,-0.00000119,0.00000025,-0.00000001,0.00000018,-0
 .00000080,0.00000168,0.00000167,-0.00000127,0.00000125,-0.00000009,-0.
 00000426,0.00000036,-0.00037507,-0.00078718,0.00090059,-0.00113304,0.0
 0032670,-0.00032292,0.00079876,-0.00249817,0.00266330,0.04883469,0.089
 61551,-0.26812846,0.00219150,0.00348898,-0.01106160,0.00302604,0.00674
 671,-0.01619851,-0.05529655,-0.09510593,0.29064277,0.00001642,-0.00000
 039,0.00000162,-0.00000575,0.00004337,-0.00000466,-0.00000312,-0.00001
 064,-0.00000179,0.00000290,0.00001556,0.00000222,0.00000068,0.00002102
 ,0.00000025,-0.00000559,-0.00000207,0.00000106,0.00000175,0.00000159,-
 0.00000293,-0.00000066,0.00000075,0.00000007,-0.00000281,-0.00000396,-
 0.00000195,0.00000072,0.00000159,-0.00000002,-0.00000258,0.00000082,-0
 .00000053,0.00000181,-0.00000182,-0.00000016,-0.00000387,0.00000370,-0
 .00000079,0.00000314,-0.00007289,0.00000604,-0.00000942,-0.00003654,-0
 .00000636,0.00000101,0.00000133,0.00000042,0.00000149,0.00000132,-0.00
 000006,0.00000149,0.00000076,0.00000174,0.00000014,-0.00000007,0.00000
 006,0.00000021,-0.00000040,-0.00000039,-0.00000009,0.00000030,-0.00000
 032,0.00000021,-0.00000014,0.00000084,0.00000093,0.00000047,0.00000181
 ,-0.00000047,0.00000115,-0.00000025,0.,-0.00000033,0.00000065,0.000001
 67,-0.00000092,0.00000329,-0.00000012,0.00000015,0.00000017,-0.0000002
 7,-0.00000015,-0.00000110,-0.00000124,0.00000013,-0.00000101,0.0000000
 4,0.00000027,-0.00000065,-0.00002838,0.00043572,-0.00016109,0.00058791
 ,0.00032571,-0.00048657,0.00003472,-0.00148906,-0.00016926,-0.00520644
 ,-0.00935543,0.02486498,-0.05683177,-0.01667749,0.04448329,0.00095282,
 -0.00086979,-0.00059227,-0.00327082,0.00328844,0.00213653,0.06004830,0
 .00000109,-0.00000114,-0.00000390,-0.00000265,-0.00000236,-0.00000245,
 0.00000992,-0.00000880,0.00000150,-0.00000197,0.00000566,0.00000147,-0
 .00000216,0.00001896,0.00000196,-0.00000289,0.00000120,-0.00000085,0.0
 0000047,0.00000607,0.00000216,0.00000119,0.00000089,-0.00000137,-0.000
 00027,0.00000107,0.00000292,0.00000056,-0.00000026,-0.00000114,-0.0000
 0037,0.00000033,0.00000104,-0.00000008,-0.00000082,-0.00000122,0.00000
 027,0.00000098,0.00000186,-0.00000010,-0.00000022,0.00000762,-0.000004
 62,-0.00002449,-0.00001501,-0.00000037,0.00000123,0.00000059,0.0000002
 8,0.00000074,-0.00000012,-0.00000150,-0.00000096,0.00000211,-0.0000007
 7,-0.00000283,-0.00000107,0.00000016,-0.00000043,-0.00000048,-0.000000
 46,-0.00000008,-0.00000010,0.00000035,-0.00000034,0.00000075,-0.000000
 39,-0.00000110,-0.00000064,-0.00000011,0.00000001,0.00000036,-0.000000
 02,-0.00000065,-0.00000030,0.00000044,0.00000025,-0.00000008,0.0000004
 0,-0.00000028,-0.00000012,-0.00000024,-0.00000013,-0.00000021,-0.00000
 004,-0.00000019,0.00000023,-0.00000057,0.00000016,0.00000006,0.0001630
 9,0.00006417,0.00024796,0.00045033,-0.00039356,-0.00063941,-0.00099100
 ,0.00020986,-0.00034436,0.00272967,0.00609835,-0.01725650,-0.01717014,
 -0.07849687,0.08700511,-0.00073561,0.00064547,0.00058269,0.00263055,-0
 .00141325,-0.00166904,0.01614992,0.08219866,-0.00001054,-0.00000389,0.
 00000144,-0.00000608,-0.00004782,0.00000863,0.00002845,0.00000076,-0.0
 0000062,-0.00000782,-0.00000581,-0.00000032,-0.00000270,0.00000890,0.0
 0000769,0.00000169,0.00000256,-0.00000019,-0.00000241,-0.00000078,-0.0
 0000707,0.00000138,0.00000037,0.00000174,0.00000276,0.00000297,-0.0000
 0006,-0.00000123,-0.00000343,0.00000123,0.00000067,0.00000183,0.000000
 25,-0.00000001,-0.00000121,0.00000067,0.00000282,-0.00000173,-0.000000
 18,0.00000128,0.00007184,-0.00001153,-0.00000865,-0.00001034,-0.000007
 34,-0.00000046,0.00000170,0.00000036,-0.00000049,-0.00000040,0.0000003
 5,-0.00000086,-0.00000143,0.00000286,-0.00000048,-0.00000018,0.0000006
 0,-0.00000029,-0.00000070,0.00000032,-0.00000099,0.00000041,-0.0000005
 1,0.00000048,0.00000050,0.00000022,-0.00000078,0.00000009,-0.00000229,
 0.00000027,-0.00000055,-0.00000038,0.00000058,0.00000037,-0.00000089,-
 0.00000146,0.00000548,-0.00000482,-0.00000060,0.00000034,0.,0.00000021
 ,-0.00000023,0.00000239,0.00000096,-0.00000068,0.00000103,0.00000070,-
 0.00000312,0.00000044,-0.00020711,-0.00068525,0.00006249,-0.00104749,0
 .00031996,0.00097371,0.00115409,0.00171043,-0.00032789,0.00214708,0.00
 365077,-0.01187470,0.04543749,0.08462828,-0.28025759,0.00009671,-0.000
 13807,0.00079885,0.00227227,-0.00169305,0.00039174,-0.05225158,-0.0930
 3948,0.30140125,0.00007075,-0.00000310,-0.00000054,0.00000477,0.000208
 52,-0.00002726,-0.00007045,-0.00003045,-0.00001489,0.00002425,0.000051
 25,0.00001093,0.00000898,0.00002699,0.00000852,-0.00001629,-0.00000384
 ,-0.00000068,0.00000184,0.00000456,0.00000084,0.00000025,-0.00000147,-
 0.00000012,-0.00001458,-0.00001447,0.00000110,0.00000311,-0.00000187,0
 .00000022,-0.00000768,0.00000569,-0.00000081,0.00000558,-0.00000588,0.
 00000035,-0.00001740,0.00001278,-0.00000111,-0.00000168,-0.00032799,0.
 00005447,-0.00001206,-0.00006254,-0.00001098,0.00000367,0.00000132,0.0
 0000028,0.00000402,0.00000185,0.00000027,0.00000025,0.00000041,-0.0000
 0168,0.00000022,-0.00000023,0.00000119,0.00000011,-0.00000003,0.000000
 07,0.00000159,0.00000018,0.00000015,-0.00000011,-0.00000015,-0.0000001
 6,0.00000400,0.00000479,0.00000062,-0.00000208,0.00000590,-0.00000152,
 0.00000042,-0.00000071,0.00000061,0.00000733,0.00000463,-0.00000197,-0
 .00000044,0.00000064,0.,-0.00000215,-0.00000079,0.00000257,-0.00000361
 ,-0.00000066,-0.00000076,-0.00000102,-0.00000240,0.00000036,-0.0006856
 6,0.00323550,0.00095089,0.00128731,-0.00012340,-0.00050123,-0.00465984
 ,-0.00156551,0.00216777,0.00649168,0.02776654,0.00109724,-0.06196969,-
 0.06151150,-0.00432278,0.00104111,-0.00068149,-0.00078391,0.00097957,-
 0.00088269,-0.00031191,-0.00253273,-0.00448403,-0.00088442,0.06526328,
 -0.00007679,0.00000555,0.00000493,0.00001178,-0.00018638,0.00002269,0.
 00002438,0.00006210,0.00001545,-0.00001463,-0.00008030,-0.00001311,-0.
 00000778,-0.00009663,-0.00002508,0.00002950,0.00000240,0.00000093,-0.0
 0000256,-0.00000289,0.00000135,0.00000181,0.00000193,0.00000005,0.0000
 1755,0.00001405,-0.00000297,-0.00000408,0.00000480,-0.00000065,0.00000
 751,-0.00000527,0.00000008,-0.00000511,0.00000350,0.00000019,0.0000196
 1,-0.00001488,0.00000007,-0.00001229,0.00034388,-0.00004576,0.00004829
 ,0.00019296,0.00004455,-0.00000681,-0.00000488,-0.00000266,-0.00000680
 ,-0.00000450,0.00000082,0.00000072,0.00000090,-0.00000292,-0.00000034,
 0.00000088,0.00000236,-0.00000089,-0.00000079,0.00000076,-0.00000190,0
 .00000043,0.00000017,-0.00000114,-0.00000110,-0.00000134,-0.00000406,-
 0.00000365,0.00000037,0.00000227,-0.00000633,0.00000128,0.,0.00000185,
 -0.00000084,-0.00001094,-0.00000548,0.00000227,-0.00000086,0.00000025,
 0.00000021,0.00000320,0.00000133,-0.00000217,0.00000472,0.00000082,0.0
 0000052,0.00000199,0.00000119,-0.00000097,0.00101422,-0.00269076,-0.00
 097643,0.00004140,-0.00111848,-0.00025163,0.00207168,0.00297004,-0.000
 47757,-0.00482421,-0.01475003,-0.00005283,-0.05981645,-0.30416935,-0.0
 1591514,0.00008003,0.00046604,0.00048487,-0.00015927,0.00064838,-0.000
 28302,-0.00209021,-0.00914625,-0.00052557,0.06446151,0.32877746,-0.000
 04250,0.00000299,0.00000158,-0.00000204,-0.00012306,0.00002024,0.00003
 475,0.00002340,0.00000937,-0.00001310,-0.00003526,-0.00000720,-0.00000
 505,-0.00002795,-0.00000387,0.00001078,0.00000163,-0.00000085,-0.00000
 126,-0.00000070,-0.00000121,-0.00000010,0.00000070,0.00000077,0.000008
 50,0.00000774,-0.00000370,-0.00000167,0.00000141,0.00000093,0.00000442
 ,-0.00000321,0.00000036,-0.00000340,0.00000289,-0.00000054,0.00001070,
 -0.00000780,0.00000083,0.00000041,0.00020425,-0.00003099,0.00001300,0.
 00005576,0.00000187,-0.00000290,-0.00000147,-0.00000053,-0.00000211,-0
 .00000153,0.00000038,-0.00000038,0.00000106,-0.00000083,-0.00000008,0.
 00000047,0.00000173,-0.00000051,-0.00000037,0.00000025,-0.00000059,0.0
 0000006,-0.00000010,-0.00000013,0.,-0.00000021,-0.00000167,-0.00000237
 ,0.00000080,0.00000122,-0.00000350,0.00000087,-0.00000017,0.00000058,-
 0.00000023,-0.00000488,-0.00000218,0.00000243,0.00000033,-0.00000034,0
 .00000007,0.00000146,0.00000039,-0.00000219,0.00000216,0.00000029,0.00
 000016,0.00000097,0.00000100,-0.00000052,0.00049598,-0.00190028,-0.000
 48991,-0.00053100,-0.00010573,0.00042611,0.00287232,0.00110516,-0.0002
 1795,-0.00416423,-0.01460480,-0.00182468,-0.00406956,-0.01515211,-0.04
 923745,-0.00010556,0.00057271,0.00037486,-0.00073896,0.00029174,0.0002
 6487,0.00686352,0.02931451,0.00395611,0.00216221,0.01832267,0.04806283
 ,0.00001718,-0.00000047,-0.00000220,-0.00000139,0.00005615,-0.00000126
 ,-0.00002146,-0.00000988,-0.00000582,0.00000657,0.00001570,0.00000357,
 0.00000387,0.00001602,0.00000837,-0.00000715,-0.00000042,-0.00000043,0
 .00000099,0.00000476,-0.00000382,-0.00000092,0.00000051,0.00000103,-0.
 00000317,-0.00000317,0.00000465,0.00000159,-0.00000279,-0.00000109,-0.
 00000146,0.00000306,0.00000068,0.00000118,-0.00000279,-0.00000070,-0.0
 0000459,0.00000364,0.00000067,0.00000608,-0.00008306,0.00000919,-0.000
 01099,-0.00003001,-0.00001662,0.00000203,0.00000087,-0.00000005,0.0000
 0204,0.00000045,0.00000041,0.00000055,0.00000331,0.00000024,-0.0000003
 3,0.00000300,0.00000084,0.00000001,-0.00000040,-0.00000010,0.00000233,
 -0.00000056,-0.00000006,0.00000004,0.00000013,0.00000022,0.00000038,0.
 00000082,-0.00000131,-0.00000055,0.00000236,-0.00000053,0.00000006,0.0
 0000005,-0.00000033,0.00000359,-0.00000294,-0.00000500,-0.00000066,0.0
 0000040,-0.00000012,-0.00000107,0.00000072,0.00000349,-0.00000143,0.00
 000060,0.00000028,-0.00000093,0.00000207,0.00000082,0.00022673,0.00072
 678,0.00020018,0.00150053,-0.00000395,-0.00019232,-0.00076293,-0.00226
 485,0.00002820,-0.02115980,-0.00200368,-0.01364040,-0.23561290,-0.0212
 5157,-0.12310184,-0.00275252,0.00297451,0.00285791,0.00089206,-0.00058
 051,0.00012657,0.00624777,0.00126164,0.00328656,-0.00520663,-0.0007950
 3,-0.00279089,0.25663528,0.00000565,-0.00000184,0.00000414,-0.00000494
 ,0.00000655,-0.00000289,0.00001646,-0.00000895,-0.00000073,-0.00000274
 ,0.00000994,0.00000051,-0.00000637,0.00002573,0.00001060,-0.00000219,-
 0.00000081,0.00000151,-0.00000085,-0.00000745,0.00000453,-0.00000147,0
 .00000291,-0.00000163,-0.00000184,-0.00000044,-0.00000158,0.00000018,-
 0.00000007,0.00000241,-0.00000114,0.00000036,-0.00000215,0.00000107,0.
 00000013,0.00000249,-0.00000177,-0.00000025,-0.00000399,-0.00000291,-0
 .00000616,0.00000222,-0.00000814,-0.00003709,-0.00002673,0.00000045,0.
 00000108,0.00000037,0.00000007,0.00000150,-0.00000119,0.00000113,0.000
 00281,0.00000329,0.00000232,0.00000485,-0.00000440,0.00000087,0.000001
 23,-0.00000024,0.00000010,-0.00000014,-0.00000006,0.00000075,0.0000008
 5,0.00000049,0.00000092,0.00000037,-0.00000025,-0.00000012,0.00000007,
 -0.00000006,-0.00000003,-0.00000025,-0.00000026,0.00000037,0.00000256,
 0.00000011,0.00000010,-0.00000004,0.00000016,-0.00000027,-0.00000033,-
 0.00000027,-0.00000005,-0.00000036,0.00000008,0.00000028,-0.00000110,0
 .00000006,-0.00011529,0.00003629,-0.00026807,0.00024407,-0.00017498,0.
 00002221,0.00005253,0.00032748,0.00091449,0.01467522,0.00111045,0.0102
 5611,-0.02284373,-0.04992282,-0.01436279,0.00262495,-0.00134342,-0.001
 58827,-0.00082256,0.00054699,0.00008354,0.01031826,0.00024096,0.005756
 18,-0.02608788,-0.00121275,-0.01793877,0.02195851,0.05039616,-0.000001
 65,0.00000164,0.00000082,0.00000829,0.00000764,-0.00000168,-0.00001604
 ,0.00000623,-0.00000010,0.00000361,-0.00000469,-0.00000057,0.00000253,
 -0.00001350,-0.00000194,0.00000007,-0.00000061,-0.00000064,0.00000135,
 0.00000138,0.00000523,-0.00000084,0.00000128,-0.00000104,-0.00000028,0
 .00000025,0.00000150,0.00000013,-0.00000188,-0.00000071,0.00000116,0.0
 0000013,0.00000041,-0.00000077,0.00000151,0.00000002,0.,-0.00000081,-0
 .00000014,-0.00000398,-0.00000454,0.00000034,0.00000611,0.00002914,-0.
 00000455,0.00000007,-0.00000129,-0.00000076,0.00000004,-0.00000070,0.0
 0000010,-0.00000098,0.00000105,-0.00000449,0.00000055,0.00000363,0.000
 00103,0.00000014,-0.00000028,0.00000003,0.00000194,-0.00000068,0.00000
 039,-0.00000035,-0.00000078,-0.00000043,-0.00000055,0.00000055,0.00000
 003,0.00000005,-0.00000017,-0.00000023,-0.00000013,0.00000020,-0.00000
 016,0.00000037,0.00000055,-0.00000067,0.00000016,-0.00000009,0.0000001
 1,0.00000006,0.00000026,0.00000008,0.00000005,0.,0.00000019,-0.0000003
 1,0.00000008,-0.00000011,0.00003169,0.00020225,-0.00021420,0.00044852,
 -0.00048030,-0.00007118,-0.00077609,0.00007101,0.00065162,0.01380290,0
 .00202591,0.00900353,-0.12441421,-0.01318198,-0.12959703,0.00255750,-0
 .00202959,-0.00021553,-0.00060340,0.00075136,0.00084639,-0.02468481,-0
 .00419706,-0.01511801,0.00040607,-0.00032593,-0.00130447,0.13323102,0.
 01713884,0.13602683\\0.00000357,-0.00000079,-0.00000406,-0.00000343,-0
 .00000041,0.00000326,-0.00000592,-0.00000005,-0.00000197,-0.00000066,-
 0.00000105,0.00000268,0.00000140,-0.00000815,0.00000215,-0.00000129,-0
 .00000007,0.00000096,-0.00000028,0.00000063,0.00000179,-0.00000026,0.0
 0000074,0.00000366,-0.00000058,-0.00000029,-0.00000206,0.00000688,-0.0
 0000345,0.00000118,-0.00000231,-0.00000347,-0.00000058,-0.00000288,-0.
 00000135,0.00000014,0.00000217,0.00000032,0.00000198,0.00000458,0.0000
 0220,0.00000018,0.00000226,0.00000651,0.00000191,-0.00000162,-0.000000
 99,0.00000318,-0.00000059,0.00000115,0.00000361,0.00000055,0.00000154,
 0.00000199,-0.00000020,-0.00000042,0.00000210,0.00000023,0.00000136,0.
 00000396,-0.00000008,0.00000112,0.00000340,-0.00000083,0.00000038,0.00
 000374,-0.00000159,-0.00000016,-0.00000191,-0.00000076,0.00000006,0.00
 000112,-0.00000080,-0.00000045,0.00000231,-0.00000241,0.00000345,-0.00
 000887,-0.00000265,-0.00000086,-0.00000084,-0.00000179,-0.00000428,0.0
 0000093,-0.00000006,-0.00000329,-0.00000257,0.00000028,0.00000419,-0.0
 0000243,0.00000303,0.00000093,-0.00000316,-0.00000145,-0.00000020,-0.0
 0000091,-0.00000423,0.00000688,0.00000270,0.00000533,-0.00000270,-0.00
 000609,0.00000062,-0.00000339,-0.00000136,0.00000091,0.00000091,-0.000
 00300,0.00000102,-0.00000097,-0.00000243,0.00000240,0.00000322,-0.0000
 0118,0.00000157,-0.00000050,-0.00000303,-0.00000016,0.00000170,-0.0000
 0248\\\@


 HE THAT WALD REACHE THE SWEITE ROSE
 SULD NOW AND THEN BE SCRATCHED WT THE SCHARPE BREERES.
 -- PROVERBS AND REASONS OF THE YEAR 1585
           AS REPRINTED IN PAISLEY MAGAZINE 1828.
 Job cpu time:       0 days 11 hours 48 minutes 32.6 seconds.
 File lengths (MBytes):  RWF=   1413 Int=      0 D2E=      0 Chk=     35 Scr=      1
 Normal termination of Gaussian 09 at Thu Nov 14 23:36:43 2019.
pbs_rusage has been removed.
Please contact help@nci.org.au if you require this functionality.
