 Entering Gaussian System, Link 0=/apps/gaussian/g09e01/g09/g09
 Initial command:
 /apps/gaussian/g09e01/g09/l1.exe "/jobfs/local/3588446.r-man2/Gau-41959.inp" -scrdir="/jobfs/local/3588446.r-man2/"
 Entering Link 1 = /apps/gaussian/g09e01/g09/l1.exe PID=     41960.
  
 Copyright (c) 1988,1990,1992,1993,1995,1998,2003,2009,2015,
            Gaussian, Inc.  All Rights Reserved.
  
 This is part of the Gaussian(R) 09 program.  It is based on
 the Gaussian(R) 03 system (copyright 2003, Gaussian, Inc.),
 the Gaussian(R) 98 system (copyright 1998, Gaussian, Inc.),
 the Gaussian(R) 94 system (copyright 1995, Gaussian, Inc.),
 the Gaussian 92(TM) system (copyright 1992, Gaussian, Inc.),
 the Gaussian 90(TM) system (copyright 1990, Gaussian, Inc.),
 the Gaussian 88(TM) system (copyright 1988, Gaussian, Inc.),
 the Gaussian 86(TM) system (copyright 1986, Carnegie Mellon
 University), and the Gaussian 82(TM) system (copyright 1983,
 Carnegie Mellon University). Gaussian is a federally registered
 trademark of Gaussian, Inc.
  
 This software contains proprietary and confidential information,
 including trade secrets, belonging to Gaussian, Inc.
  
 This software is provided under written license and may be
 used, copied, transmitted, or stored only in accord with that
 written license.
  
 The following legend is applicable only to US Government
 contracts under FAR:
  
                    RESTRICTED RIGHTS LEGEND
  
 Use, reproduction and disclosure by the US Government is
 subject to restrictions as set forth in subparagraphs (a)
 and (c) of the Commercial Computer Software - Restricted
 Rights clause in FAR 52.227-19.
  
 Gaussian, Inc.
 340 Quinnipiac St., Bldg. 40, Wallingford CT 06492
  
  
 ---------------------------------------------------------------
 Warning -- This program may not be used in any manner that
 competes with the business of Gaussian, Inc. or will provide
 assistance to any competitor of Gaussian, Inc.  The licensee
 of this program is prohibited from giving any competitor of
 Gaussian, Inc. access to this program.  By using this program,
 the user acknowledges that Gaussian, Inc. is engaged in the
 business of creating and licensing software in the field of
 computational chemistry and represents and warrants to the
 licensee that it is not a competitor of Gaussian, Inc. and that
 it will not use this program in any manner prohibited above.
 ---------------------------------------------------------------
  

 Cite this work as:
 Gaussian 09, Revision E.01,
 M. J. Frisch, G. W. Trucks, H. B. Schlegel, G. E. Scuseria, 
 M. A. Robb, J. R. Cheeseman, G. Scalmani, V. Barone, B. Mennucci, 
 G. A. Petersson, H. Nakatsuji, M. Caricato, X. Li, H. P. Hratchian, 
 A. F. Izmaylov, J. Bloino, G. Zheng, J. L. Sonnenberg, M. Hada, 
 M. Ehara, K. Toyota, R. Fukuda, J. Hasegawa, M. Ishida, T. Nakajima, 
 Y. Honda, O. Kitao, H. Nakai, T. Vreven, J. A. Montgomery, Jr., 
 J. E. Peralta, F. Ogliaro, M. Bearpark, J. J. Heyd, E. Brothers, 
 K. N. Kudin, V. N. Staroverov, T. Keith, R. Kobayashi, J. Normand, 
 K. Raghavachari, A. Rendell, J. C. Burant, S. S. Iyengar, J. Tomasi, 
 M. Cossi, N. Rega, J. M. Millam, M. Klene, J. E. Knox, J. B. Cross, 
 V. Bakken, C. Adamo, J. Jaramillo, R. Gomperts, R. E. Stratmann, 
 O. Yazyev, A. J. Austin, R. Cammi, C. Pomelli, J. W. Ochterski, 
 R. L. Martin, K. Morokuma, V. G. Zakrzewski, G. A. Voth, 
 P. Salvador, J. J. Dannenberg, S. Dapprich, A. D. Daniels, 
 O. Farkas, J. B. Foresman, J. V. Ortiz, J. Cioslowski, 
 and D. J. Fox, Gaussian, Inc., Wallingford CT, 2013.
 
 ******************************************
 Gaussian 09:  ES64L-G09RevE.01 30-Nov-2015
                14-Nov-2019 
 ******************************************
 %chk=CP19CA.M062X_6-311pGd_opt_water_GD3.chk
 %mem=196608000
 %nproc=4
 Will use up to    4 processors via shared memory.
 ----------------------------------------------------------------------
 # M062X/6-311+G* SCF=Tight INT(grid=ultrafine) OPT IOP(2/17=4) Empiric
 alDispersion=GD3 SCRF=(SMD,Solvent=h2o) maxdisk=2147483648
 ----------------------------------------------------------------------
 1/14=-1,18=20,19=15,26=4,38=1/1,3;
 2/9=110,12=2,17=4,18=5,40=1/2;
 3/5=4,6=6,7=11,11=2,16=1,25=1,30=1,70=32201,71=1,72=1,74=-55,75=-5,124=31/1,2,3;
 4//1;
 5/5=2,32=2,38=5,53=1/2;
 6/7=2,8=2,9=2,10=2,28=1/1;
 7//1,2,3,16;
 1/14=-1,18=20,19=15,26=4/3(2);
 2/9=110,17=4/2;
 99//99;
 2/9=110,17=4/2;
 3/5=4,6=6,7=11,11=2,16=1,25=1,30=1,70=32205,71=1,72=1,74=-55,75=-5,124=31/1,2,3;
 4/5=5,16=3,69=1/1;
 5/5=2,32=2,38=5,53=1/2;
 7//1,2,3,16;
 1/14=-1,18=20,19=15,26=4/3(-5);
 2/9=110,17=4/2;
 6/7=2,8=2,9=2,10=2,19=2,28=1/1;
 99/9=1/99;
 -----------------------------------
 CP19CA.M062X_6-311pGd_opt_water_GD3
 -----------------------------------
 Symbolic Z-matrix:
 Charge =  0 Multiplicity = 1
 C                    -6.29649   1.28333  -0.01298 
 N                    -5.00178   0.76183  -0.01085 
 C                    -3.82237   1.44915  -0.00581 
 O                    -3.70012   2.65725  -0.01633 
 O                    -2.79813   0.59011   0.01367 
 C                    -1.47877   1.17689   0.02745 
 C                    -0.47548   0.04651   0.04688 
 C                     0.94605   0.59808   0.06063 
 C                    -6.57757   2.65045  -0.09711 
 C                    -7.8994    3.06692  -0.0945 
 C                    -8.95817   2.16505  -0.01251 
 C                    -8.66081   0.80562   0.06673 
 C                    -7.35101   0.36633   0.06699 
 H                    -4.92156  -0.24789   0.02281 
 H                    -1.38864   1.80865   0.91344 
 H                    -1.36505   1.79825  -0.86318 
 H                    -0.62926  -0.5846   -0.83262 
 H                    -0.65055  -0.57345   0.93032 
 H                     1.13997   1.20867  -0.82483 
 H                     1.6775   -0.21148   0.07523 
 H                     1.11835   1.22088   0.94204 
 H                    -5.78811   3.38208  -0.16537 
 Cl                   -8.19603   4.78294  -0.20216 
 C                    -10.38548   2.6217   -0.00879 
 H                    -9.46357   0.0821    0.13 
 H                    -7.13537  -0.69409   0.13037 
 F                    -11.23883   1.59276   0.08092 
 F                    -10.66355   3.43952   1.02308 
 F                    -10.7157   3.29574  -1.12563 
 

 GradGradGradGradGradGradGradGradGradGradGradGradGradGradGradGradGradGrad
 Berny optimization.
 Initialization pass.
                           ----------------------------
                           !    Initial Parameters    !
                           ! (Angstroms and Degrees)  !
 --------------------------                            --------------------------
 ! Name  Definition              Value          Derivative Info.                !
 --------------------------------------------------------------------------------
 ! R1    R(1,2)                  1.3958         estimate D2E/DX2                !
 ! R2    R(1,9)                  1.3983         estimate D2E/DX2                !
 ! R3    R(1,13)                 1.3997         estimate D2E/DX2                !
 ! R4    R(2,3)                  1.3651         estimate D2E/DX2                !
 ! R5    R(2,14)                 1.0135         estimate D2E/DX2                !
 ! R6    R(3,4)                  1.2143         estimate D2E/DX2                !
 ! R7    R(3,5)                  1.3369         estimate D2E/DX2                !
 ! R8    R(5,6)                  1.444          estimate D2E/DX2                !
 ! R9    R(6,7)                  1.5115         estimate D2E/DX2                !
 ! R10   R(6,15)                 1.0919         estimate D2E/DX2                !
 ! R11   R(6,16)                 1.0919         estimate D2E/DX2                !
 ! R12   R(7,8)                  1.5249         estimate D2E/DX2                !
 ! R13   R(7,17)                 1.0934         estimate D2E/DX2                !
 ! R14   R(7,18)                 1.0934         estimate D2E/DX2                !
 ! R15   R(8,19)                 1.0929         estimate D2E/DX2                !
 ! R16   R(8,20)                 1.0912         estimate D2E/DX2                !
 ! R17   R(8,21)                 1.0929         estimate D2E/DX2                !
 ! R18   R(9,10)                 1.3859         estimate D2E/DX2                !
 ! R19   R(9,22)                 1.0785         estimate D2E/DX2                !
 ! R20   R(10,11)                1.3932         estimate D2E/DX2                !
 ! R21   R(10,23)                1.7448         estimate D2E/DX2                !
 ! R22   R(11,12)                1.3938         estimate D2E/DX2                !
 ! R23   R(11,24)                1.4986         estimate D2E/DX2                !
 ! R24   R(12,13)                1.3815         estimate D2E/DX2                !
 ! R25   R(12,25)                1.0825         estimate D2E/DX2                !
 ! R26   R(13,26)                1.084          estimate D2E/DX2                !
 ! R27   R(24,27)                1.3398         estimate D2E/DX2                !
 ! R28   R(24,28)                1.3457         estimate D2E/DX2                !
 ! R29   R(24,29)                1.3456         estimate D2E/DX2                !
 ! A1    A(2,1,9)              123.4946         estimate D2E/DX2                !
 ! A2    A(2,1,13)             116.9973         estimate D2E/DX2                !
 ! A3    A(9,1,13)             119.5072         estimate D2E/DX2                !
 ! A4    A(1,2,3)              127.8287         estimate D2E/DX2                !
 ! A5    A(1,2,14)             116.4688         estimate D2E/DX2                !
 ! A6    A(3,2,14)             115.6669         estimate D2E/DX2                !
 ! A7    A(2,3,4)              126.0062         estimate D2E/DX2                !
 ! A8    A(2,3,5)              109.7819         estimate D2E/DX2                !
 ! A9    A(4,3,5)              124.2119         estimate D2E/DX2                !
 ! A10   A(3,5,6)              116.0406         estimate D2E/DX2                !
 ! A11   A(5,6,7)              107.6192         estimate D2E/DX2                !
 ! A12   A(5,6,15)             108.5584         estimate D2E/DX2                !
 ! A13   A(5,6,16)             108.5797         estimate D2E/DX2                !
 ! A14   A(7,6,15)             111.5595         estimate D2E/DX2                !
 ! A15   A(7,6,16)             111.5261         estimate D2E/DX2                !
 ! A16   A(15,6,16)            108.9052         estimate D2E/DX2                !
 ! A17   A(6,7,8)              110.3891         estimate D2E/DX2                !
 ! A18   A(6,7,17)             109.1454         estimate D2E/DX2                !
 ! A19   A(6,7,18)             109.1563         estimate D2E/DX2                !
 ! A20   A(8,7,17)             110.3133         estimate D2E/DX2                !
 ! A21   A(8,7,18)             110.3089         estimate D2E/DX2                !
 ! A22   A(17,7,18)            107.4658         estimate D2E/DX2                !
 ! A23   A(7,8,19)             111.112          estimate D2E/DX2                !
 ! A24   A(7,8,20)             110.8965         estimate D2E/DX2                !
 ! A25   A(7,8,21)             111.1231         estimate D2E/DX2                !
 ! A26   A(19,8,20)            107.8424         estimate D2E/DX2                !
 ! A27   A(19,8,21)            107.8813         estimate D2E/DX2                !
 ! A28   A(20,8,21)            107.8375         estimate D2E/DX2                !
 ! A29   A(1,9,10)             119.0406         estimate D2E/DX2                !
 ! A30   A(1,9,22)             121.3275         estimate D2E/DX2                !
 ! A31   A(10,9,22)            119.6318         estimate D2E/DX2                !
 ! A32   A(9,10,11)            122.0326         estimate D2E/DX2                !
 ! A33   A(9,10,23)            117.2313         estimate D2E/DX2                !
 ! A34   A(11,10,23)           120.736          estimate D2E/DX2                !
 ! A35   A(10,11,12)           118.2011         estimate D2E/DX2                !
 ! A36   A(10,11,24)           121.782          estimate D2E/DX2                !
 ! A37   A(12,11,24)           120.0169         estimate D2E/DX2                !
 ! A38   A(11,12,13)           120.8247         estimate D2E/DX2                !
 ! A39   A(11,12,25)           119.8002         estimate D2E/DX2                !
 ! A40   A(13,12,25)           119.375          estimate D2E/DX2                !
 ! A41   A(1,13,12)            120.3933         estimate D2E/DX2                !
 ! A42   A(1,13,26)            119.6276         estimate D2E/DX2                !
 ! A43   A(12,13,26)           119.9791         estimate D2E/DX2                !
 ! A44   A(11,24,27)           111.8874         estimate D2E/DX2                !
 ! A45   A(11,24,28)           112.5757         estimate D2E/DX2                !
 ! A46   A(11,24,29)           112.6006         estimate D2E/DX2                !
 ! A47   A(27,24,28)           106.4863         estimate D2E/DX2                !
 ! A48   A(27,24,29)           106.4968         estimate D2E/DX2                !
 ! A49   A(28,24,29)           106.3372         estimate D2E/DX2                !
 ! D1    D(9,1,2,3)              4.2796         estimate D2E/DX2                !
 ! D2    D(9,1,2,14)          -178.0032         estimate D2E/DX2                !
 ! D3    D(13,1,2,3)          -176.0789         estimate D2E/DX2                !
 ! D4    D(13,1,2,14)            1.6383         estimate D2E/DX2                !
 ! D5    D(2,1,9,10)           179.8607         estimate D2E/DX2                !
 ! D6    D(2,1,9,22)            -0.0294         estimate D2E/DX2                !
 ! D7    D(13,1,9,10)            0.2278         estimate D2E/DX2                !
 ! D8    D(13,1,9,22)         -179.6624         estimate D2E/DX2                !
 ! D9    D(2,1,13,12)         -179.8327         estimate D2E/DX2                !
 ! D10   D(2,1,13,26)            0.227          estimate D2E/DX2                !
 ! D11   D(9,1,13,12)           -0.1763         estimate D2E/DX2                !
 ! D12   D(9,1,13,26)          179.8835         estimate D2E/DX2                !
 ! D13   D(1,2,3,4)             -0.8212         estimate D2E/DX2                !
 ! D14   D(1,2,3,5)            179.1351         estimate D2E/DX2                !
 ! D15   D(14,2,3,4)          -178.5541         estimate D2E/DX2                !
 ! D16   D(14,2,3,5)             1.4022         estimate D2E/DX2                !
 ! D17   D(2,3,5,6)           -179.7243         estimate D2E/DX2                !
 ! D18   D(4,3,5,6)              0.2329         estimate D2E/DX2                !
 ! D19   D(3,5,6,7)           -179.9372         estimate D2E/DX2                !
 ! D20   D(3,5,6,15)            59.1772         estimate D2E/DX2                !
 ! D21   D(3,5,6,16)           -59.0794         estimate D2E/DX2                !
 ! D22   D(5,6,7,8)            179.9379         estimate D2E/DX2                !
 ! D23   D(5,6,7,17)            58.5333         estimate D2E/DX2                !
 ! D24   D(5,6,7,18)           -58.656          estimate D2E/DX2                !
 ! D25   D(15,6,7,8)           -61.0798         estimate D2E/DX2                !
 ! D26   D(15,6,7,17)          177.5157         estimate D2E/DX2                !
 ! D27   D(15,6,7,18)           60.3263         estimate D2E/DX2                !
 ! D28   D(16,6,7,8)            60.9489         estimate D2E/DX2                !
 ! D29   D(16,6,7,17)          -60.4556         estimate D2E/DX2                !
 ! D30   D(16,6,7,18)         -177.645          estimate D2E/DX2                !
 ! D31   D(6,7,8,19)           -60.0966         estimate D2E/DX2                !
 ! D32   D(6,7,8,20)           179.9706         estimate D2E/DX2                !
 ! D33   D(6,7,8,21)            60.0367         estimate D2E/DX2                !
 ! D34   D(17,7,8,19)           60.6124         estimate D2E/DX2                !
 ! D35   D(17,7,8,20)          -59.3204         estimate D2E/DX2                !
 ! D36   D(17,7,8,21)         -179.2543         estimate D2E/DX2                !
 ! D37   D(18,7,8,19)          179.1837         estimate D2E/DX2                !
 ! D38   D(18,7,8,20)           59.2509         estimate D2E/DX2                !
 ! D39   D(18,7,8,21)          -60.683          estimate D2E/DX2                !
 ! D40   D(1,9,10,11)           -0.0936         estimate D2E/DX2                !
 ! D41   D(1,9,10,23)         -179.9714         estimate D2E/DX2                !
 ! D42   D(22,9,10,11)         179.7984         estimate D2E/DX2                !
 ! D43   D(22,9,10,23)          -0.0793         estimate D2E/DX2                !
 ! D44   D(9,10,11,12)          -0.0943         estimate D2E/DX2                !
 ! D45   D(9,10,11,24)         179.9391         estimate D2E/DX2                !
 ! D46   D(23,10,11,12)        179.7793         estimate D2E/DX2                !
 ! D47   D(23,10,11,24)         -0.1873         estimate D2E/DX2                !
 ! D48   D(10,11,12,13)          0.1486         estimate D2E/DX2                !
 ! D49   D(10,11,12,25)       -179.9141         estimate D2E/DX2                !
 ! D50   D(24,11,12,13)       -179.8842         estimate D2E/DX2                !
 ! D51   D(24,11,12,25)          0.0531         estimate D2E/DX2                !
 ! D52   D(10,11,24,27)       -179.8006         estimate D2E/DX2                !
 ! D53   D(10,11,24,28)        -59.917          estimate D2E/DX2                !
 ! D54   D(10,11,24,29)         60.2846         estimate D2E/DX2                !
 ! D55   D(12,11,24,27)          0.2333         estimate D2E/DX2                !
 ! D56   D(12,11,24,28)        120.117          estimate D2E/DX2                !
 ! D57   D(12,11,24,29)       -119.6814         estimate D2E/DX2                !
 ! D58   D(11,12,13,1)          -0.0149         estimate D2E/DX2                !
 ! D59   D(11,12,13,26)        179.9252         estimate D2E/DX2                !
 ! D60   D(25,12,13,1)        -179.9524         estimate D2E/DX2                !
 ! D61   D(25,12,13,26)         -0.0124         estimate D2E/DX2                !
 --------------------------------------------------------------------------------
 Trust Radius=3.00D-01 FncErr=1.00D-07 GrdErr=1.00D-06
 Number of steps in this run=    149 maximum allowed number of steps=    174.
 GradGradGradGradGradGradGradGradGradGradGradGradGradGradGradGradGradGrad

                          Input orientation:                          
 ---------------------------------------------------------------------
 Center     Atomic      Atomic             Coordinates (Angstroms)
 Number     Number       Type             X           Y           Z
 ---------------------------------------------------------------------
      1          6           0       -6.296490    1.283329   -0.012981
      2          7           0       -5.001775    0.761828   -0.010852
      3          6           0       -3.822367    1.449147   -0.005810
      4          8           0       -3.700118    2.657249   -0.016331
      5          8           0       -2.798127    0.590105    0.013673
      6          6           0       -1.478771    1.176889    0.027446
      7          6           0       -0.475483    0.046511    0.046881
      8          6           0        0.946050    0.598076    0.060629
      9          6           0       -6.577566    2.650452   -0.097111
     10          6           0       -7.899399    3.066918   -0.094500
     11          6           0       -8.958173    2.165046   -0.012513
     12          6           0       -8.660813    0.805622    0.066726
     13          6           0       -7.351005    0.366327    0.066990
     14          1           0       -4.921562   -0.247887    0.022806
     15          1           0       -1.388640    1.808648    0.913441
     16          1           0       -1.365047    1.798251   -0.863179
     17          1           0       -0.629259   -0.584604   -0.832623
     18          1           0       -0.650550   -0.573450    0.930325
     19          1           0        1.139970    1.208672   -0.824830
     20          1           0        1.677503   -0.211479    0.075228
     21          1           0        1.118354    1.220883    0.942041
     22          1           0       -5.788106    3.382079   -0.165375
     23         17           0       -8.196029    4.782935   -0.202159
     24          6           0      -10.385483    2.621698   -0.008787
     25          1           0       -9.463571    0.082102    0.129996
     26          1           0       -7.135374   -0.694093    0.130371
     27          9           0      -11.238831    1.592758    0.080916
     28          9           0      -10.663552    3.439523    1.023075
     29          9           0      -10.715704    3.295735   -1.125632
 ---------------------------------------------------------------------
                    Distance matrix (angstroms):
                    1          2          3          4          5
     1  C    0.000000
     2  N    1.395798   0.000000
     3  C    2.479683   1.365077   0.000000
     4  O    2.937484   2.299339   1.214317   0.000000
     5  O    3.566484   2.210465   1.336937   2.255565   0.000000
     6  C    4.819063   3.547576   2.359591   2.669788   1.444023
     7  C    5.951253   4.582830   3.629297   4.149485   2.385639
     8  C    7.275257   5.950508   4.844227   5.082617   3.744480
     9  C    1.398251   2.461190   3.007090   2.878589   4.305980
    10  C    2.399407   3.703601   4.387168   4.219941   5.671797
    11  C    2.803923   4.197869   5.185466   5.281043   6.358246
    12  C    2.413418   3.660123   4.881593   5.295651   5.866886
    13  C    1.399748   2.383561   3.691759   4.310945   4.558687
    14  H    2.058235   1.013456   2.022121   3.151710   2.282825
    15  H    5.022072   3.873615   2.626270   2.632021   2.069078
    16  H    5.030617   3.876393   2.625905   2.628229   2.069348
    17  H    6.023163   4.648342   3.875010   4.539397   2.607709
    18  H    6.017814   4.647789   3.876554   4.542405   2.608869
    19  H    7.481016   6.211542   5.035217   5.116493   4.073612
    20  H    8.113371   6.750370   5.745679   6.095638   4.547262
    21  H    7.476354   6.210854   5.035995   5.118525   4.074134
    22  H    2.164816   2.740056   2.761488   2.215239   4.094771
    23  Cl   3.986387   5.138984   5.502873   4.976574   6.838403
    24  C    4.302455   5.695914   6.667036   6.685464   7.854671
    25  H    3.390250   4.515472   5.806069   6.314284   6.685787
    26  H    2.152783   2.586870   3.948168   4.801458   4.524875
    27  F    4.952908   6.292832   7.418361   7.614118   8.500313
    28  F    4.979339   6.347816   7.198750   7.083906   8.426327
    29  F    4.981689   6.349205   7.223710   7.131386   8.444317
                    6          7          8          9         10
     6  C    0.000000
     7  C    1.511529   0.000000
     8  C    2.493167   1.524851   0.000000
     9  C    5.308918   6.636012   7.800123   0.000000
    10  C    6.694143   8.016070   9.184836   1.385891   0.000000
    11  C    7.544501   8.743440  10.027680   2.431063   1.393233
    12  C    7.191739   8.220479   9.609107   2.787501   2.391487
    13  C    5.928044   6.882986   8.300294   2.417099   2.760437
    14  H    3.725965   4.455880   5.928402   3.340224   4.457489
    15  H    1.091893   2.165619   2.764696   5.353018   6.707398
    16  H    1.091897   2.165209   2.763152   5.336990   6.700608
    17  H    2.136410   1.093381   2.162922   6.810941   8.169050
    18  H    2.136545   1.093376   2.162863   6.824858   8.176085
    19  H    2.754122   2.172600   1.092919   7.884710   9.257249
    20  H    3.448466   2.168574   1.091154   8.738794  10.123920
    21  H    2.753812   2.172735   1.092915   7.896245   9.262944
    22  H    4.844627   6.276546   7.290446   1.078511   2.135863
    23  Cl   7.627440   9.061047  10.057818   2.679168   1.744790
    24  C    9.023209  10.239277  11.511017   3.809050   2.527089
    25  H    8.060155   8.988543  10.422631   3.870016   3.377300
    26  H    5.958885   6.701463   8.184373   3.398364   3.844413
    27  F    9.769062  10.873900  12.225429   4.783075   3.654548
    28  F    9.511623  10.782496  11.990954   4.309609   3.004721
    29  F    9.546729  10.807145  12.028345   4.312590   3.007851
                   11         12         13         14         15
    11  C    0.000000
    12  C    1.393820   0.000000
    13  C    2.413441   1.381512   0.000000
    14  H    4.702948   3.885075   2.506273   0.000000
    15  H    7.634281   7.389689   6.192461   4.183791   0.000000
    16  H    7.649427   7.421472   6.224735   4.197672   1.776807
    17  H    8.809311   8.200452   6.848025   4.389647   3.058276
    18  H    8.798005   8.173858   6.820896   4.378484   2.493883
    19  H   10.175804   9.849501   8.579135   6.291440   3.126567
    20  H   10.898311  10.388232   9.046983   6.599374   3.766264
    21  H   10.165579   9.827040   8.557221   6.283539   2.575131
    22  H    3.399097   3.865806   3.404617   3.736705   4.795293
    23  Cl   2.733162   4.013396   4.504768   6.006822   7.512090
    24  C    1.498586   2.505658   3.781600   6.171706   9.080460
    25  H    2.148113   1.082545   2.132530   4.555242   8.294532
    26  H    3.393772   2.140131   1.083976   2.260892   6.316792
    27  F    2.353220   2.695545   4.076704   6.580216   9.887668
    28  F    2.367499   3.444271   4.618614   6.896954   9.417843
    29  F    2.367786   3.441651   4.617898   6.888269   9.662473
                   16         17         18         19         20
    16  H    0.000000
    17  H    2.494056   0.000000
    18  H    3.058125   1.763112   0.000000
    19  H    2.573749   2.519141   3.076116   0.000000
    20  H    3.765201   2.506904   2.506401   1.765185   0.000000
    21  H    3.124012   3.076259   2.519680   1.767045   1.765128
    22  H    4.749620   6.541674   6.575808   7.290872   8.288961
    23  Cl   7.483823   9.298600   9.322426  10.016184  11.068322
    24  C    9.098149  10.302572  10.288820  11.640388  12.391513
    25  H    8.337725   8.911577   8.873534  10.705883  11.145076
    26  H    6.363614   6.577908   6.535091   8.544837   8.826254
    27  F    9.920945  10.869152  10.840924  12.417834  13.041741
    28  F    9.628807  10.969241  10.787620  12.153788  12.904645
    29  F    9.473444  10.811071  10.977472  12.041733  12.935773
                   21         22         23         24         25
    21  H    0.000000
    22  H    7.320951   0.000000
    23  Cl  10.037686   2.786009   0.000000
    24  C   11.627752   4.662465   3.082539   0.000000
    25  H   10.673958   4.948347   4.880043   2.705315   0.000000
    26  H    8.511754   4.303229   5.588685   4.645110   2.454177
    27  F   12.392733   5.742189   4.417692   1.339764   2.331531
    28  F   11.989254   5.018534   3.065065   1.345697   3.675570
    29  F   12.191194   5.021033   3.068115   1.345628   3.670405
                   26         27         28         29
    26  H    0.000000
    27  F    4.697925   0.000000
    28  F    5.507426   2.151546   0.000000
    29  F    5.505910   2.151639   2.154144   0.000000
 Stoichiometry    C11H11ClF3NO2
 Framework group  C1[X(C11H11ClF3NO2)]
 Deg. of freedom    81
 Full point group                 C1      NOp   1
 Largest Abelian subgroup         C1      NOp   1
 Largest concise Abelian subgroup C1      NOp   1
                         Standard orientation:                         
 ---------------------------------------------------------------------
 Center     Atomic      Atomic             Coordinates (Angstroms)
 Number     Number       Type             X           Y           Z
 ---------------------------------------------------------------------
      1          6           0        0.220087   -0.712748   -0.035413
      2          7           0        1.601601   -0.910822   -0.056337
      3          6           0        2.583947    0.035584   -0.003925
      4          8           0        2.415584    1.236611    0.057357
      5          8           0        3.783077   -0.555059   -0.028974
      6          6           0        4.925317    0.326617    0.027064
      7          6           0        6.168559   -0.532086   -0.014117
      8          6           0        7.418414    0.339727    0.040426
      9          6           0       -0.378429    0.550921   -0.040633
     10          6           0       -1.761291    0.640433   -0.021315
     11          6           0       -2.574768   -0.490427    0.001239
     12          6           0       -1.962306   -1.742475    0.002126
     13          6           0       -0.585677   -1.857148   -0.015735
     14          1           0        1.919681   -1.872735   -0.081660
     15          1           0        4.870096    0.908718    0.949202
     16          1           0        4.880794    1.008242   -0.824783
     17          1           0        6.161860   -1.129067   -0.930114
     18          1           0        6.153105   -1.226510    0.830282
     19          1           0        7.454389    1.029669   -0.806424
     20          1           0        8.321353   -0.272230    0.011688
     21          1           0        7.445099    0.932945    0.957947
     22          1           0        0.214016    1.451908   -0.061089
     23         17           0       -2.457999    2.240066   -0.029592
     24          6           0       -4.069622   -0.387083    0.023412
     25          1           0       -2.569634   -2.638468    0.017996
     26          1           0       -0.123768   -2.837780   -0.013573
     27          9           0       -4.653310   -1.592777    0.047405
     28          9           0       -4.525487    0.279383    1.099939
     29          9           0       -4.559748    0.253353   -1.053775
 ---------------------------------------------------------------------
 Rotational constants (GHZ):      1.1304974      0.1271776      0.1169142
 Standard basis: 6-311+G(d) (5D, 7F)
 There are   455 symmetry adapted cartesian basis functions of A   symmetry.
 There are   437 symmetry adapted basis functions of A   symmetry.
   437 basis functions,   720 primitive gaussians,   455 cartesian basis functions
    72 alpha electrons       72 beta electrons
       nuclear repulsion energy      1438.4031682082 Hartrees.
 NAtoms=   29 NActive=   29 NUniq=   29 SFac= 1.00D+00 NAtFMM=   60 NAOKFM=F Big=F
 Integral buffers will be    131072 words long.
 Raffenetti 2 integral format.
 Two-electron integral symmetry is turned on.
 Nuclear repulsion after empirical dispersion term =     1438.4019367479 Hartrees.
 ------------------------------------------------------------------------------
 Polarizable Continuum Model (PCM)
 =================================
 Model                : PCM (using non-symmetric T matrix).
 Atomic radii         : SMD-Coulomb.
 Polarization charges : Total charges.
 Charge compensation  : None.
 Solution method      : On-the-fly selection.
 Cavity type          : VdW (van der Waals Surface) (Alpha=1.000).
 Cavity algorithm     : GePol (No added spheres)
                        Default sphere list used, NSphG=   29.
                        Lebedev-Laikov grids with approx.  5.0 points / Ang**2.
                        Smoothing algorithm: York/Karplus (Gamma=1.0000).
                        Polarization charges: spherical gaussians, with
                                              point-specific exponents (IZeta= 3).
                        Self-potential: point-specific (ISelfS= 7).
                        Self-field    : sphere-specific E.n sum rule (ISelfD= 2).
 1st derivatives      : Analytical E(r).r(x)/FMM algorithm (CHGder, D1EAlg=3).
                        Cavity 1st derivative terms included.
 Solvent              : Water, Eps=  78.355300 Eps(inf)=   1.777849
 ------------------------------------------------------------------------------
 ------------------------------------------------------------------------------
 Atomic radii for non-electrostatic terms: SMD-CDS.
 ------------------------------------------------------------------------------
 Nuclear repulsion after PCM non-electrostatic terms =     1438.4146658185 Hartrees.
 One-electron integrals computed using PRISM.
 NBasis=   437 RedAO= T EigKep=  1.82D-06  NBF=   437
 NBsUse=   435 1.00D-06 EigRej=  7.54D-07 NBFU=   435
 ExpMin= 4.38D-02 ExpMax= 1.06D+05 ExpMxC= 3.62D+03 IAcc=3 IRadAn=         5 AccDes= 0.00D+00
 Harris functional with IExCor= 1009 and IRadAn=       5 diagonalized for initial guess.
 HarFok:  IExCor= 1009 AccDes= 0.00D+00 IRadAn=         5 IDoV= 1 UseB2=F ITyADJ=14
 ICtDFT=  3500011 ScaDFX=  1.000000  1.000000  1.000000  1.000000
 FoFCou: FMM=F IPFlag=           0 FMFlag=      100000 FMFlg1=           0
         NFxFlg=           0 DoJE=T BraDBF=F KetDBF=T FulRan=T
         wScrn=  0.000000 ICntrl=     500 IOpCl=  0 I1Cent=   200000004 NGrid=           0
         NMat0=    1 NMatS0=      1 NMatT0=    0 NMatD0=    1 NMtDS0=    0 NMtDT0=    0
 Petite list used in FoFCou.
 Requested convergence on RMS density matrix=1.00D-08 within 128 cycles.
 Requested convergence on MAX density matrix=1.00D-06.
 Requested convergence on             energy=1.00D-06.
 No special actions if energy rises.
 Inv3:  Mode=1 IEnd=    16230828.
 Iteration    1 A*A^-1 deviation from unit magnitude is 6.55D-15 for   2310.
 Iteration    1 A*A^-1 deviation from orthogonality  is 4.23D-15 for   1140    326.
 Iteration    1 A^-1*A deviation from unit magnitude is 6.00D-15 for   2310.
 Iteration    1 A^-1*A deviation from orthogonality  is 2.05D-14 for   1310   1272.
 Error on total polarization charges =  0.04456
 SCF Done:  E(RM062X) =  -1390.68223955     A.U. after   15 cycles
            NFock= 15  Conv=0.45D-08     -V/T= 2.0028
 SMD-CDS (non-electrostatic) energy       (kcal/mol) =       7.99
 (included in total energy above)

 **********************************************************************

            Population analysis using the SCF density.

 **********************************************************************

 Orbital symmetries:
       Occupied  (A) (A) (A) (A) (A) (A) (A) (A) (A) (A) (A) (A)
                 (A) (A) (A) (A) (A) (A) (A) (A) (A) (A) (A) (A)
                 (A) (A) (A) (A) (A) (A) (A) (A) (A) (A) (A) (A)
                 (A) (A) (A) (A) (A) (A) (A) (A) (A) (A) (A) (A)
                 (A) (A) (A) (A) (A) (A) (A) (A) (A) (A) (A) (A)
                 (A) (A) (A) (A) (A) (A) (A) (A) (A) (A) (A) (A)
       Virtual   (A) (A) (A) (A) (A) (A) (A) (A) (A) (A) (A) (A)
                 (A) (A) (A) (A) (A) (A) (A) (A) (A) (A) (A) (A)
                 (A) (A) (A) (A) (A) (A) (A) (A) (A) (A) (A) (A)
                 (A) (A) (A) (A) (A) (A) (A) (A) (A) (A) (A) (A)
                 (A) (A) (A) (A) (A) (A) (A) (A) (A) (A) (A) (A)
                 (A) (A) (A) (A) (A) (A) (A) (A) (A) (A) (A) (A)
                 (A) (A) (A) (A) (A) (A) (A) (A) (A) (A) (A) (A)
                 (A) (A) (A) (A) (A) (A) (A) (A) (A) (A) (A) (A)
                 (A) (A) (A) (A) (A) (A) (A) (A) (A) (A) (A) (A)
                 (A) (A) (A) (A) (A) (A) (A) (A) (A) (A) (A) (A)
                 (A) (A) (A) (A) (A) (A) (A) (A) (A) (A) (A) (A)
                 (A) (A) (A) (A) (A) (A) (A) (A) (A) (A) (A) (A)
                 (A) (A) (A) (A) (A) (A) (A) (A) (A) (A) (A) (A)
                 (A) (A) (A) (A) (A) (A) (A) (A) (A) (A) (A) (A)
                 (A) (A) (A) (A) (A) (A) (A) (A) (A) (A) (A) (A)
                 (A) (A) (A) (A) (A) (A) (A) (A) (A) (A) (A) (A)
                 (A) (A) (A) (A) (A) (A) (A) (A) (A) (A) (A) (A)
                 (A) (A) (A) (A) (A) (A) (A) (A) (A) (A) (A) (A)
                 (A) (A) (A) (A) (A) (A) (A) (A) (A) (A) (A) (A)
                 (A) (A) (A) (A) (A) (A) (A) (A) (A) (A) (A) (A)
                 (A) (A) (A) (A) (A) (A) (A) (A) (A) (A) (A) (A)
                 (A) (A) (A) (A) (A) (A) (A) (A) (A) (A) (A) (A)
                 (A) (A) (A) (A) (A) (A) (A) (A) (A) (A) (A) (A)
                 (A) (A) (A) (A) (A) (A) (A) (A) (A) (A) (A) (A)
                 (A) (A) (A) (A) (A) (A) (A) (A) (A) (A) (A) (A)
                 (A) (A) (A) (A) (A) (A) (A) (A) (A) (A) (A) (A)
                 (A) (A) (A) (A) (A) (A) (A) (A) (A) (A) (A) (A)
                 (A) (A) (A) (A) (A) (A) (A) (A) (A) (A) (A) (A)
                 (A) (A) (A) (A) (A) (A) (A) (A) (A) (A) (A) (A)
                 (A) (A) (A) (A) (A) (A) (A) (A) (A) (A) (A) (A)
                 (A) (A) (A)
 The electronic state is 1-A.
 Alpha  occ. eigenvalues -- -102.69077 -25.28751 -25.28333 -25.28329 -19.67717
 Alpha  occ. eigenvalues --  -19.62232 -14.80221 -10.81353 -10.71807 -10.63262
 Alpha  occ. eigenvalues --  -10.62159 -10.59049 -10.58438 -10.57217 -10.56525
 Alpha  occ. eigenvalues --  -10.56065 -10.53088 -10.51912  -9.83364  -7.55877
 Alpha  occ. eigenvalues --   -7.55201  -7.55182  -1.47916  -1.38556  -1.38159
 Alpha  occ. eigenvalues --   -1.25821  -1.15904  -1.07972  -1.01929  -0.95564
 Alpha  occ. eigenvalues --   -0.90916  -0.88789  -0.85508  -0.82605  -0.79184
 Alpha  occ. eigenvalues --   -0.74763  -0.72928  -0.70333  -0.70256  -0.68647
 Alpha  occ. eigenvalues --   -0.67272  -0.67076  -0.64266  -0.61637  -0.59372
 Alpha  occ. eigenvalues --   -0.58544  -0.58515  -0.57478  -0.55290  -0.54748
 Alpha  occ. eigenvalues --   -0.54267  -0.53607  -0.53403  -0.52190  -0.51838
 Alpha  occ. eigenvalues --   -0.51115  -0.50476  -0.49502  -0.46904  -0.46351
 Alpha  occ. eigenvalues --   -0.45291  -0.43915  -0.43355  -0.42727  -0.40193
 Alpha  occ. eigenvalues --   -0.40151  -0.39347  -0.39230  -0.38168  -0.38085
 Alpha  occ. eigenvalues --   -0.32258  -0.29766
 Alpha virt. eigenvalues --   -0.01316  -0.00299   0.01038   0.02233   0.02606
 Alpha virt. eigenvalues --    0.03190   0.03602   0.03974   0.04675   0.05100
 Alpha virt. eigenvalues --    0.05153   0.05622   0.06122   0.06683   0.07214
 Alpha virt. eigenvalues --    0.07651   0.07677   0.08088   0.08319   0.09018
 Alpha virt. eigenvalues --    0.09479   0.09530   0.09937   0.10822   0.10991
 Alpha virt. eigenvalues --    0.11881   0.12167   0.12647   0.12753   0.13495
 Alpha virt. eigenvalues --    0.13681   0.14851   0.15463   0.15737   0.16181
 Alpha virt. eigenvalues --    0.16799   0.17416   0.18294   0.18556   0.18836
 Alpha virt. eigenvalues --    0.19629   0.19944   0.20522   0.20561   0.20820
 Alpha virt. eigenvalues --    0.21302   0.21532   0.21744   0.22243   0.22512
 Alpha virt. eigenvalues --    0.23006   0.23188   0.23562   0.24132   0.24625
 Alpha virt. eigenvalues --    0.25201   0.25474   0.25587   0.26051   0.26761
 Alpha virt. eigenvalues --    0.26943   0.27370   0.27524   0.27804   0.28704
 Alpha virt. eigenvalues --    0.28874   0.29132   0.29469   0.29845   0.30502
 Alpha virt. eigenvalues --    0.30639   0.31118   0.31670   0.32116   0.32458
 Alpha virt. eigenvalues --    0.32872   0.33106   0.34594   0.34674   0.35349
 Alpha virt. eigenvalues --    0.36311   0.36448   0.36796   0.37286   0.38057
 Alpha virt. eigenvalues --    0.38256   0.39051   0.39875   0.41052   0.41543
 Alpha virt. eigenvalues --    0.42521   0.42881   0.44080   0.44495   0.44670
 Alpha virt. eigenvalues --    0.45740   0.46258   0.47139   0.48098   0.49293
 Alpha virt. eigenvalues --    0.49864   0.49960   0.50750   0.52088   0.52564
 Alpha virt. eigenvalues --    0.52903   0.55054   0.55543   0.56162   0.57157
 Alpha virt. eigenvalues --    0.59115   0.59918   0.60590   0.60721   0.61354
 Alpha virt. eigenvalues --    0.62548   0.63360   0.63707   0.64701   0.66267
 Alpha virt. eigenvalues --    0.66944   0.67692   0.68364   0.68903   0.69156
 Alpha virt. eigenvalues --    0.69719   0.70869   0.71211   0.72566   0.72812
 Alpha virt. eigenvalues --    0.73172   0.73815   0.74471   0.74964   0.75601
 Alpha virt. eigenvalues --    0.76629   0.77904   0.78321   0.79080   0.80609
 Alpha virt. eigenvalues --    0.81551   0.83206   0.83964   0.85706   0.87934
 Alpha virt. eigenvalues --    0.89136   0.90017   0.92109   0.92335   0.94054
 Alpha virt. eigenvalues --    0.94608   0.95166   0.96130   0.96364   0.97269
 Alpha virt. eigenvalues --    0.98781   0.99964   1.01190   1.04182   1.04544
 Alpha virt. eigenvalues --    1.04910   1.06353   1.06531   1.08633   1.10037
 Alpha virt. eigenvalues --    1.10314   1.11626   1.13127   1.14028   1.15668
 Alpha virt. eigenvalues --    1.18620   1.19713   1.21757   1.22342   1.22979
 Alpha virt. eigenvalues --    1.23810   1.24914   1.27231   1.29387   1.31430
 Alpha virt. eigenvalues --    1.33130   1.33723   1.36584   1.38121   1.40006
 Alpha virt. eigenvalues --    1.40587   1.43882   1.44844   1.44884   1.46272
 Alpha virt. eigenvalues --    1.48778   1.49268   1.50000   1.50629   1.52784
 Alpha virt. eigenvalues --    1.53317   1.53972   1.56850   1.57027   1.57456
 Alpha virt. eigenvalues --    1.58503   1.59135   1.60465   1.61334   1.62214
 Alpha virt. eigenvalues --    1.63784   1.64060   1.64958   1.68497   1.71098
 Alpha virt. eigenvalues --    1.74272   1.75184   1.78189   1.79366   1.79571
 Alpha virt. eigenvalues --    1.79712   1.80160   1.81824   1.83276   1.85160
 Alpha virt. eigenvalues --    1.86521   1.86900   1.89574   1.90137   1.92386
 Alpha virt. eigenvalues --    1.93211   1.94791   1.96936   1.99089   1.99492
 Alpha virt. eigenvalues --    2.01839   2.06197   2.08221   2.08405   2.09807
 Alpha virt. eigenvalues --    2.12102   2.18338   2.19306   2.20565   2.23294
 Alpha virt. eigenvalues --    2.25270   2.31157   2.32822   2.35402   2.36415
 Alpha virt. eigenvalues --    2.39872   2.41281   2.43726   2.47245   2.51379
 Alpha virt. eigenvalues --    2.53067   2.55477   2.56164   2.57256   2.58251
 Alpha virt. eigenvalues --    2.60926   2.61250   2.62826   2.66133   2.68887
 Alpha virt. eigenvalues --    2.70359   2.73861   2.76159   2.80527   2.82050
 Alpha virt. eigenvalues --    2.84775   2.85021   2.91032   2.92798   2.94877
 Alpha virt. eigenvalues --    2.95677   3.00660   3.01030   3.02186   3.04291
 Alpha virt. eigenvalues --    3.05245   3.07593   3.09959   3.11900   3.12528
 Alpha virt. eigenvalues --    3.19111   3.19268   3.22070   3.23684   3.26167
 Alpha virt. eigenvalues --    3.30027   3.30055   3.30768   3.34293   3.38196
 Alpha virt. eigenvalues --    3.40236   3.41665   3.42965   3.44331   3.51115
 Alpha virt. eigenvalues --    3.55144   3.67117   3.69996   3.74298   3.78602
 Alpha virt. eigenvalues --    3.79714   3.82566   3.83485   3.83782   3.86071
 Alpha virt. eigenvalues --    3.86670   3.87777   3.90603   3.96321   3.97663
 Alpha virt. eigenvalues --    4.00126   4.01113   4.02783   4.05390   4.11157
 Alpha virt. eigenvalues --    4.12913   4.18780   4.22318   4.26584   4.30847
 Alpha virt. eigenvalues --    4.56215   4.76348   4.81194   4.97195   5.01030
 Alpha virt. eigenvalues --    5.08942   5.10155   5.15444   5.36429   5.49677
 Alpha virt. eigenvalues --    5.79930   5.95764   6.43854   6.47729   6.49131
 Alpha virt. eigenvalues --    6.52141   6.54739   6.57164   6.63333   6.85765
 Alpha virt. eigenvalues --    6.90308   9.99322  23.44561  23.58103  23.65615
 Alpha virt. eigenvalues --   23.73032  23.82934  23.90884  23.91760  23.97562
 Alpha virt. eigenvalues --   24.08418  24.12002  24.20088  25.95254  26.31702
 Alpha virt. eigenvalues --   26.79304  35.66376  50.01788  50.12793  66.88091
 Alpha virt. eigenvalues --   66.90808  66.96495 216.10176
          Condensed to atoms (all electrons):
               1          2          3          4          5          6
     1  C   17.902112  -0.046920  -0.734861  -0.197573  -0.319425  -0.590325
     2  N   -0.046920   7.473846   0.358669  -0.026684  -0.141605  -0.277509
     3  C   -0.734861   0.358669   8.303675   0.504692   0.300600  -0.607538
     4  O   -0.197573  -0.026684   0.504692   8.172453  -0.187554  -0.185103
     5  O   -0.319425  -0.141605   0.300600  -0.187554   8.282027   0.320373
     6  C   -0.590325  -0.277509  -0.607538  -0.185103   0.320373   8.282107
     7  C   -0.024590   0.028110   0.136482   0.030825  -0.153890  -0.977262
     8  C   -0.019609  -0.007411  -0.270076  -0.000325   0.033867   0.339267
     9  C   -0.903294  -0.140241  -0.089087   0.310421   0.048265  -0.299928
    10  C   -1.873306   0.191111   0.839760   0.045046   0.026889  -0.007064
    11  C   -2.612530  -0.096422  -1.430685  -0.003171  -0.001130  -0.140962
    12  C   -0.289468   0.095068  -0.249499  -0.005984  -0.008550   0.010868
    13  C   -1.403708  -0.169803  -1.165126  -0.041298  -0.052582  -0.107449
    14  H   -0.039359   0.264774  -0.018356  -0.000136   0.015201  -0.001430
    15  H    0.006676   0.004193   0.034690  -0.000564  -0.041247   0.355816
    16  H    0.004081   0.003790   0.023491  -0.000640  -0.041495   0.368276
    17  H    0.000325  -0.000754   0.007590  -0.000275   0.001434  -0.065698
    18  H   -0.000589  -0.000808   0.002226  -0.000284   0.001471  -0.064316
    19  H   -0.000162  -0.000037  -0.002635  -0.000063  -0.000315  -0.049851
    20  H    0.000146   0.000037   0.009330   0.000027  -0.000667   0.092260
    21  H   -0.000066  -0.000044  -0.001305  -0.000069  -0.000309  -0.048884
    22  H    0.050220  -0.025063   0.082633   0.003656   0.002007   0.009888
    23  Cl  -0.131782  -0.002736   0.023723   0.001332   0.000423   0.002749
    24  C   -2.071977   0.016678  -0.201911  -0.000916   0.001786  -0.008223
    25  H    0.037178  -0.002245   0.004204  -0.000012  -0.000012   0.000058
    26  H    0.042265  -0.017687  -0.018743   0.000014  -0.000499  -0.000984
    27  F    0.019222  -0.000186  -0.000897   0.000002   0.000000  -0.000011
    28  F    0.027087   0.000004   0.000196  -0.000002   0.000000   0.000003
    29  F    0.012916   0.000019  -0.000456  -0.000004   0.000000  -0.000000
               7          8          9         10         11         12
     1  C   -0.024590  -0.019609  -0.903294  -1.873306  -2.612530  -0.289468
     2  N    0.028110  -0.007411  -0.140241   0.191111  -0.096422   0.095068
     3  C    0.136482  -0.270076  -0.089087   0.839760  -1.430685  -0.249499
     4  O    0.030825  -0.000325   0.310421   0.045046  -0.003171  -0.005984
     5  O   -0.153890   0.033867   0.048265   0.026889  -0.001130  -0.008550
     6  C   -0.977262   0.339267  -0.299928  -0.007064  -0.140962   0.010868
     7  C    6.555017  -0.172323  -0.021502  -0.005199  -0.001409  -0.000582
     8  C   -0.172323   6.155421  -0.011484  -0.000231  -0.001092  -0.000008
     9  C   -0.021502  -0.011484  11.148783   3.790351  -3.580133  -1.468764
    10  C   -0.005199  -0.000231   3.790351  27.903325 -11.107952  -3.362056
    11  C   -0.001409  -0.001092  -3.580133 -11.107952  30.520700  -2.779723
    12  C   -0.000582  -0.000008  -1.468764  -3.362056  -2.779723  13.072994
    13  C    0.023016  -0.000851  -2.347756  -6.482302   1.712081   0.318112
    14  H   -0.002831  -0.000359   0.072248   0.023933   0.009957  -0.003116
    15  H   -0.021209  -0.015928  -0.000819   0.000030   0.000117   0.000001
    16  H   -0.020104  -0.014133  -0.002507   0.000006   0.000033   0.000034
    17  H    0.444802  -0.046348   0.000293   0.000020   0.000013  -0.000008
    18  H    0.448632  -0.045089  -0.000058   0.000000  -0.000000   0.000020
    19  H    0.014750   0.381733  -0.000017  -0.000002  -0.000001   0.000001
    20  H   -0.132082   0.380799   0.000061   0.000001   0.000001  -0.000001
    21  H    0.012102   0.382084  -0.000033  -0.000002  -0.000001   0.000000
    22  H   -0.000414   0.000074   0.321795  -0.107819   0.011714  -0.016071
    23  Cl  -0.000043   0.000035   0.513937  -1.317575  -0.403212   0.308606
    24  C   -0.000496  -0.000030  -1.155101  -3.271671  -3.128383   0.367177
    25  H    0.000001   0.000000  -0.007331  -0.008204   0.112758   0.292126
    26  H   -0.000066   0.000001  -0.000500  -0.005668   0.020509  -0.036192
    27  F    0.000000  -0.000000  -0.005066  -0.086257  -0.168741   0.061782
    28  F   -0.000000   0.000000   0.032008  -0.072986   0.094001  -0.010836
    29  F   -0.000000  -0.000000   0.009883  -0.099893   0.113505  -0.006367
              13         14         15         16         17         18
     1  C   -1.403708  -0.039359   0.006676   0.004081   0.000325  -0.000589
     2  N   -0.169803   0.264774   0.004193   0.003790  -0.000754  -0.000808
     3  C   -1.165126  -0.018356   0.034690   0.023491   0.007590   0.002226
     4  O   -0.041298  -0.000136  -0.000564  -0.000640  -0.000275  -0.000284
     5  O   -0.052582   0.015201  -0.041247  -0.041495   0.001434   0.001471
     6  C   -0.107449  -0.001430   0.355816   0.368276  -0.065698  -0.064316
     7  C    0.023016  -0.002831  -0.021209  -0.020104   0.444802   0.448632
     8  C   -0.000851  -0.000359  -0.015928  -0.014133  -0.046348  -0.045089
     9  C   -2.347756   0.072248  -0.000819  -0.002507   0.000293  -0.000058
    10  C   -6.482302   0.023933   0.000030   0.000006   0.000020   0.000000
    11  C    1.712081   0.009957   0.000117   0.000033   0.000013  -0.000000
    12  C    0.318112  -0.003116   0.000001   0.000034  -0.000008   0.000020
    13  C   14.912315  -0.059706   0.000447   0.000920  -0.000045   0.000205
    14  H   -0.059706   0.247591  -0.000032  -0.000034   0.000012  -0.000003
    15  H    0.000447  -0.000032   0.425910  -0.038541   0.004960  -0.007511
    16  H    0.000920  -0.000034  -0.038541   0.426227  -0.007493   0.004975
    17  H   -0.000045   0.000012   0.004960  -0.007493   0.431336  -0.036309
    18  H    0.000205  -0.000003  -0.007511   0.004975  -0.036309   0.431332
    19  H    0.000012  -0.000000  -0.000344   0.003184  -0.007621   0.005713
    20  H   -0.000017   0.000000  -0.000146  -0.000140  -0.003104  -0.003070
    21  H    0.000011  -0.000000   0.003162  -0.000348   0.005693  -0.007577
    22  H   -0.014313  -0.000015  -0.000011  -0.000022  -0.000000  -0.000000
    23  Cl   0.281427   0.000028   0.000005   0.000005   0.000000   0.000000
    24  C    0.529035   0.002838  -0.000001  -0.000003   0.000000  -0.000000
    25  H   -0.099206   0.000017  -0.000000   0.000000  -0.000000  -0.000000
    26  H    0.329179   0.003761  -0.000000  -0.000000  -0.000000  -0.000000
    27  F    0.110100  -0.000001   0.000000   0.000000   0.000000  -0.000000
    28  F   -0.011427   0.000001  -0.000000   0.000000  -0.000000   0.000000
    29  F   -0.004054   0.000002   0.000000  -0.000000   0.000000  -0.000000
              19         20         21         22         23         24
     1  C   -0.000162   0.000146  -0.000066   0.050220  -0.131782  -2.071977
     2  N   -0.000037   0.000037  -0.000044  -0.025063  -0.002736   0.016678
     3  C   -0.002635   0.009330  -0.001305   0.082633   0.023723  -0.201911
     4  O   -0.000063   0.000027  -0.000069   0.003656   0.001332  -0.000916
     5  O   -0.000315  -0.000667  -0.000309   0.002007   0.000423   0.001786
     6  C   -0.049851   0.092260  -0.048884   0.009888   0.002749  -0.008223
     7  C    0.014750  -0.132082   0.012102  -0.000414  -0.000043  -0.000496
     8  C    0.381733   0.380799   0.382084   0.000074   0.000035  -0.000030
     9  C   -0.000017   0.000061  -0.000033   0.321795   0.513937  -1.155101
    10  C   -0.000002   0.000001  -0.000002  -0.107819  -1.317575  -3.271671
    11  C   -0.000001   0.000001  -0.000001   0.011714  -0.403212  -3.128383
    12  C    0.000001  -0.000001   0.000000  -0.016071   0.308606   0.367177
    13  C    0.000012  -0.000017   0.000011  -0.014313   0.281427   0.529035
    14  H   -0.000000   0.000000  -0.000000  -0.000015   0.000028   0.002838
    15  H   -0.000344  -0.000146   0.003162  -0.000011   0.000005  -0.000001
    16  H    0.003184  -0.000140  -0.000348  -0.000022   0.000005  -0.000003
    17  H   -0.007621  -0.003104   0.005693  -0.000000   0.000000   0.000000
    18  H    0.005713  -0.003070  -0.007577  -0.000000   0.000000  -0.000000
    19  H    0.443696  -0.024055  -0.036299  -0.000000  -0.000000  -0.000000
    20  H   -0.024055   0.420556  -0.024101   0.000000   0.000000   0.000000
    21  H   -0.036299  -0.024101   0.443508  -0.000000  -0.000000  -0.000000
    22  H   -0.000000   0.000000  -0.000000   0.340654  -0.010126   0.012107
    23  Cl  -0.000000   0.000000  -0.000000  -0.010126  17.601613  -0.273207
    24  C   -0.000000   0.000000  -0.000000   0.012107  -0.273207  14.134339
    25  H    0.000000  -0.000000   0.000000   0.000044  -0.000199  -0.013489
    26  H   -0.000000   0.000000  -0.000000   0.000004   0.000257   0.018946
    27  F   -0.000000   0.000000  -0.000000   0.000017   0.011611   0.207087
    28  F   -0.000000   0.000000  -0.000000  -0.000034  -0.014528   0.094517
    29  F   -0.000000  -0.000000  -0.000000  -0.000023  -0.014254   0.127276
              25         26         27         28         29
     1  C    0.037178   0.042265   0.019222   0.027087   0.012916
     2  N   -0.002245  -0.017687  -0.000186   0.000004   0.000019
     3  C    0.004204  -0.018743  -0.000897   0.000196  -0.000456
     4  O   -0.000012   0.000014   0.000002  -0.000002  -0.000004
     5  O   -0.000012  -0.000499   0.000000   0.000000   0.000000
     6  C    0.000058  -0.000984  -0.000011   0.000003  -0.000000
     7  C    0.000001  -0.000066   0.000000  -0.000000  -0.000000
     8  C    0.000000   0.000001  -0.000000   0.000000  -0.000000
     9  C   -0.007331  -0.000500  -0.005066   0.032008   0.009883
    10  C   -0.008204  -0.005668  -0.086257  -0.072986  -0.099893
    11  C    0.112758   0.020509  -0.168741   0.094001   0.113505
    12  C    0.292126  -0.036192   0.061782  -0.010836  -0.006367
    13  C   -0.099206   0.329179   0.110100  -0.011427  -0.004054
    14  H    0.000017   0.003761  -0.000001   0.000001   0.000002
    15  H   -0.000000  -0.000000   0.000000  -0.000000   0.000000
    16  H    0.000000  -0.000000   0.000000   0.000000  -0.000000
    17  H   -0.000000  -0.000000   0.000000  -0.000000   0.000000
    18  H   -0.000000  -0.000000  -0.000000   0.000000  -0.000000
    19  H    0.000000  -0.000000  -0.000000  -0.000000  -0.000000
    20  H   -0.000000   0.000000   0.000000   0.000000  -0.000000
    21  H    0.000000  -0.000000  -0.000000  -0.000000  -0.000000
    22  H    0.000044   0.000004   0.000017  -0.000034  -0.000023
    23  Cl  -0.000199   0.000257   0.011611  -0.014528  -0.014254
    24  C   -0.013489   0.018946   0.207087   0.094517   0.127276
    25  H    0.356572  -0.002893   0.008989   0.000176   0.000144
    26  H   -0.002893   0.366607   0.000041   0.000029   0.000030
    27  F    0.008989   0.000041   9.055046  -0.036546  -0.036113
    28  F    0.000176   0.000029  -0.036546   9.012993  -0.045666
    29  F    0.000144   0.000030  -0.036113  -0.045666   9.011818
 Mulliken charges:
               1
     1  C   -0.842684
     2  N   -0.480146
     3  C    0.159214
     4  O   -0.417814
     5  O   -0.085065
     6  C   -0.349127
     7  C   -0.159734
     8  C   -1.067983
     9  C   -0.214423
    10  C    0.987714
    11  C   -1.139840
    12  C   -0.289566
    13  C   -0.257219
    14  H    0.485015
    15  H    0.290344
    16  H    0.290437
    17  H    0.271176
    18  H    0.271038
    19  H    0.272314
    20  H    0.284164
    21  H    0.272478
    22  H    0.339099
    23  Cl   0.421911
    24  C    0.613621
    25  H    0.321323
    26  H    0.301589
    27  F   -0.140079
    28  F   -0.068992
    29  F   -0.068764
 Sum of Mulliken charges =  -0.00000
 Mulliken charges with hydrogens summed into heavy atoms:
               1
     1  C   -0.842684
     2  N    0.004869
     3  C    0.159214
     4  O   -0.417814
     5  O   -0.085065
     6  C    0.231654
     7  C    0.382480
     8  C   -0.239028
     9  C    0.124676
    10  C    0.987714
    11  C   -1.139840
    12  C    0.031757
    13  C    0.044370
    23  Cl   0.421911
    24  C    0.613621
    27  F   -0.140079
    28  F   -0.068992
    29  F   -0.068764
 Electronic spatial extent (au):  <R**2>=           8546.0016
 Charge=             -0.0000 electrons
 Dipole moment (field-independent basis, Debye):
    X=              6.9828    Y=             -5.7717    Z=             -0.1609  Tot=              9.0608
 Quadrupole moment (field-independent basis, Debye-Ang):
   XX=           -109.2951   YY=           -105.2245   ZZ=           -113.4624
   XY=             -0.9113   XZ=             -0.0761   YZ=             -0.2110
 Traceless Quadrupole moment (field-independent basis, Debye-Ang):
   XX=              0.0322   YY=              4.1028   ZZ=             -4.1350
   XY=             -0.9113   XZ=             -0.0761   YZ=             -0.2110
 Octapole moment (field-independent basis, Debye-Ang**2):
  XXX=            177.3352  YYY=            -33.2528  ZZZ=              0.8487  XYY=            -26.3410
  XXY=            -12.2714  XXZ=              0.1847  XZZ=             -6.7841  YZZ=              2.3954
  YYZ=             -0.7411  XYZ=             -0.6263
 Hexadecapole moment (field-independent basis, Debye-Ang**3):
 XXXX=          -9034.2142 YYYY=           -948.6465 ZZZZ=           -204.7869 XXXY=             -1.9049
 XXXZ=              0.8138 YYYX=            -15.8770 YYYZ=             -0.5330 ZZZX=             -1.2324
 ZZZY=             -0.0552 XXYY=          -1766.2809 XXZZ=          -1619.0969 YYZZ=           -213.9776
 XXYZ=             -2.4980 YYXZ=             -2.8322 ZZXY=             11.1780
 N-N= 1.438414665818D+03 E-N=-6.155843421401D+03  KE= 1.386736773512D+03
 D1PCM: PCM CHGder 1st derivatives, ID1Alg=3 FixD1E=F DoIter=F DoCFld=F I1PDM=0.
 Calling FoFJK, ICntrl=      2127 FMM=F ISym2X=0 I1Cent= 0 IOpClX= 0 NMat=1 NMatS=1 NMatT=0.
 ***** Axes restored to original set *****
 -------------------------------------------------------------------
 Center     Atomic                   Forces (Hartrees/Bohr)
 Number     Number              X              Y              Z
 -------------------------------------------------------------------
      1        6          -0.000000352   -0.000000932   -0.000000554
      2        7           0.000002019   -0.000001646    0.000002088
      3        6          -0.000000443    0.000002947   -0.000002325
      4        8           0.000000137   -0.000002581    0.000000761
      5        8          -0.000000368   -0.000000730    0.000004940
      6        6          -0.000003584    0.000000076   -0.000005122
      7        6          -0.000003778   -0.000001060    0.000001060
      8        6          -0.000000414   -0.000001206    0.000001004
      9        6           0.000001008   -0.000004129   -0.000000390
     10        6           0.000000690    0.000002645   -0.000001474
     11        6           0.000001311    0.000000843    0.000001055
     12        6          -0.000001178    0.000001994    0.000001800
     13        6           0.000000408    0.000001795   -0.000000177
     14        1           0.000000142    0.000001060    0.000001688
     15        1          -0.000000185   -0.000001056   -0.000000976
     16        1           0.000001170   -0.000001527   -0.000001172
     17        1          -0.000000529   -0.000001999    0.000001271
     18        1           0.000000499   -0.000001209    0.000002016
     19        1           0.000000075   -0.000003021   -0.000000945
     20        1          -0.000000844   -0.000002578    0.000000687
     21        1           0.000000190   -0.000001392   -0.000000621
     22        1           0.000001566    0.000001773   -0.000002883
     23       17           0.000001351    0.000000901   -0.000003920
     24        6          -0.000005238    0.000000975   -0.000003111
     25        1           0.000000114    0.000001629    0.000002647
     26        1          -0.000001078    0.000001524    0.000002599
     27        9           0.000004750    0.000011769   -0.000000017
     28        9           0.000000793   -0.000002674   -0.000007801
     29        9           0.000001766   -0.000002191    0.000007871
 -------------------------------------------------------------------
 Cartesian Forces:  Max     0.000011769 RMS     0.000002611

 GradGradGradGradGradGradGradGradGradGradGradGradGradGradGradGradGradGrad
 Berny optimization.
 FormGI is forming the generalized inverse of G from B-inverse, IUseBI=4.
 Internal  Forces:  Max     0.000010299 RMS     0.000002113
 Search for a local minimum.
 Step number   1 out of a maximum of  149
 All quantities printed in internal units (Hartrees-Bohrs-Radians)
 Mixed Optimization -- En-DIIS/RFO-DIIS
 Second derivative matrix not updated -- first step.
 ITU=  0
     Eigenvalues ---    0.00437   0.00613   0.00785   0.01109   0.01606
     Eigenvalues ---    0.01747   0.01952   0.02004   0.02123   0.02154
     Eigenvalues ---    0.02181   0.02191   0.02218   0.02224   0.02242
     Eigenvalues ---    0.02265   0.02274   0.02526   0.03894   0.05010
     Eigenvalues ---    0.05445   0.05549   0.05577   0.05747   0.08031
     Eigenvalues ---    0.10581   0.10708   0.11242   0.11949   0.13582
     Eigenvalues ---    0.15995   0.16000   0.16000   0.16000   0.16000
     Eigenvalues ---    0.16000   0.16000   0.21889   0.21984   0.22002
     Eigenvalues ---    0.22371   0.23490   0.24614   0.24999   0.25000
     Eigenvalues ---    0.25000   0.25000   0.25000   0.25000   0.25000
     Eigenvalues ---    0.25000   0.25000   0.29904   0.30997   0.31197
     Eigenvalues ---    0.32526   0.34425   0.34425   0.34478   0.34478
     Eigenvalues ---    0.34594   0.34595   0.34680   0.35518   0.35689
     Eigenvalues ---    0.36175   0.39039   0.42350   0.42936   0.45399
     Eigenvalues ---    0.46165   0.46307   0.46324   0.47250   0.48509
     Eigenvalues ---    0.51934   0.55947   0.55962   0.57258   0.57897
     Eigenvalues ---    0.97946
 RFO step:  Lambda= 0.00000000D+00 EMin= 4.37220184D-03
 Linear search not attempted -- first point.
 Iteration  1 RMS(Cart)=  0.00009569 RMS(Int)=  0.00000000
 Iteration  2 RMS(Cart)=  0.00000001 RMS(Int)=  0.00000000
 Variable       Old X    -DE/DX   Delta X   Delta X   Delta X     New X
                                 (Linear)    (Quad)   (Total)
    R1        2.63768  -0.00000   0.00000  -0.00001  -0.00001   2.63767
    R2        2.64231  -0.00000   0.00000  -0.00001  -0.00001   2.64231
    R3        2.64514  -0.00000   0.00000  -0.00000  -0.00000   2.64514
    R4        2.57962  -0.00000   0.00000  -0.00001  -0.00001   2.57961
    R5        1.91515  -0.00000   0.00000  -0.00000  -0.00000   1.91515
    R6        2.29473  -0.00000   0.00000  -0.00000  -0.00000   2.29472
    R7        2.52644  -0.00000   0.00000  -0.00001  -0.00001   2.52644
    R8        2.72881  -0.00000   0.00000  -0.00001  -0.00001   2.72880
    R9        2.85638  -0.00000   0.00000  -0.00000  -0.00000   2.85637
   R10        2.06338  -0.00000   0.00000  -0.00000  -0.00000   2.06338
   R11        2.06339   0.00000   0.00000   0.00000   0.00000   2.06339
   R12        2.88155  -0.00000   0.00000  -0.00000  -0.00000   2.88155
   R13        2.06619  -0.00000   0.00000  -0.00000  -0.00000   2.06619
   R14        2.06618   0.00000   0.00000   0.00000   0.00000   2.06618
   R15        2.06532   0.00000   0.00000   0.00000   0.00000   2.06532
   R16        2.06198   0.00000   0.00000   0.00000   0.00000   2.06198
   R17        2.06531  -0.00000   0.00000  -0.00000  -0.00000   2.06531
   R18        2.61895  -0.00000   0.00000  -0.00000  -0.00000   2.61895
   R19        2.03809   0.00000   0.00000   0.00001   0.00001   2.03810
   R20        2.63283  -0.00000   0.00000  -0.00000  -0.00000   2.63283
   R21        3.29718  -0.00000   0.00000  -0.00000  -0.00000   3.29718
   R22        2.63394  -0.00000   0.00000   0.00000   0.00000   2.63394
   R23        2.83192  -0.00000   0.00000  -0.00000  -0.00000   2.83192
   R24        2.61068   0.00000   0.00000   0.00000   0.00000   2.61068
   R25        2.04571  -0.00000   0.00000  -0.00000  -0.00000   2.04571
   R26        2.04842  -0.00000   0.00000  -0.00000  -0.00000   2.04842
   R27        2.53179  -0.00001   0.00000  -0.00002  -0.00002   2.53177
   R28        2.54300  -0.00001   0.00000  -0.00002  -0.00002   2.54298
   R29        2.54287  -0.00001   0.00000  -0.00002  -0.00002   2.54285
    A1        2.15539  -0.00001   0.00000  -0.00003  -0.00003   2.15536
    A2        2.04199   0.00001   0.00000   0.00002   0.00002   2.04201
    A3        2.08579   0.00000   0.00000   0.00000   0.00000   2.08580
    A4        2.23103  -0.00001   0.00000  -0.00003  -0.00003   2.23100
    A5        2.03276   0.00000   0.00000   0.00002   0.00002   2.03278
    A6        2.01877   0.00000   0.00000   0.00001   0.00001   2.01878
    A7        2.19922   0.00000   0.00000   0.00000   0.00000   2.19923
    A8        1.91605  -0.00000   0.00000  -0.00001  -0.00001   1.91605
    A9        2.16791   0.00000   0.00000   0.00000   0.00000   2.16791
   A10        2.02529  -0.00000   0.00000  -0.00001  -0.00001   2.02528
   A11        1.87831  -0.00000   0.00000  -0.00002  -0.00002   1.87829
   A12        1.89470   0.00000   0.00000  -0.00001  -0.00001   1.89469
   A13        1.89507   0.00000   0.00000   0.00002   0.00002   1.89509
   A14        1.94708   0.00000   0.00000  -0.00000  -0.00000   1.94708
   A15        1.94650   0.00000   0.00000   0.00001   0.00001   1.94650
   A16        1.90075  -0.00000   0.00000   0.00000   0.00000   1.90076
   A17        1.92665   0.00000   0.00000   0.00000   0.00000   1.92666
   A18        1.90495  -0.00000   0.00000  -0.00000  -0.00000   1.90495
   A19        1.90514   0.00000   0.00000   0.00001   0.00001   1.90515
   A20        1.92533   0.00000   0.00000  -0.00000  -0.00000   1.92533
   A21        1.92525  -0.00000   0.00000  -0.00001  -0.00001   1.92524
   A22        1.87563   0.00000   0.00000   0.00000   0.00000   1.87563
   A23        1.93927   0.00000   0.00000   0.00000   0.00000   1.93927
   A24        1.93551  -0.00000   0.00000  -0.00001  -0.00001   1.93550
   A25        1.93946   0.00000   0.00000   0.00000   0.00000   1.93947
   A26        1.88220   0.00000   0.00000  -0.00000  -0.00000   1.88220
   A27        1.88288   0.00000   0.00000   0.00000   0.00000   1.88289
   A28        1.88212   0.00000   0.00000  -0.00000  -0.00000   1.88212
   A29        2.07765   0.00000   0.00000   0.00000   0.00000   2.07765
   A30        2.11756   0.00000   0.00000   0.00000   0.00000   2.11757
   A31        2.08797  -0.00000   0.00000  -0.00001  -0.00001   2.08796
   A32        2.12987  -0.00000   0.00000  -0.00000  -0.00000   2.12987
   A33        2.04607   0.00000   0.00000   0.00000   0.00000   2.04607
   A34        2.10724   0.00000   0.00000   0.00000   0.00000   2.10724
   A35        2.06300   0.00000   0.00000   0.00000   0.00000   2.06300
   A36        2.12550  -0.00000   0.00000  -0.00001  -0.00001   2.12549
   A37        2.09469   0.00000   0.00000   0.00000   0.00000   2.09469
   A38        2.10879  -0.00000   0.00000  -0.00000  -0.00000   2.10879
   A39        2.09091   0.00000   0.00000   0.00000   0.00000   2.09091
   A40        2.08349  -0.00000   0.00000  -0.00000  -0.00000   2.08348
   A41        2.10126  -0.00000   0.00000  -0.00000  -0.00000   2.10126
   A42        2.08789   0.00000   0.00000   0.00000   0.00000   2.08790
   A43        2.09403   0.00000   0.00000  -0.00000  -0.00000   2.09403
   A44        1.95280   0.00000   0.00000   0.00002   0.00002   1.95282
   A45        1.96482   0.00000   0.00000   0.00000   0.00000   1.96482
   A46        1.96525   0.00000   0.00000   0.00001   0.00001   1.96526
   A47        1.85854  -0.00000   0.00000  -0.00001  -0.00001   1.85852
   A48        1.85872  -0.00000   0.00000  -0.00000  -0.00000   1.85872
   A49        1.85593  -0.00000   0.00000  -0.00001  -0.00001   1.85592
    D1        0.07469   0.00000   0.00000   0.00000   0.00000   0.07470
    D2       -3.10674   0.00000   0.00000   0.00003   0.00003  -3.10671
    D3       -3.07316   0.00000   0.00000   0.00000   0.00000  -3.07315
    D4        0.02859   0.00000   0.00000   0.00003   0.00003   0.02863
    D5        3.13916   0.00000   0.00000   0.00002   0.00002   3.13918
    D6       -0.00051   0.00000   0.00000   0.00003   0.00003  -0.00048
    D7        0.00398   0.00000   0.00000   0.00002   0.00002   0.00399
    D8       -3.13570   0.00000   0.00000   0.00003   0.00003  -3.13567
    D9       -3.13867  -0.00000   0.00000  -0.00002  -0.00002  -3.13870
   D10        0.00396   0.00000   0.00000  -0.00000  -0.00000   0.00396
   D11       -0.00308  -0.00000   0.00000  -0.00002  -0.00002  -0.00310
   D12        3.13956  -0.00000   0.00000  -0.00000  -0.00000   3.13956
   D13       -0.01433   0.00000   0.00000   0.00005   0.00005  -0.01428
   D14        3.12650   0.00000   0.00000   0.00006   0.00006   3.12656
   D15       -3.11636   0.00000   0.00000   0.00002   0.00002  -3.11633
   D16        0.02447   0.00000   0.00000   0.00003   0.00003   0.02451
   D17       -3.13678  -0.00000   0.00000  -0.00011  -0.00011  -3.13689
   D18        0.00407  -0.00000   0.00000  -0.00010  -0.00010   0.00397
   D19       -3.14050  -0.00000   0.00000  -0.00002  -0.00002  -3.14051
   D20        1.03284   0.00000   0.00000   0.00000   0.00000   1.03284
   D21       -1.03113  -0.00000   0.00000  -0.00001  -0.00001  -1.03114
   D22        3.14051   0.00000   0.00000   0.00005   0.00005   3.14055
   D23        1.02160   0.00000   0.00000   0.00005   0.00005   1.02165
   D24       -1.02374   0.00000   0.00000   0.00004   0.00004  -1.02370
   D25       -1.06604  -0.00000   0.00000   0.00002   0.00002  -1.06602
   D26        3.09823  -0.00000   0.00000   0.00002   0.00002   3.09826
   D27        1.05289  -0.00000   0.00000   0.00002   0.00002   1.05291
   D28        1.06376   0.00000   0.00000   0.00003   0.00003   1.06379
   D29       -1.05515   0.00000   0.00000   0.00003   0.00003  -1.05512
   D30       -3.10049  -0.00000   0.00000   0.00002   0.00002  -3.10047
   D31       -1.04888   0.00000   0.00000   0.00000   0.00000  -1.04888
   D32        3.14108   0.00000   0.00000   0.00001   0.00001   3.14109
   D33        1.04784   0.00000   0.00000   0.00001   0.00001   1.04785
   D34        1.05789  -0.00000   0.00000   0.00000   0.00000   1.05789
   D35       -1.03534   0.00000   0.00000   0.00001   0.00001  -1.03533
   D36       -3.12858   0.00000   0.00000   0.00001   0.00001  -3.12857
   D37        3.12735  -0.00000   0.00000  -0.00000  -0.00000   3.12734
   D38        1.03412  -0.00000   0.00000   0.00000   0.00000   1.03413
   D39       -1.05912  -0.00000   0.00000   0.00001   0.00001  -1.05911
   D40       -0.00163   0.00000   0.00000   0.00000   0.00000  -0.00163
   D41       -3.14109   0.00000   0.00000   0.00003   0.00003  -3.14107
   D42        3.13807  -0.00000   0.00000  -0.00001  -0.00001   3.13806
   D43       -0.00138   0.00000   0.00000   0.00001   0.00001  -0.00137
   D44       -0.00165  -0.00000   0.00000  -0.00001  -0.00001  -0.00166
   D45        3.14053   0.00000   0.00000   0.00000   0.00000   3.14054
   D46        3.13774  -0.00000   0.00000  -0.00004  -0.00004   3.13770
   D47       -0.00327  -0.00000   0.00000  -0.00002  -0.00002  -0.00329
   D48        0.00259   0.00000   0.00000   0.00000   0.00000   0.00260
   D49       -3.14009  -0.00000   0.00000  -0.00001  -0.00001  -3.14010
   D50       -3.13957  -0.00000   0.00000  -0.00001  -0.00001  -3.13958
   D51        0.00093  -0.00000   0.00000  -0.00002  -0.00002   0.00091
   D52       -3.13811  -0.00000   0.00000  -0.00013  -0.00013  -3.13825
   D53       -1.04575  -0.00000   0.00000  -0.00014  -0.00014  -1.04589
   D54        1.05216  -0.00000   0.00000  -0.00015  -0.00015   1.05202
   D55        0.00407  -0.00000   0.00000  -0.00012  -0.00012   0.00396
   D56        2.09644  -0.00000   0.00000  -0.00012  -0.00012   2.09632
   D57       -2.08883  -0.00000   0.00000  -0.00013  -0.00013  -2.08896
   D58       -0.00026   0.00000   0.00000   0.00001   0.00001  -0.00025
   D59        3.14029  -0.00000   0.00000  -0.00001  -0.00001   3.14028
   D60       -3.14076   0.00000   0.00000   0.00002   0.00002  -3.14074
   D61       -0.00022   0.00000   0.00000  -0.00000  -0.00000  -0.00022
         Item               Value     Threshold  Converged?
 Maximum Force            0.000010     0.000450     YES
 RMS     Force            0.000002     0.000300     YES
 Maximum Displacement     0.000413     0.001800     YES
 RMS     Displacement     0.000096     0.001200     YES
 Predicted change in Energy=-1.802997D-09
 Optimization completed.
    -- Stationary point found.
                           ----------------------------
                           !   Optimized Parameters   !
                           ! (Angstroms and Degrees)  !
 --------------------------                            --------------------------
 ! Name  Definition              Value          Derivative Info.                !
 --------------------------------------------------------------------------------
 ! R1    R(1,2)                  1.3958         -DE/DX =    0.0                 !
 ! R2    R(1,9)                  1.3983         -DE/DX =    0.0                 !
 ! R3    R(1,13)                 1.3997         -DE/DX =    0.0                 !
 ! R4    R(2,3)                  1.3651         -DE/DX =    0.0                 !
 ! R5    R(2,14)                 1.0135         -DE/DX =    0.0                 !
 ! R6    R(3,4)                  1.2143         -DE/DX =    0.0                 !
 ! R7    R(3,5)                  1.3369         -DE/DX =    0.0                 !
 ! R8    R(5,6)                  1.444          -DE/DX =    0.0                 !
 ! R9    R(6,7)                  1.5115         -DE/DX =    0.0                 !
 ! R10   R(6,15)                 1.0919         -DE/DX =    0.0                 !
 ! R11   R(6,16)                 1.0919         -DE/DX =    0.0                 !
 ! R12   R(7,8)                  1.5249         -DE/DX =    0.0                 !
 ! R13   R(7,17)                 1.0934         -DE/DX =    0.0                 !
 ! R14   R(7,18)                 1.0934         -DE/DX =    0.0                 !
 ! R15   R(8,19)                 1.0929         -DE/DX =    0.0                 !
 ! R16   R(8,20)                 1.0912         -DE/DX =    0.0                 !
 ! R17   R(8,21)                 1.0929         -DE/DX =    0.0                 !
 ! R18   R(9,10)                 1.3859         -DE/DX =    0.0                 !
 ! R19   R(9,22)                 1.0785         -DE/DX =    0.0                 !
 ! R20   R(10,11)                1.3932         -DE/DX =    0.0                 !
 ! R21   R(10,23)                1.7448         -DE/DX =    0.0                 !
 ! R22   R(11,12)                1.3938         -DE/DX =    0.0                 !
 ! R23   R(11,24)                1.4986         -DE/DX =    0.0                 !
 ! R24   R(12,13)                1.3815         -DE/DX =    0.0                 !
 ! R25   R(12,25)                1.0825         -DE/DX =    0.0                 !
 ! R26   R(13,26)                1.084          -DE/DX =    0.0                 !
 ! R27   R(24,27)                1.3398         -DE/DX =    0.0                 !
 ! R28   R(24,28)                1.3457         -DE/DX =    0.0                 !
 ! R29   R(24,29)                1.3456         -DE/DX =    0.0                 !
 ! A1    A(2,1,9)              123.4946         -DE/DX =    0.0                 !
 ! A2    A(2,1,13)             116.9973         -DE/DX =    0.0                 !
 ! A3    A(9,1,13)             119.5072         -DE/DX =    0.0                 !
 ! A4    A(1,2,3)              127.8287         -DE/DX =    0.0                 !
 ! A5    A(1,2,14)             116.4688         -DE/DX =    0.0                 !
 ! A6    A(3,2,14)             115.6669         -DE/DX =    0.0                 !
 ! A7    A(2,3,4)              126.0062         -DE/DX =    0.0                 !
 ! A8    A(2,3,5)              109.7819         -DE/DX =    0.0                 !
 ! A9    A(4,3,5)              124.2119         -DE/DX =    0.0                 !
 ! A10   A(3,5,6)              116.0406         -DE/DX =    0.0                 !
 ! A11   A(5,6,7)              107.6192         -DE/DX =    0.0                 !
 ! A12   A(5,6,15)             108.5584         -DE/DX =    0.0                 !
 ! A13   A(5,6,16)             108.5797         -DE/DX =    0.0                 !
 ! A14   A(7,6,15)             111.5595         -DE/DX =    0.0                 !
 ! A15   A(7,6,16)             111.5261         -DE/DX =    0.0                 !
 ! A16   A(15,6,16)            108.9052         -DE/DX =    0.0                 !
 ! A17   A(6,7,8)              110.3891         -DE/DX =    0.0                 !
 ! A18   A(6,7,17)             109.1454         -DE/DX =    0.0                 !
 ! A19   A(6,7,18)             109.1563         -DE/DX =    0.0                 !
 ! A20   A(8,7,17)             110.3133         -DE/DX =    0.0                 !
 ! A21   A(8,7,18)             110.3089         -DE/DX =    0.0                 !
 ! A22   A(17,7,18)            107.4658         -DE/DX =    0.0                 !
 ! A23   A(7,8,19)             111.112          -DE/DX =    0.0                 !
 ! A24   A(7,8,20)             110.8965         -DE/DX =    0.0                 !
 ! A25   A(7,8,21)             111.1231         -DE/DX =    0.0                 !
 ! A26   A(19,8,20)            107.8424         -DE/DX =    0.0                 !
 ! A27   A(19,8,21)            107.8813         -DE/DX =    0.0                 !
 ! A28   A(20,8,21)            107.8375         -DE/DX =    0.0                 !
 ! A29   A(1,9,10)             119.0406         -DE/DX =    0.0                 !
 ! A30   A(1,9,22)             121.3275         -DE/DX =    0.0                 !
 ! A31   A(10,9,22)            119.6318         -DE/DX =    0.0                 !
 ! A32   A(9,10,11)            122.0326         -DE/DX =    0.0                 !
 ! A33   A(9,10,23)            117.2313         -DE/DX =    0.0                 !
 ! A34   A(11,10,23)           120.736          -DE/DX =    0.0                 !
 ! A35   A(10,11,12)           118.2011         -DE/DX =    0.0                 !
 ! A36   A(10,11,24)           121.782          -DE/DX =    0.0                 !
 ! A37   A(12,11,24)           120.0169         -DE/DX =    0.0                 !
 ! A38   A(11,12,13)           120.8247         -DE/DX =    0.0                 !
 ! A39   A(11,12,25)           119.8002         -DE/DX =    0.0                 !
 ! A40   A(13,12,25)           119.375          -DE/DX =    0.0                 !
 ! A41   A(1,13,12)            120.3933         -DE/DX =    0.0                 !
 ! A42   A(1,13,26)            119.6276         -DE/DX =    0.0                 !
 ! A43   A(12,13,26)           119.9791         -DE/DX =    0.0                 !
 ! A44   A(11,24,27)           111.8874         -DE/DX =    0.0                 !
 ! A45   A(11,24,28)           112.5757         -DE/DX =    0.0                 !
 ! A46   A(11,24,29)           112.6006         -DE/DX =    0.0                 !
 ! A47   A(27,24,28)           106.4863         -DE/DX =    0.0                 !
 ! A48   A(27,24,29)           106.4968         -DE/DX =    0.0                 !
 ! A49   A(28,24,29)           106.3372         -DE/DX =    0.0                 !
 ! D1    D(9,1,2,3)              4.2796         -DE/DX =    0.0                 !
 ! D2    D(9,1,2,14)          -178.0032         -DE/DX =    0.0                 !
 ! D3    D(13,1,2,3)          -176.0789         -DE/DX =    0.0                 !
 ! D4    D(13,1,2,14)            1.6383         -DE/DX =    0.0                 !
 ! D5    D(2,1,9,10)           179.8607         -DE/DX =    0.0                 !
 ! D6    D(2,1,9,22)            -0.0294         -DE/DX =    0.0                 !
 ! D7    D(13,1,9,10)            0.2278         -DE/DX =    0.0                 !
[...]
 00101,-0.00000005,0.00000161,-0.00000084,-0.00000016,-0.00000072,0.000
 00066,-0.00000495,-0.00000113,-0.00000005,-0.00000006,-0.00000075,-0.0
 0000074,0.00054139,0.00174909,-0.00022923,0.05218242,0.00202024,0.0068
 9768,-0.00017558,0.00177260,-0.00182114,0.00013665,-0.00253986,-0.0012
 9368,-0.00001285,0.00072861,0.00078128,0.00000839,0.00122506,-0.000248
 69,0.00001232,-0.00029589,-0.00014820,-0.00000171,0.00004133,0.0000648
 7,0.00000103,0.00000919,-0.00003828,0.00000015,0.01155089,-0.03504940,
 0.00236270,0.01972246,-0.16513913,0.00910366,0.00701461,-0.03569002,0.
 00245330,-0.00603933,-0.00060338,0.00049712,-0.00083684,-0.00288117,0.
 00010823,0.00036112,0.00024786,0.00000267,0.00005264,0.00001959,0.0000
 0476,0.00005247,0.00001932,-0.00000348,-0.00000054,-0.00000599,-0.0000
 0158,-0.00000046,-0.00000585,0.00000137,0.00000095,0.00000217,-0.00000
 193,0.00001681,0.00000414,0.00000014,0.00000089,0.00000212,0.00000190,
 -0.00119797,0.00117865,-0.00023295,-0.03453568,0.23691540,0.00012759,-
 0.00009901,0.00577535,-0.00016740,0.00010672,-0.00006083,0.00017998,0.
 00009388,0.00005890,-0.00006669,-0.00005036,0.00003644,-0.00009018,0.0
 0002273,-0.00002226,0.00002118,0.00001216,0.00000688,-0.00000279,-0.00
 000457,0.00000059,-0.00000055,0.00000275,0.00000073,-0.00063235,0.0018
 9579,0.00404914,-0.00073482,0.00908808,-0.02366873,-0.00065776,0.00287
 583,0.00333254,0.00057944,0.00032812,0.00412730,0.00000678,0.00010667,
 -0.00107490,-0.00002252,-0.00002626,-0.00017166,-0.00000359,-0.0000020
 7,0.00000013,-0.00000282,-0.00000164,0.00000060,-0.00000082,0.00000094
 ,0.00000002,0.00000057,0.00000006,-0.00000010,-0.00000028,-0.00000022,
 -0.00000019,-0.00000123,-0.00000031,-0.00000016,0.00000008,-0.00000019
 ,-0.00000042,0.00001126,-0.00031002,-0.00281193,0.00138792,-0.01416133
 ,0.01352930,-0.01110258,0.00427229,-0.00002959,0.01582255,-0.00126350,
 -0.00007288,-0.01025252,-0.00677541,0.00018175,0.00184296,0.00409407,-
 0.00004617,0.00427839,-0.00116058,0.00003414,-0.00102826,-0.00042107,-
 0.00001371,0.00011696,0.00022127,0.00000244,0.00002927,-0.00012405,-0.
 00000036,0.00616668,-0.00704284,0.00036448,-0.03028259,-0.00878283,0.0
 0115654,-0.20390954,0.03850634,0.00089098,-0.00760287,0.02001281,-0.00
 094146,0.00965703,-0.00111110,0.00019155,0.00023618,0.00095567,-0.0001
 1978,0.00020505,0.00005437,0.00001067,0.00020541,0.00005093,-0.0000052
 6,-0.00000146,-0.00002168,-0.00000945,-0.00000119,-0.00002138,0.000009
 17,0.00000243,0.00000688,-0.00000413,0.00005727,0.00001186,0.00000060,
 0.00000255,0.00000691,0.00000435,0.00010446,0.00006113,0.00000116,-0.0
 0159491,0.00594967,-0.00043285,0.59477582,0.00242013,-0.00527056,0.000
 19631,-0.00527236,0.00061571,-0.00004686,0.00345481,0.00218690,-0.0000
 5446,-0.00073575,-0.00125218,-0.00000818,-0.00147383,0.00042205,-0.000
 00557,0.00035366,0.00014481,0.00000223,-0.00004061,-0.00007416,-0.0000
 0133,-0.00001100,0.00004285,-0.00000021,-0.00787568,-0.00042085,0.0006
 0541,-0.01585274,0.02106227,-0.00117625,0.02890130,-0.10347120,0.00181
 603,0.03035058,-0.00517210,-0.00020306,-0.00128331,-0.00634068,0.00080
 398,-0.00014803,-0.00030735,0.00005088,-0.00006976,-0.00001919,-0.0000
 0529,-0.00006973,-0.00001830,0.00000279,0.00000139,0.00000687,0.000002
 09,0.00000124,0.00000709,-0.00000206,-0.00000153,-0.00000265,0.0000021
 3,-0.00001937,-0.00000432,-0.00000008,-0.00000164,-0.00000279,-0.00000
 227,-0.00105238,0.00068563,0.00006431,0.00146631,-0.00370142,-0.000085
 03,-0.01467488,0.51344749,-0.00001636,0.00021158,-0.00110974,0.0000394
 3,-0.00003958,-0.00079343,-0.00003260,0.00000644,-0.00004086,0.0000533
 0,-0.00001105,-0.00005874,0.00000209,-0.00000621,0.00012041,-0.0000029
 9,0.00000175,-0.00000311,-0.00000051,0.00000087,-0.00000312,-0.0000002
 8,0.00000016,0.00000099,0.00057930,0.00048597,0.00535864,0.00146600,-0
 .00134972,-0.00301258,0.00172253,0.00172411,-0.06278207,-0.00169725,-0
 .00008421,0.00171067,0.00001007,0.00087579,0.00667116,0.00000517,0.000
 00053,0.00010701,0.00000714,-0.00000500,-0.00000695,-0.00000519,0.0000
 0534,-0.00000614,-0.00000043,-0.00000229,-0.00000086,-0.00000026,0.000
 00258,-0.00000089,0.00000139,0.00000174,-0.00000082,0.00000003,-0.0000
 0004,0.00000146,-0.00000146,-0.00000098,-0.00000078,0.00007028,0.00002
 303,0.00103260,-0.00013735,-0.00015008,-0.00298309,-0.00279827,-0.0032
 0916,0.46296543,-0.00316205,0.00242934,0.00006838,-0.00130970,-0.00119
 309,0.00004993,0.00041520,0.00066441,0.00002053,-0.00008479,-0.0002758
 9,0.00000177,-0.00040641,-0.00001244,-0.00000887,0.00007609,0.00006439
 ,-0.00000039,-0.00001766,-0.00002526,-0.00000029,-0.00000320,0.0000138
 6,-0.00000006,-0.00036627,0.00080509,-0.00007223,0.00030358,0.00160086
 ,0.00002375,0.00960135,0.00494183,-0.00042552,-0.21908814,-0.14714895,
 0.01336061,-0.01618499,-0.01977197,0.00173730,0.00004541,-0.00009603,-
 0.00000435,-0.00001444,-0.00000645,-0.00000169,-0.00001368,-0.00000611
 ,0.00000149,0.00000040,0.00000184,0.00000125,0.00000036,0.00000185,-0.
 00000128,-0.00000010,-0.00000070,0.00000051,-0.00000589,-0.00000142,-0
 .00000005,-0.00000002,-0.00000071,-0.00000054,0.00002378,-0.00010216,-
 0.00000372,0.00029968,0.00092742,-0.00006422,-0.00073024,0.00021735,-0
 .00008296,0.23147557,0.00307898,-0.00000137,0.00041716,0.00028776,0.00
 063110,-0.00003237,0.00009766,-0.00014548,-0.00003155,-0.00000745,0.00
 001961,0.00000231,0.00010986,0.00003487,0.00000460,-0.00000912,-0.0000
 2378,0.00000210,0.00000600,0.00000685,0.00000028,0.00000149,-0.0000040
 8,0.00000002,0.00063489,-0.00016671,-0.00007309,0.00246486,-0.00312228
 ,0.00051220,-0.02172847,-0.01479152,0.00168259,-0.14623391,-0.19254112
 ,0.01279266,0.00948734,0.01149317,-0.00064327,-0.00004120,0.00000475,0
 .00001022,0.00000231,0.00000184,0.00000055,0.00000142,0.00000190,-0.00
 000071,-0.00000019,-0.00000017,-0.00000017,-0.00000019,-0.00000012,0.0
 0000012,0.,0.00000012,-0.00000006,0.00000155,0.00000054,0.,-0.00000005
 ,0.00000009,0.00000006,-0.00007502,0.00006074,-0.00002776,-0.00066860,
 -0.00154216,0.00013784,-0.00231976,-0.00200016,-0.00002419,0.15426473,
 0.19923229,0.00001682,0.00047777,0.00761900,0.00003013,-0.00001774,-0.
 00008784,-0.00002524,-0.00000471,-0.00025820,0.00001257,0.00000631,0.0
 0004324,0.00000340,-0.00000432,0.00000079,-0.00000179,0.00000088,0.000
 01417,-0.00000011,0.00000028,0.00000298,0.00000009,-0.00000022,0.00000
 021,-0.00001678,-0.00012351,-0.00114053,-0.00003520,0.00054510,0.00575
 465,0.00128327,0.00109347,0.00433673,0.01329027,0.01281191,-0.04069225
 ,-0.00018821,0.00003982,0.00489715,0.00000266,0.00000321,0.00005335,0.
 00000395,-0.00000073,-0.00000080,-0.00000322,0.00000070,-0.00000072,0.
 00000014,-0.00000026,-0.00000019,-0.00000007,0.00000007,-0.00000016,0.
 00000024,0.00000013,-0.00000008,0.00000007,-0.00000003,-0.00000014,-0.
 00000021,-0.00000014,-0.00000009,-0.00000311,-0.00003110,-0.00044061,0
 .00003855,0.00008622,0.00031382,0.00003721,-0.00013445,-0.00363856,-0.
 01422797,-0.01424930,0.02802484,0.00656994,-0.02312018,0.00143217,0.00
 219458,-0.00118975,0.00004939,-0.00019643,-0.00034282,-0.00001743,-0.0
 0001771,0.00026062,0.00000183,0.00016798,0.00001254,0.00000766,-0.0000
 3737,-0.00002621,-0.00000071,0.00000779,0.00001098,0.00000037,0.000001
 52,-0.00000579,0.00000007,-0.00342144,-0.00275205,0.00035853,-0.001385
 35,-0.00047507,0.00004885,-0.00495808,0.00135659,0.00015957,-0.0020055
 4,0.02992818,-0.00180013,-0.07009911,0.05628542,-0.00294758,-0.0024619
 9,-0.00021001,0.00022846,0.00000830,0.00000314,0.00000203,0.00000756,0
 .00000338,-0.00000210,-0.00000041,-0.00000088,-0.00000005,-0.00000035,
 -0.00000074,0.,0.00000029,0.00000046,-0.00000044,0.00000256,0.00000051
 ,0.,0.00000025,0.00000038,0.00000044,0.00047102,-0.00105227,0.00005512
 ,0.00017082,0.00018129,-0.00002641,0.00128387,0.00095116,-0.00007840,0
 .00129230,-0.00043214,-0.00009541,0.07365332,0.00626227,-0.01461895,0.
 00107962,0.00186128,0.00109008,-0.00020540,-0.00028512,0.00007224,-0.0
 0008555,0.00008545,0.00030049,0.00001603,-0.00001891,-0.00002891,0.000
 00935,-0.00000244,0.00000586,0.00000429,-0.00000130,-0.00000270,0.0000
 0048,-0.00000013,0.00000088,0.,-0.00316131,-0.00106290,0.00046847,-0.0
 0083809,0.00059274,-0.00006713,0.00123417,0.00169321,0.00030623,0.0001
 3361,-0.00372274,0.00042908,0.05499247,-0.33789804,0.01816503,-0.00092
 690,0.00004393,-0.00004015,0.00000347,-0.00000037,-0.00000038,0.000000
 74,0.,-0.00000060,-0.00000012,0.00000085,0.00000064,-0.00000012,0.0000
 0101,-0.00000099,0.00000023,-0.00000002,0.00000003,-0.00000016,0.00000
 012,-0.00000003,0.00000010,-0.00000010,-0.00000009,0.00053948,-0.00061
 231,0.00001475,0.00008227,-0.00015286,-0.00002306,-0.00068598,0.000067
 99,0.00003485,0.00000992,0.00058256,-0.00034080,-0.05980884,0.35387969
 ,-0.00025745,0.00166282,0.00424858,-0.00004762,0.00005475,-0.00286730,
 -0.00007154,-0.00006620,-0.00083341,-0.00001489,0.00001254,0.00022027,
 0.00001225,-0.00001374,0.00008353,-0.00000475,0.00000147,0.00007923,-0
 .00000037,0.00000018,0.00000273,-0.00000005,0.00000015,-0.00000208,0.0
 0035449,0.00043849,0.00536394,0.00003146,-0.00007525,-0.00083449,0.000
 19131,0.00032881,0.00693645,0.00012386,-0.00019967,0.00316563,-0.00294
 816,0.01820819,-0.03761426,0.00015924,-0.00027168,0.00015562,0.0000146
 9,-0.00000025,-0.00000490,-0.00001340,0.00000064,-0.00000501,0.0000004
 8,-0.00000127,-0.00000099,-0.00000035,0.00000084,-0.00000071,0.0000005
 2,0.00000057,-0.00000033,0.00000007,-0.00000004,-0.00000028,-0.0000005
 2,-0.00000061,-0.00000040,-0.00002677,0.00003975,-0.00018601,-0.000017
 31,-0.00002959,-0.00053123,0.00001927,-0.00000120,0.00033347,-0.000121
 50,-0.00032677,-0.00467031,0.00261589,-0.01978737,0.02668096,0.0022447
 2,-0.00146676,0.00003720,-0.00336144,0.00030543,0.00001244,0.00233889,
 0.00135979,-0.00002853,-0.00064291,-0.00079956,-0.00000992,-0.00104929
 ,0.00030605,-0.00000905,0.00025416,0.00011038,0.00000219,-0.00002936,-
 0.00005334,-0.00000078,-0.00000779,0.00003073,0.00000020,-0.00286483,-
 0.00180330,0.00020493,-0.00440991,0.00967543,-0.00046201,-0.03719702,-
 0.04120415,0.00402377,-0.00095988,-0.00203119,0.00009498,-0.00120250,-
 0.00068168,0.00003235,-0.00007071,-0.00021824,0.00002141,-0.00004806,-
 0.00001431,-0.00000224,-0.00004818,-0.00001326,0.00000087,0.00000018,0
 .00000559,0.00000239,0.00000006,0.00000558,-0.00000240,-0.00000056,-0.
 00000183,0.00000088,-0.00001447,-0.00000283,-0.00000014,-0.00000066,-0
 .00000188,-0.00000092,-0.00050954,0.00047503,-0.00001845,0.00035834,-0
 .00075321,0.00006575,-0.17959919,-0.08720014,0.00883322,-0.00265578,0.
 00093644,-0.00009849,-0.00019220,0.00015735,-0.00000405,0.20757306,0.0
 0123677,-0.00034643,0.00000138,-0.00107104,0.00026021,0.00000470,0.000
 75167,0.00040293,-0.00001961,-0.00017885,-0.00025678,-0.00000163,-0.00
 029741,0.00010457,-0.00000326,0.00007390,0.00002673,0.00000189,-0.0000
 0702,-0.00001467,-0.00000035,-0.00000196,0.00000827,0.00000002,-0.0004
 1948,-0.00023406,0.00001803,0.00003642,0.00207464,-0.00001679,-0.00789
 216,-0.00335850,0.00107232,0.00355600,-0.00496862,0.00031407,-0.000392
 24,0.00135701,-0.00009597,-0.00004257,-0.00006353,0.00000872,-0.000014
 80,-0.00000357,0.00000012,-0.00001496,-0.00000329,-0.00000055,-0.00000
 016,0.00000173,0.00000098,-0.00000025,0.00000180,-0.00000098,0.,-0.000
 00042,-0.00000005,-0.00000403,-0.00000073,-0.00000004,-0.00000004,-0.0
 0000044,0.00000004,-0.00012012,0.00013919,-0.00002204,-0.00035763,0.00
 012301,0.00004808,-0.10104191,-0.16202550,0.00885808,0.00325379,0.0016
 1335,-0.00010622,-0.00010392,0.00002863,0.00000225,0.15430177,0.282812
 94,-0.00012245,0.00005762,0.00020099,0.00014233,-0.00002732,0.00001613
 ,-0.00009998,-0.00006018,-0.00002026,0.00001878,0.00003776,0.00001619,
 0.00004239,-0.00001373,-0.00001286,-0.00000981,-0.00000432,-0.00001095
 ,0.00000116,0.00000207,-0.00000060,0.00000054,-0.00000159,0.00000141,0
 .00006976,0.00004281,-0.00051542,0.00018390,-0.00023603,0.00206121,0.0
 0174439,0.00185953,0.00753540,-0.00012067,0.00035232,-0.00031837,0.000
 05687,-0.00006953,0.00002705,0.00000437,0.00000908,0.00000248,0.000001
 50,0.00000141,0.00000083,0.00000277,-0.00000053,0.00000065,0.00000010,
 0.00000007,0.00000026,-0.00000021,-0.00000043,0.00000044,0.00000003,-0
 .00000010,0.00000010,0.00000053,0.00000006,0.00000005,0.00000006,0.000
 00023,0.00000021,0.00001698,-0.00003951,-0.00027998,0.00001546,0.00002
 737,0.00024984,0.00968164,0.00874899,-0.06684143,-0.00026506,-0.000083
 26,0.00025791,0.00001111,-0.00000345,0.00002922,-0.01365662,-0.0176222
 1,0.08120293,0.00305733,-0.00049770,0.00030075,-0.00410311,0.00024240,
 0.00010153,0.00264435,0.00175489,0.00000716,-0.00049667,-0.00106477,-0
 .00000253,-0.00110973,0.00029941,-0.00002722,0.00026716,0.00011057,0.0
 0000078,-0.00003063,-0.00005759,-0.00000237,-0.00000771,0.00003218,0.0
 0000090,-0.00098790,0.00123847,-0.00081904,0.00327041,0.00246304,-0.00
 069395,-0.00975846,0.02924603,0.02875740,-0.00288640,-0.00386928,0.002
 54995,-0.00259521,0.00068925,-0.00173565,-0.00004354,-0.00024741,0.000
 00280,-0.00005425,-0.00001324,-0.00000241,-0.00005222,-0.00001390,0.00
 000197,0.00000051,0.00000519,0.00000239,0.00000057,0.00000573,-0.00000
 217,-0.00000071,-0.00000176,0.00000108,-0.00001489,-0.00000307,-0.0000
 0003,-0.00000074,-0.00000197,-0.00000127,0.00000940,0.00001320,-0.0000
 3212,-0.00266720,-0.00256009,0.00199305,-0.09215486,0.03505505,0.04006
 045,0.00026823,0.00011605,0.00065160,-0.00052581,0.00016245,-0.0002502
 5,0.01016202,-0.02810230,-0.02075521,0.08433126,-0.00234182,0.00106719
 ,-0.00020630,0.00338583,-0.00021267,-0.00013772,-0.00212943,-0.0014346
 0,0.00001509,0.00037358,0.00086612,-0.00001114,0.00088143,-0.00023327,
 0.00002842,-0.00021256,-0.00008748,-0.00000193,0.00002473,0.00004529,-
 0.00000044,0.00000563,-0.00002514,0.,0.00165857,-0.00086145,0.00092351
 ,-0.00145315,-0.00571996,-0.00012140,0.01474491,-0.01069979,-0.0219441
 2,0.00101327,0.00255125,-0.00113744,0.00186679,0.00021973,0.00118394,0
 .00003622,0.00019836,-0.00001566,0.00004435,0.00001036,0.00000211,0.00
 004177,0.00001094,-0.00000200,-0.00000076,-0.00000406,-0.00000150,-0.0
 0000038,-0.00000434,0.00000167,0.00000060,0.00000132,-0.00000098,0.000
 01171,0.00000260,0.00000005,0.00000074,0.00000151,0.00000125,0.0001617
 1,-0.00004243,0.00008309,-0.00323605,0.00122634,0.00110066,0.03714931,
 -0.13456248,-0.08142777,-0.00030161,0.00031138,-0.00060687,0.00029246,
 -0.00013173,0.00009526,-0.01784976,-0.06466957,-0.04381738,-0.03081264
 ,0.19539292,-0.00159823,0.00062572,-0.00012480,0.00218370,-0.00010557,
 -0.00002470,-0.00141504,-0.00092486,-0.00000492,0.00028456,0.00055768,
 0.00000582,0.00060794,-0.00015880,0.00001158,-0.00014368,-0.00006153,-
 0.00000424,0.00001718,0.00003086,-0.00000147,0.00000424,-0.00001797,0.
 00000002,0.00106422,-0.00055262,0.00023283,-0.00203018,-0.00232147,0.0
 0095341,0.00742475,-0.01575266,-0.00706812,0.00283666,0.00176189,-0.00
 138755,0.00099844,-0.00076740,0.00057236,0.00001597,0.00013247,-0.0000
 0951,0.00002970,0.00000828,0.00000190,0.00002827,0.00000714,-0.0000002
 9,-0.00000021,-0.00000246,-0.00000058,-0.00000011,-0.00000375,0.000001
 54,0.00000016,0.00000062,-0.00000044,0.00000810,0.00000178,0.,0.000000
 74,0.00000123,0.00000098,0.00003964,-0.00003437,-0.00001347,0.00105694
 ,0.00179575,-0.00036290,0.04530553,-0.08021422,-0.16041012,-0.00013804
 ,0.00023308,-0.00018266,0.00039553,-0.00010554,0.00012494,-0.01365264,
 -0.03533421,-0.00499922,-0.04437407,0.14582700,0.26467677,0.00312374,-
 0.00057365,-0.00036940,-0.00420775,0.00026153,-0.00006619,0.00270555,0
 .00179791,-0.00010764,-0.00050210,-0.00109179,0.00002096,-0.00113910,0
 .00030529,0.00001088,0.00027200,0.00011414,0.00000892,-0.00003169,-0.0
 0005900,0.00000055,-0.00000827,0.00003326,-0.00000105,-0.00098889,0.00
 135550,0.00075494,0.00339240,0.00271596,0.00029664,-0.01168829,0.02582
 747,-0.03233253,-0.00307200,-0.00426105,-0.00194306,-0.00261564,0.0009
 3239,0.00168856,-0.00004581,-0.00025754,0.00006031,-0.00005296,-0.0000
 1540,-0.00000346,-0.00005546,-0.00001284,0.00000075,0.00000076,0.00000
 584,0.00000229,0.00000042,0.00000526,-0.00000240,-0.00000068,-0.000002
 02,0.00000123,-0.00001524,-0.00000314,-0.00000021,-0.00000074,-0.00000
 180,-0.00000114,0.00000355,0.00002077,0.00004181,-0.00264177,-0.002868
 38,-0.00146634,-0.09652667,0.03260978,-0.04799608,0.00024142,0.0000247
 8,-0.00067516,-0.00053029,0.00020414,0.00025543,0.01193284,-0.02314747
 ,0.02303533,0.01347878,-0.00335544,0.00104992,0.08897187,-0.00210133,0
 .00100692,0.00016631,0.00307748,-0.00019828,0.00010510,-0.00192420,-0.
 00130889,0.00006283,0.00032186,0.00078873,-0.00000118,0.00079779,-0.00
 021101,-0.00001556,-0.00019117,-0.00007787,-0.00000506,0.00002225,0.00
 004111,0.00000126,0.00000536,-0.00002309,0.00000030,0.00146283,-0.0008
 9144,-0.00090769,-0.00116420,-0.00530438,0.00100072,0.01464656,-0.0057
 5466,0.02113424,0.00065280,0.00240550,0.00060433,0.00169275,0.00017423
 ,-0.00115100,0.00003381,0.00018151,-0.00003511,0.00003767,0.00001054,0
 .00000286,0.00004015,0.00000884,-0.00000055,-0.00000038,-0.00000389,-0
 .00000156,-0.00000062,-0.00000375,0.00000131,0.00000068,0.00000131,-0.
 00000106,0.00001054,0.00000230,0.00000018,0.00000057,0.00000119,0.0000
 0092,0.00015571,-0.00005164,-0.00009510,-0.00332321,0.00083895,-0.0010
 5623,0.03409346,-0.11404377,0.07407747,-0.00025388,0.00034382,0.000554
 55,0.00023354,-0.00012865,-0.00007305,-0.01357412,-0.05300890,0.050840
 27,-0.00418820,0.01678368,-0.01462605,-0.03056449,0.15842159,0.0017471
 7,-0.00074562,-0.00014216,-0.00240955,0.00012737,-0.00001163,0.0015497
 9,0.00101929,-0.00005239,-0.00030326,-0.00061230,0.00001422,-0.0006649
 2,0.00017361,0.00000348,0.00015671,0.00006596,-0.00000011,-0.00001871,
 -0.00003394,-0.00000228,-0.00000457,0.00001981,0.00000013,-0.00119992,
 0.00062128,0.00032708,0.00209174,0.00305343,0.00041051,-0.00935181,0.0
 1437723,-0.01016594,-0.00284879,-0.00204531,-0.00101589,-0.00112236,0.
 00076992,0.00055724,-0.00001850,-0.00014721,0.00002167,-0.00003082,-0.
 00000844,-0.00000107,-0.00003225,-0.00000858,0.00000120,0.00000009,0.0
 0000418,0.00000181,0.00000021,0.00000274,-0.00000073,-0.00000087,-0.00
 000134,0.00000093,-0.00000892,-0.00000196,-0.00000021,-0.00000022,-0.0
 0000075,-0.00000045,-0.00006500,0.00003995,0.00000132,-0.00041884,-0.0
 0183266,0.00020682,-0.05341757,0.07285455,-0.17660857,0.00015321,-0.00
 030330,-0.00020571,-0.00039836,0.00013170,0.00012714,0.01461365,0.0428
 9325,-0.01860421,-0.00573353,0.00017058,-0.09198714,0.05773617,-0.1305
 8345,0.29712494\\0.00000036,0.00000089,0.00000056,-0.00000202,0.000001
 65,-0.00000209,0.00000045,-0.00000296,0.00000233,-0.00000014,0.0000025
 8,-0.00000076,0.00000036,0.00000074,-0.00000494,0.00000358,-0.00000008
 ,0.00000512,0.00000377,0.00000106,-0.00000106,0.00000041,0.00000121,-0
 .00000100,-0.00000104,0.00000415,0.00000039,-0.00000067,-0.00000264,0.
 00000147,-0.00000130,-0.00000087,-0.00000105,0.00000115,-0.00000195,-0
 .00000180,-0.00000039,-0.00000180,0.00000018,-0.00000014,-0.00000106,-
 0.00000169,0.00000019,0.00000106,0.00000098,-0.00000117,0.00000153,0.0
 0000117,0.00000053,0.00000200,-0.00000127,-0.00000050,0.00000121,-0.00
 000202,-0.00000007,0.00000302,0.00000095,0.00000084,0.00000258,-0.0000
 0069,-0.00000019,0.00000139,0.00000062,-0.00000156,-0.00000177,0.00000
 288,-0.00000135,-0.00000089,0.00000392,0.00000524,-0.00000099,0.000003
 11,-0.00000011,-0.00000163,-0.00000265,0.00000108,-0.00000153,-0.00000
 260,-0.00000475,-0.00001177,0.00000002,-0.00000080,0.00000268,0.000007
 80,-0.00000177,0.00000219,-0.00000787\\\@


 LAWS OF PROGRAMMING DEFINITION:  A WORKING PROGRAM
                                  IS ONE THAT HAS
                                  ONLY UNOBSERVED
                                  BUGS.
 Job cpu time:       0 days  4 hours  6 minutes 39.0 seconds.
 File lengths (MBytes):  RWF=    656 Int=      0 D2E=      0 Chk=     22 Scr=      1
 Normal termination of Gaussian 09 at Thu Nov 14 18:18:10 2019.
pbs_rusage has been removed.
Please contact help@nci.org.au if you require this functionality.
