Process 0 of 1 is on r4298 - thread support 0
initial socket setup ...start
initial socket setup ...done 
now start server 0 ... 
r4298 10.9.74
Q-Chem Developer Version! Running on 10.9.74.*
                  Welcome to Q-Chem
     A Quantum Leap Into The Future Of Chemistry


 Q-Chem 5.0, Q-Chem, Inc., Pleasanton, CA (2017)

 Yihan Shao,  Zhengting Gan,  E. Epifanovsky,  A. T. B. Gilbert,  M. Wormit,  
 J. Kussmann,  A. W. Lange,  A. Behn,  Jia Deng,  Xintian Feng,  D. Ghosh,  
 M. Goldey,  P. R. Horn,  L. D. Jacobson,  I. Kaliman,  T. Kus,  A. Landau,  
 Jie Liu,  E. I. Proynov,  R. M. Richard,  R. P. Steele,  E. J. Sundstrom,  
 H. L. Woodcock III,  P. M. Zimmerman,  D. Zuev,  B. Albrecht,  E. Alguire,  
 S. A. Baeppler,  Z. Benda,  Y. A. Bernard,  E. J. Berquist,  K. B. Bravaya,  
 D. Casanova,  Chun-Min Chang,  Yunqing Chen,  A. Chien,  K. D. Closser,  
 M. P. Coons,  S. Dasgupta,  M. Diedenhofen,  Hainam Do,  R. G. Edgar,  
 Po-Tung Fang,  S. Fatehi,  Qingguo Feng,  Qinghui Ge,  A. Ghysels,  
 J. Gomes,  J. Gonthier,  A. Gunina,  M. W. D. Hanson-Heine,  
 P. H. P. Harbach,  A. W. Hauser,  J. E. Herr,  E. G. Hohenstein,  
 Z. C. Holden,  Kerwin Hui,  T.-C. Jagau,  Hyunjun Ji,  B. Kaduk,  
 K. Khistyaev,  Jaehoon Kim,  P. Klunzinger,  K. Koh,  D. Kosenkov,  
 T. Kowalczyk,  C. M. Krauter,  A. Kunitsa,  Ka Un Lao,  A. Laurent,  
 K. V. Lawler,  Joonho Lee,  D. Lefrancois,  S. Lehtola,  D. S. Levine,  
 Yi-Pei Li,  You-Sheng Lin,  Fenglai Liu,  E. Livshits,  A. Luenser,  
 P. Manohar,  E. Mansoor,  S. F. Manzer,  Shan-Ping Mao,  Yuezhi Mao,  
 N. Mardirossian,  A. V. Marenich,  L. A. Martinez-Martinez,  S. A. Maurer,  
 N. J. Mayhall,  S. C. McKenzie,  J.-M. Mewes,  A. F. Morrison,  K. Nanda,  
 T. S. Nguyen-Beck,  R. Olivares-Amaya,  J. A. Parkhill,  T. M. Perrine,  
 F. Plasser,  S. Prager,  A. Prociuk,  D. R. Rehn,  F. Rob,  M. Schneider,  
 N. Sergueev,  S. M. Sharada,  S. Sharma,  D. W. Small,  T. Stauch,  
 T. Stein,  Yu-Chuan Su,  A. J. W. Thom,  T. Tsuchimochi,  L. Vogt,  
 O. Vydrov,  M. A. Watson,  J. Wenzel,  M. de Wergifosse,  T. A. Wesolowski,  
 A. White,  J. Witte,  A. Yamada,  Jun Yang,  K. Yao,  S. Yeganeh,  
 S. R. Yost,  Zhi-Qiang You,  A. Zech,  Igor Ying Zhang,  Xing Zhang,  
 Yan Zhao,  Ying Zhu,  B. R. Brooks,  G. K. L. Chan,  C. J. Cramer,  
 M. S. Gordon,  W. J. Hehre,  A. Klamt,  M. W. Schmidt,  C. D. Sherrill,  
 D. G. Truhlar,  A. Aspuru-Guzik,  R. Baer,  A. T. Bell,  N. A. Besley,  
 Jeng-Da Chai,  A. Dreuw,  B. D. Dunietz,  T. R. Furlani,  Chao-Ping Hsu,  
 Yousung Jung,  Jing Kong,  D. S. Lambrecht,  WanZhen Liang,  C. Ochsenfeld,  
 V. A. Rassolov,  L. V. Slipchenko,  J. E. Subotnik,  T. Van Voorhis,  
 J. M. Herbert,  A. I. Krylov,  P. M. W. Gill,  M. Head-Gordon

 Contributors to earlier versions of Q-Chem not listed above: 
 R. D. Adamson,  B. Austin,  J. Baker,  G. J. O. Beran,  K. Brandhorst,  
 S. T. Brown,  E. F. C. Byrd,  A. K. Chakraborty,  C.-L. Cheng,  
 Siu Hung Chien,  D. M. Chipman,  D. L. Crittenden,  H. Dachsel,  
 R. A. DiStasio Jr.,  R. J. Doerksen,  A. D. Dutoi,  L. Fusti-Molnar,  
 W. A. Goddard III,  A. Golubeva-Zadorozhnaya,  S. R. Gwaltney,  G. Hawkins,  
 A. Heyden,  S. Hirata,  G. Kedziora,  F. J. Keil,  C. Kelley,  Jihan Kim,  
 R. A. King,  R. Z. Khaliullin,  P. P. Korambath,  W. Kurlancheek,  
 A. M. Lee,  M. S. Lee,  S. V. Levchenko,  Ching Yeh Lin,  D. Liotard,  
 R. C. Lochan,  I. Lotan,  P. E. Maslen,  N. Nair,  D. P. O'Neill,  
 D. Neuhauser,  E. Neuscamman,  C. M. Oana,  R. Olson,  B. Peters,  
 R. Peverati,  P. A. Pieniazek,  Y. M. Rhee,  J. Ritchie,  M. A. Rohrdanz,  
 E. Rosta,  N. J. Russ,  H. F. Schaefer III,  N. E. Schultz,  N. Shenvi,  
 A. C. Simmonett,  A. Sodt,  D. Stuck,  K. S. Thanthiriwatte,  V. Vanovschi,  
 Tao Wang,  A. Warshel,  C. F. Williams,  Q. Wu,  X. Xu,  W. Zhang

 Please cite Q-Chem as follows:
 Y. Shao et al., Mol. Phys. 113, 184-215 (2015)
 DOI: 10.1080/00268976.2014.952696

 Q-Chem 5.0.0 for Intel X86 EM64T Linux

 Parts of Q-Chem use Armadillo 5.200.1 (Boston Tea Smuggler).
 http://arma.sourceforge.net/

 Q-Chem begins on Mon Dec  9 10:41:32 2019  

Host: r4298
0

     Scratch files written to /jobfs/local/4046920.r-man2/CP19CA.CCSD-T_6-31pGd.mo//
 Parallel job on  1  processors
Core orbitals will be frozen

Checking the input file for inconsistencies... 	...done.

--------------------------------------------------------------
User input:
--------------------------------------------------------------
$molecule
  0 1
    C     -6.2986157710    1.2792363771    0.0196052719
    N     -5.0005518645    0.7634560885    0.0439966176
    C     -3.8183408511    1.4625764263    0.0025357782
    O     -3.6965736178    2.6573374055   -0.0627471432
    O     -2.7980977059    0.5907631029    0.0469194589
    C     -1.4865965736    1.1760108927    0.0113261378
    C     -0.4783794730    0.0490593663    0.0696261333
    C      0.9476633498    0.5920979694    0.0359847812
    C     -6.5744819764    2.6468797541   -0.0538669888
    C     -7.8953922892    3.0707290688   -0.0731993507
    C     -8.9578971681    2.1688472615   -0.0212777884
    C     -8.6648023036    0.8099101308    0.0516854555
    C     -7.3561195453    0.3651864962    0.0721827799
    H     -4.9040983087   -0.2398115233    0.0981706318
    H     -1.3825157253    1.8581318356    0.8585702577
    H     -1.3876330063    1.7622983713   -0.9054173725
    H     -0.6494076791   -0.6258006714   -0.7734539546
    H     -0.6443128755   -0.5304384987    0.9818321872
    H      1.1349757582    1.1591204278   -0.8790768785
    H      1.6760849049   -0.2185130859    0.0779241434
    H      1.1400793239    1.2548780520    0.8831188367
    H     -5.7760323681    3.3716149943   -0.0954365743
    Cl    -8.1843420040    4.7811072467   -0.1652429118
    C    -10.3899547129    2.6270679107   -0.0421712659
    H     -9.4752001997    0.0935962777    0.0928336641
    H     -7.1504007194   -0.6983030214    0.1293471464
    F    -11.2341333454    1.5848498660    0.0168168551
    F    -10.6844115297    3.4221755871    0.9950473943
    F    -10.6904317232    3.3052058912   -1.1577733024

$end

$rem

    JOBTYPE               sp
    METHOD                CCSD(T)
    BASIS                 6-31+G*
    CC_BACKEND            XM

    MEM_TOTAL             60000
$end
--------------------------------------------------------------
 ----------------------------------------------------------------
             Standard Nuclear Orientation (Angstroms)
    I     Atom           X                Y                Z
 ----------------------------------------------------------------
    1      C      -0.2174313053    -0.7192171433    -0.0001446403
    2      N      -1.6009658092    -0.9126762326    -0.0002249705
    3      C      -2.5831503287     0.0482736502    -0.0000812134
    4      O      -2.4174103495     1.2395222264    -0.0000084294
    5      O      -3.7814496631    -0.5575342074    -0.0000350105
    6      C      -4.9162954303     0.3233415819     0.0000558453
    7      C      -6.1635653727    -0.5335353315     0.0000714741
    8      C      -7.4197092661     0.3334844523     0.0001761975
    9      C       0.3756616085     0.5457688403    -0.0001376077
   10      C       1.7595346460     0.6443662358    -0.0000603455
   11      C       2.5772393481    -0.4853958085     0.0000024554
   12      C       1.9694803071    -1.7378203801    -0.0000171933
   13      C       0.5925226668    -1.8596295125    -0.0000913841
   14      H      -1.9331590460    -1.8657930493    -0.0002056825
   15      H      -4.8641888838     0.9644862736    -0.8832124008
   16      H      -4.8641059357     0.9643979103     0.8833839267
   17      H      -6.1489582997    -1.1837508294     0.8789782906
   18      H      -6.1490431833    -1.1836608483    -0.8789037661
   19      H      -7.4579292923     0.9767364938     0.8826184271
   20      H      -8.3199885568    -0.2821001103     0.0001738727
   21      H      -7.4579987808     0.9768436099    -0.8821844773
   22      H      -0.2276552110     1.4404753782    -0.0001842749
   23      Cl      2.4468126647     2.2396738523    -0.0000519495
   24      C       4.0772501979    -0.3797598542     0.0000908264
   25      H       2.5864054625    -2.6271722855     0.0000276285
   26      H       0.1398742456    -2.8453816928    -0.0001036278
   27      F       4.6495140379    -1.5941937602     0.0000852619
   28      F       4.5413781182     0.2662427445    -1.0778653412
   29      F       4.5412579017     0.2661768773     1.0781390850
 ----------------------------------------------------------------
 Molecular Point Group                 C1    NOp =  1
 Largest Abelian Subgroup              C1    NOp =  1
 Nuclear Repulsion Energy =  1439.0340704336 hartrees
 There are       72 alpha and       72 beta electrons
 Requested basis set is 6-31+G(d)
 There are 113 shells and 368 basis functions
 Total memory of 101219MB is distributed as follows: 
   QALLOC including MEM_STATIC uses 30062MB
   MEM_STATIC is set to 62MB
   CCMAN JOB total memory use is  101157MB
 Warning: actual memory use might exceed 101219MB

 Total QAlloc Memory Limit  30062 MB
 Mega-Array Size        61 MB
 MEM_STATIC part        62 MB
 A cutoff of  1.0D-14 yielded   4731 shell pairs
 There are     53894 function pairs
 
 -------------------------------------------------------
 OpenMP Integral Computing Module                       
 Release: version 1.0, May 2013, Q-Chem Inc. Pittsburgh 
 -------------------------------------------------------
 Integral Job Info:
 Integral job number is                      11
 Integral operator is                         1
 short-range coefficients                     0
 long-range coefficients              100000000
 Omega coefficients                           0
 if combine SR and LR in K                    0
 Integral screening is                        0
 Integral computing path is                   2
 max size of driver memory is            800000
 size of driver memory is                593474
 size of scratch memory is             15166112
 max col of scratch BK array               1296
 max len of scratch array in speh3          155
 max len of scratch index in speh4           18
 max int batch size is                      520
 min int batch size is                       52
 fixed nKL is                                52
 max L of basis functions is                  2
 order of int derivative is                   0
 number of shells is                        113
 number of basis is                         368
 number of cartesian basis is               368
 number of contracted shell pairs          4731
 number of primitive shell pairs          15398
 maxK2 (contraction) of shell pair           36
 max number of K2 of shell pair               1
 max number of CS2 of shell pair            675
 max number of PS2 of shell pair           3816
 mem total for path MDJ                  136194
 -------------------------------------------------------
 Smallest overlap matrix eigenvalue = 4.94E-07
 Linear dependence detected in AO basis
 Number of orthogonalized atomic orbitals = 366
 Maximum deviation from orthogonality = 1.247E-10

 Scale SEOQF with 1.000000e-02/1.000000e-01/1.000000e-01

 Standard Electronic Orientation quadrupole field applied
 Nucleus-field energy     =     0.0000000196 hartrees
 Guess from superposition of atomic densities
 Warning:  Energy on first SCF cycle will be non-variational
 A restricted Hartree-Fock SCF calculation will be
 performed using Pulay DIIS extrapolation
 SCF converges when DIIS error is below 1.0E-08
 -------------------------------------------------------
 OpenMP Integral computing Module                
 Release: version 1.0, May 2013, Q-Chem Inc. Pittsburgh 
 -------------------------------------------------------
 ---------------------------------------
  Cycle       Energy         DIIS Error
 ---------------------------------------
    1   -1391.0862431085      3.93E-02
    2   -1384.6361602199      4.66E-03
    3   -1384.8979526711      2.82E-03
    4   -1384.9941916531      5.19E-04
    5   -1384.9993923912      1.87E-04
    6   -1385.0000076862      4.48E-05
    7   -1385.0000626611      1.94E-05
    8   -1385.0000756335      5.83E-06
    9   -1385.0000771234      2.40E-06
   10   -1385.0000773325      8.46E-07
   11   -1385.0000773655      3.59E-07
   12   -1385.0000773713      1.44E-07
   13   -1385.0000773724      5.40E-08
   14   -1385.0000773726      2.72E-08
   15   -1385.0000773727      1.06E-08
   16   -1385.0000773727      4.27E-09 Convergence criterion met
 ---------------------------------------
 SCF time:  CPU 235.58 s  wall 59.00 s
 SCF   energy in the final basis set = -1385.0000773727
 Total energy in the final basis set = -1385.0000773727


 ------------------------------------------------------------------------------

   CCMAN2: suite of methods based on coupled cluster
           and equation of motion theories.

   Components:
   * libvmm-1.3-trunk
     by Evgeny Epifanovsky, Ilya Kaliman.
   * libtensor-2.5-release
     by Evgeny Epifanovsky, Michael Wormit, Dmitry Zuev, Sam Manzer, 
        Ilya Kaliman.
   * libcc-2.5-trunk
     by Evgeny Epifanovsky, Arik Landau, Tomasz Kus, Kirill Khistyaev, 
        Dmitry Zuev, Prashant Manohar, Xintian Feng, Anna Krylov, 
        Matthew Goldey, Alec White, Thomas Jagau, Kaushik Nanda, 
        Anastasia Gunina, Alexander Kunitsa, Joonho Lee.

   CCMAN original authors:
   Anna I. Krylov, C. David Sherrill, Steven R. Gwaltney,
   Edward F. C. Byrd (2000)
   Sergey V. Levchenko, Lyudmila V. Slipchenko, Tao Wang,
   Ana-Maria C. Cristian (2003)
   Piotr A. Pieniazek, C. Melania Oana, Evgeny Epifanovsky (2007)
   Prashant Manohar (2009)

 ------------------------------------------------------------------------------


================================================================================
This program uses libxm tensor contraction code.
See https://github.com/ilyak/libxm for more info.
libxm is (c) Ilya Kaliman 2014-2016.
================================================================================

 Calculation will run on 4 cores using libxm for tensor contractions

 
 Alpha MOs, Restricted
 -- Occupied --                  
-104.84  -26.35  -26.35  -26.35  -20.63  -20.57  -15.64  -11.52
  1 A     2 A     3 A     4 A     5 A     6 A     7 A     8 A                  
-11.437 -11.335 -11.330 -11.304 -11.281 -11.279 -11.267 -11.261
  9 A    10 A    11 A    12 A    13 A    14 A    15 A    16 A                  
-11.243 -11.234 -10.572  -8.041  -8.038  -8.038  -1.733  -1.637
 17 A    18 A    19 A    20 A    21 A    22 A    23 A    24 A                  
 -1.632  -1.496  -1.389  -1.294  -1.213  -1.138  -1.093  -1.072
 25 A    26 A    27 A    28 A    29 A    30 A    31 A    32 A                  
 -1.028  -0.983  -0.952  -0.894  -0.868  -0.839  -0.824  -0.821
 33 A    34 A    35 A    36 A    37 A    38 A    39 A    40 A                  
 -0.814  -0.802  -0.769  -0.735  -0.712  -0.709  -0.708  -0.688
 41 A    42 A    43 A    44 A    45 A    46 A    47 A    48 A                  
 -0.668  -0.663  -0.659  -0.649  -0.645  -0.644  -0.630  -0.615
 49 A    50 A    51 A    52 A    53 A    54 A    55 A    56 A                  
 -0.606  -0.591  -0.568  -0.560  -0.557  -0.536  -0.531  -0.515
 57 A    58 A    59 A    60 A    61 A    62 A    63 A    64 A                  
 -0.505  -0.499  -0.480  -0.476  -0.463  -0.460  -0.360  -0.341
 65 A    66 A    67 A    68 A    69 A    70 A    71 A    72 A                  
 -- Virtual --                   
  0.053   0.074   0.079   0.080   0.083   0.088   0.091   0.095
 73 A    74 A    75 A    76 A    77 A    78 A    79 A    80 A                  
  0.099   0.110   0.112   0.112   0.123   0.127   0.128   0.134
 81 A    82 A    83 A    84 A    85 A    86 A    87 A    88 A                  
  0.141   0.148   0.149   0.151   0.157   0.158   0.172   0.176
 89 A    90 A    91 A    92 A    93 A    94 A    95 A    96 A                  
  0.180   0.187   0.192   0.201   0.204   0.211   0.216   0.220
 97 A    98 A    99 A   100 A   101 A   102 A   103 A   104 A                  
  0.227   0.233   0.238   0.242   0.258   0.260   0.264   0.274
105 A   106 A   107 A   108 A   109 A   110 A   111 A   112 A                  
  0.279   0.283   0.287   0.290   0.302   0.306   0.317   0.318
113 A   114 A   115 A   116 A   117 A   118 A   119 A   120 A                  
  0.320   0.325   0.329   0.335   0.335   0.339   0.343   0.357
121 A   122 A   123 A   124 A   125 A   126 A   127 A   128 A                  
  0.363   0.370   0.377   0.386   0.387   0.390   0.401   0.412
129 A   130 A   131 A   132 A   133 A   134 A   135 A   136 A                  
  0.414   0.418   0.418   0.422   0.430   0.435   0.436   0.441
137 A   138 A   139 A   140 A   141 A   142 A   143 A   144 A                  
  0.443   0.446   0.460   0.463   0.468   0.473   0.476   0.479
145 A   146 A   147 A   148 A   149 A   150 A   151 A   152 A                  
  0.487   0.493   0.497   0.502   0.507   0.514   0.537   0.547
153 A   154 A   155 A   156 A   157 A   158 A   159 A   160 A                  
  0.556   0.565   0.565   0.576   0.585   0.597   0.603   0.616
161 A   162 A   163 A   164 A   165 A   166 A   167 A   168 A                  
  0.626   0.653   0.678   0.685   0.745   0.768   0.795   0.833
169 A   170 A   171 A   172 A   173 A   174 A   175 A   176 A                  
  0.838   0.841   0.867   0.871   0.881   0.896   0.913   0.917
177 A   178 A   179 A   180 A   181 A   182 A   183 A   184 A                  
  0.919   0.921   0.934   0.936   0.940   0.948   0.968   0.979
185 A   186 A   187 A   188 A   189 A   190 A   191 A   192 A                  
  0.987   1.010   1.014   1.015   1.028   1.048   1.050   1.076
193 A   194 A   195 A   196 A   197 A   198 A   199 A   200 A                  
  1.080   1.088   1.091   1.126   1.149   1.167   1.170   1.185
201 A   202 A   203 A   204 A   205 A   206 A   207 A   208 A                  
  1.192   1.198   1.204   1.216   1.227   1.239   1.246   1.254
209 A   210 A   211 A   212 A   213 A   214 A   215 A   216 A                  
  1.275   1.281   1.299   1.305   1.331   1.340   1.351   1.364
217 A   218 A   219 A   220 A   221 A   222 A   223 A   224 A                  
  1.385   1.389   1.402   1.413   1.432   1.447   1.453   1.464
225 A   226 A   227 A   228 A   229 A   230 A   231 A   232 A                  
  1.471   1.474   1.503   1.514   1.535   1.547   1.565   1.588
233 A   234 A   235 A   236 A   237 A   238 A   239 A   240 A                  
  1.600   1.606   1.633   1.656   1.670   1.683   1.699   1.700
241 A   242 A   243 A   244 A   245 A   246 A   247 A   248 A                  
  1.717   1.728   1.761   1.782   1.793   1.808   1.822   1.847
249 A   250 A   251 A   252 A   253 A   254 A   255 A   256 A                  
  1.872   1.883   1.913   1.935   1.940   1.941   1.969   1.970
257 A   258 A   259 A   260 A   261 A   262 A   263 A   264 A                  
  1.976   1.983   2.000   2.016   2.028   2.044   2.057   2.082
265 A   266 A   267 A   268 A   269 A   270 A   271 A   272 A                  
  2.097   2.113   2.119   2.120   2.129   2.129   2.158   2.160
273 A   274 A   275 A   276 A   277 A   278 A   279 A   280 A                  
  2.163   2.177   2.193   2.196   2.226   2.249   2.263   2.273
281 A   282 A   283 A   284 A   285 A   286 A   287 A   288 A                  
  2.290   2.305   2.325   2.335   2.351   2.355   2.360   2.373
289 A   290 A   291 A   292 A   293 A   294 A   295 A   296 A                  
  2.395   2.403   2.416   2.426   2.437   2.439   2.449   2.456
297 A   298 A   299 A   300 A   301 A   302 A   303 A   304 A                  
  2.491   2.498   2.538   2.561   2.563   2.579   2.590   2.592
305 A   306 A   307 A   308 A   309 A   310 A   311 A   312 A                  
  2.609   2.668   2.668   2.701   2.714   2.735   2.740   2.803
313 A   314 A   315 A   316 A   317 A   318 A   319 A   320 A                  
  2.814   2.829   2.854   2.914   2.957   2.968   2.979   2.995
321 A   322 A   323 A   324 A   325 A   326 A   327 A   328 A                  
  3.065   3.086   3.101   3.109   3.131   3.147   3.156   3.175
329 A   330 A   331 A   332 A   333 A   334 A   335 A   336 A                  
  3.256   3.281   3.320   3.379   3.485   3.511   3.522   3.606
337 A   338 A   339 A   340 A   341 A   342 A   343 A   344 A                  
  3.616   3.686   3.722   3.808   4.600   4.657   4.677   4.693
345 A   346 A   347 A   348 A   349 A   350 A   351 A   352 A                  
  4.761   4.794   4.803   4.833   4.859   4.875   4.969   5.008
353 A   354 A   355 A   356 A   357 A   358 A   359 A   360 A                  
  5.040   5.111   5.198   5.985   6.464   7.331
361 A   362 A   363 A   364 A   365 A   366 A                                  
 
 Beta MOs, Restricted
 -- Occupied --                  
-104.84  -26.35  -26.35  -26.35  -20.63  -20.57  -15.64  -11.52
  1 A     2 A     3 A     4 A     5 A     6 A     7 A     8 A                  
-11.437 -11.335 -11.330 -11.304 -11.281 -11.279 -11.267 -11.261
  9 A    10 A    11 A    12 A    13 A    14 A    15 A    16 A                  
-11.243 -11.234 -10.572  -8.041  -8.038  -8.038  -1.733  -1.637
 17 A    18 A    19 A    20 A    21 A    22 A    23 A    24 A                  
 -1.632  -1.496  -1.389  -1.294  -1.213  -1.138  -1.093  -1.072
 25 A    26 A    27 A    28 A    29 A    30 A    31 A    32 A                  
 -1.028  -0.983  -0.952  -0.894  -0.868  -0.839  -0.824  -0.821
 33 A    34 A    35 A    36 A    37 A    38 A    39 A    40 A                  
 -0.814  -0.802  -0.769  -0.735  -0.712  -0.709  -0.708  -0.688
 41 A    42 A    43 A    44 A    45 A    46 A    47 A    48 A                  
 -0.668  -0.663  -0.659  -0.649  -0.645  -0.644  -0.630  -0.615
 49 A    50 A    51 A    52 A    53 A    54 A    55 A    56 A                  
 -0.606  -0.591  -0.568  -0.560  -0.557  -0.536  -0.531  -0.515
 57 A    58 A    59 A    60 A    61 A    62 A    63 A    64 A                  
 -0.505  -0.499  -0.480  -0.476  -0.463  -0.460  -0.360  -0.341
 65 A    66 A    67 A    68 A    69 A    70 A    71 A    72 A                  
 -- Virtual --                   
  0.053   0.074   0.079   0.080   0.083   0.088   0.091   0.095
 73 A    74 A    75 A    76 A    77 A    78 A    79 A    80 A                  
  0.099   0.110   0.112   0.112   0.123   0.127   0.128   0.134
 81 A    82 A    83 A    84 A    85 A    86 A    87 A    88 A                  
  0.141   0.148   0.149   0.151   0.157   0.158   0.172   0.176
 89 A    90 A    91 A    92 A    93 A    94 A    95 A    96 A                  
  0.180   0.187   0.192   0.201   0.204   0.211   0.216   0.220
 97 A    98 A    99 A   100 A   101 A   102 A   103 A   104 A                  
  0.227   0.233   0.238   0.242   0.258   0.260   0.264   0.274
105 A   106 A   107 A   108 A   109 A   110 A   111 A   112 A                  
  0.279   0.283   0.287   0.290   0.302   0.306   0.317   0.318
113 A   114 A   115 A   116 A   117 A   118 A   119 A   120 A                  
  0.320   0.325   0.329   0.335   0.335   0.339   0.343   0.357
121 A   122 A   123 A   124 A   125 A   126 A   127 A   128 A                  
  0.363   0.370   0.377   0.386   0.387   0.390   0.401   0.412
129 A   130 A   131 A   132 A   133 A   134 A   135 A   136 A                  
  0.414   0.418   0.418   0.422   0.430   0.435   0.436   0.441
137 A   138 A   139 A   140 A   141 A   142 A   143 A   144 A                  
  0.443   0.446   0.460   0.463   0.468   0.473   0.476   0.479
145 A   146 A   147 A   148 A   149 A   150 A   151 A   152 A                  
  0.487   0.493   0.497   0.502   0.507   0.514   0.537   0.547
153 A   154 A   155 A   156 A   157 A   158 A   159 A   160 A                  
  0.556   0.565   0.565   0.576   0.585   0.597   0.603   0.616
161 A   162 A   163 A   164 A   165 A   166 A   167 A   168 A                  
  0.626   0.653   0.678   0.685   0.745   0.768   0.795   0.833
169 A   170 A   171 A   172 A   173 A   174 A   175 A   176 A                  
  0.838   0.841   0.867   0.871   0.881   0.896   0.913   0.917
177 A   178 A   179 A   180 A   181 A   182 A   183 A   184 A                  
  0.919   0.921   0.934   0.936   0.940   0.948   0.968   0.979
185 A   186 A   187 A   188 A   189 A   190 A   191 A   192 A                  
  0.987   1.010   1.014   1.015   1.028   1.048   1.050   1.076
193 A   194 A   195 A   196 A   197 A   198 A   199 A   200 A                  
  1.080   1.088   1.091   1.126   1.149   1.167   1.170   1.185
201 A   202 A   203 A   204 A   205 A   206 A   207 A   208 A                  
  1.192   1.198   1.204   1.216   1.227   1.239   1.246   1.254
209 A   210 A   211 A   212 A   213 A   214 A   215 A   216 A                  
  1.275   1.281   1.299   1.305   1.331   1.340   1.351   1.364
217 A   218 A   219 A   220 A   221 A   222 A   223 A   224 A                  
  1.385   1.389   1.402   1.413   1.432   1.447   1.453   1.464
225 A   226 A   227 A   228 A   229 A   230 A   231 A   232 A                  
  1.471   1.474   1.503   1.514   1.535   1.547   1.565   1.588
233 A   234 A   235 A   236 A   237 A   238 A   239 A   240 A                  
  1.600   1.606   1.633   1.656   1.670   1.683   1.699   1.700
241 A   242 A   243 A   244 A   245 A   246 A   247 A   248 A                  
  1.717   1.728   1.761   1.782   1.793   1.808   1.822   1.847
249 A   250 A   251 A   252 A   253 A   254 A   255 A   256 A                  
  1.872   1.883   1.913   1.935   1.940   1.941   1.969   1.970
257 A   258 A   259 A   260 A   261 A   262 A   263 A   264 A                  
  1.976   1.983   2.000   2.016   2.028   2.044   2.057   2.082
265 A   266 A   267 A   268 A   269 A   270 A   271 A   272 A                  
  2.097   2.113   2.119   2.120   2.129   2.129   2.158   2.160
273 A   274 A   275 A   276 A   277 A   278 A   279 A   280 A                  
  2.163   2.177   2.193   2.196   2.226   2.249   2.263   2.273
281 A   282 A   283 A   284 A   285 A   286 A   287 A   288 A                  
  2.290   2.305   2.325   2.335   2.351   2.355   2.360   2.373
289 A   290 A   291 A   292 A   293 A   294 A   295 A   296 A                  
  2.395   2.403   2.416   2.426   2.437   2.439   2.449   2.456
297 A   298 A   299 A   300 A   301 A   302 A   303 A   304 A                  
  2.491   2.498   2.538   2.561   2.563   2.579   2.590   2.592
305 A   306 A   307 A   308 A   309 A   310 A   311 A   312 A                  
  2.609   2.668   2.668   2.701   2.714   2.735   2.740   2.803
313 A   314 A   315 A   316 A   317 A   318 A   319 A   320 A                  
  2.814   2.829   2.854   2.914   2.957   2.968   2.979   2.995
321 A   322 A   323 A   324 A   325 A   326 A   327 A   328 A                  
  3.065   3.086   3.101   3.109   3.131   3.147   3.156   3.175
329 A   330 A   331 A   332 A   333 A   334 A   335 A   336 A                  
  3.256   3.281   3.320   3.379   3.485   3.511   3.522   3.606
337 A   338 A   339 A   340 A   341 A   342 A   343 A   344 A                  
  3.616   3.686   3.722   3.808   4.600   4.657   4.677   4.693
345 A   346 A   347 A   348 A   349 A   350 A   351 A   352 A                  
  4.761   4.794   4.803   4.833   4.859   4.875   4.969   5.008
353 A   354 A   355 A   356 A   357 A   358 A   359 A   360 A                  
  5.040   5.111   5.198   5.985   6.464   7.331
361 A   362 A   363 A   364 A   365 A   366 A                                  

 Occupation and symmetry of molecular orbitals

 Point group: C1 (1 irreducible representation).

                           A     All 
 -------------------------------------
 All molecular orbitals:
  - Alpha                  366   366 
  - Beta                   366   366 
 -------------------------------------
 Alpha orbitals:
  - Frozen occupied        22    22  
  - Active occupied        50    50  
  - Active virtual         294   294 
  - Frozen virtual         0     0   
 -------------------------------------
 Beta orbitals:
  - Frozen occupied        22    22  
  - Active occupied        50    50  
  - Active virtual         294   294 
  - Frozen virtual         0     0   
 -------------------------------------

 Import integrals:   CPU 0.00 s  wall 0.00 s

 Import integrals:   CPU 1746.33 s  wall 806.40 s

 MP2 amplitudes:   CPU 26.43 s  wall 83.12 s

           CCSD T amplitudes will be solved using DIIS.

           Start     Size      MaxIter   EConv     TConv     
           3         7         100       1.00e-06  1.00e-04  
 ------------------------------------------------------------------------------
           Energy (a.u.)   Ediff      Tdiff       Comment
 ------------------------------------------------------------------------------
         -1387.59145002                           
     1   -1387.57987876   1.16e-02   1.48e+00     Step took 53.43.
     2   -1387.65900720   7.91e-02   2.01e-01     
     3   -1387.65786499   1.14e-03   7.43e-02     
     4   -1387.66567172   7.81e-03   2.44e-02     Switched to DIIS steps.
     5   -1387.66832981   2.66e-03   1.65e-02     
     6   -1387.66848712   1.57e-04   3.36e-03     
     7   -1387.66847284   1.43e-05   1.77e-03     
     8   -1387.66846384   9.00e-06   4.53e-04     
     9   -1387.66846488   1.04e-06   1.92e-04     
    10   -1387.66846496   7.70e-08   5.26e-05     
 ------------------------------------------------------------------------------
         -1387.66846496                           CCSD T converged.


 ------------------------------------------------------------------------------
 == (T) code is based on LIBPT ==
 == Author: Ilya Kaliman, 2016 ==

 Starting (T) calculation...
 (T) calculation completed in 80612 sec
 ------------------------------------------------------------------------------

 SCF energy                 = -1385.00007737
 MP2 energy                 = -1387.59145002
 CCSD correlation energy     =    -2.66838759
 CCSD total energy           = -1387.66846496
 CCSD(T) correlation energy =    -0.09951225
 CCSD(T) total energy       = -1387.76797721

 CCSD  T1^2 = 0.0376  T2^2 = 0.8851  Leading amplitudes:

 Amplitude    Orbitals with energies
  0.0205       53 (A) A                  ->    105 (A) A                  
              -0.6449                          0.2270                     
  0.0205       53 (A) B                  ->    105 (A) B                  
              -0.6449                          0.2270                     
  0.0203       45 (A) A                  ->    105 (A) A                  
              -0.7123                          0.2270                     
  0.0203       45 (A) B                  ->    105 (A) B                  
              -0.7123                          0.2270                     

 Amplitude    Orbitals with energies
 -0.0422       71 (A) A      71 (A) B    ->    78 (A) A      78 (A) B     
              -0.3602       -0.3602            0.0876        0.0876       
  0.0422       71 (A) A      71 (A) B    ->    78 (A) B      78 (A) A     
              -0.3602       -0.3602            0.0876        0.0876       
  0.0422       71 (A) B      71 (A) A    ->    78 (A) A      78 (A) B     
              -0.3602       -0.3602            0.0876        0.0876       
 -0.0422       71 (A) B      71 (A) A    ->    78 (A) B      78 (A) A     
              -0.3602       -0.3602            0.0876        0.0876       

 CCSD calculation:   CPU 395735.51 s  wall 118789.04 s

 Total ccman2 time:   CPU 397542.05 s  wall 119705.58 s

 
 --------------------------------------------------------------
 
                    Orbital Energies (a.u.)
 --------------------------------------------------------------
 
 Alpha MOs
 -- Occupied --
******* -26.354 -26.347 -26.346 -20.633 -20.569 -15.638 -11.520
-11.437 -11.335 -11.330 -11.304 -11.281 -11.279 -11.267 -11.261
-11.243 -11.234 -10.572  -8.041  -8.038  -8.038  -1.733  -1.637
 -1.632  -1.496  -1.389  -1.294  -1.213  -1.138  -1.093  -1.072
 -1.028  -0.983  -0.952  -0.894  -0.868  -0.839  -0.824  -0.821
 -0.814  -0.802  -0.769  -0.735  -0.712  -0.709  -0.708  -0.688
 -0.668  -0.663  -0.659  -0.649  -0.645  -0.644  -0.630  -0.615
 -0.606  -0.591  -0.568  -0.560  -0.557  -0.536  -0.531  -0.515
 -0.505  -0.499  -0.480  -0.476  -0.463  -0.460  -0.360  -0.341
 -- Virtual --
  0.053   0.074   0.079   0.080   0.083   0.088   0.091   0.095
  0.099   0.110   0.112   0.112   0.123   0.127   0.128   0.134
  0.141   0.148   0.149   0.151   0.157   0.158   0.172   0.176
  0.180   0.187   0.192   0.201   0.204   0.211   0.216   0.220
  0.227   0.233   0.238   0.242   0.258   0.260   0.264   0.274
  0.279   0.283   0.287   0.290   0.302   0.306   0.317   0.318
  0.320   0.325   0.329   0.335   0.335   0.339   0.343   0.357
  0.363   0.370   0.377   0.386   0.387   0.390   0.401   0.412
  0.414   0.418   0.418   0.422   0.430   0.435   0.436   0.441
  0.443   0.446   0.460   0.463   0.468   0.473   0.476   0.479
  0.487   0.493   0.497   0.502   0.507   0.514   0.537   0.547
  0.556   0.565   0.565   0.576   0.585   0.597   0.603   0.616
  0.626   0.653   0.678   0.685   0.745   0.768   0.795   0.833
  0.838   0.841   0.867   0.871   0.881   0.896   0.913   0.917
  0.919   0.921   0.934   0.936   0.940   0.948   0.968   0.979
  0.987   1.010   1.014   1.015   1.028   1.048   1.050   1.076
  1.080   1.088   1.091   1.126   1.149   1.167   1.170   1.185
  1.192   1.198   1.204   1.216   1.227   1.239   1.246   1.254
  1.275   1.281   1.299   1.305   1.331   1.340   1.351   1.364
  1.385   1.389   1.402   1.413   1.432   1.447   1.453   1.464
  1.471   1.474   1.503   1.514   1.535   1.547   1.565   1.588
  1.600   1.606   1.633   1.656   1.670   1.683   1.699   1.700
  1.717   1.728   1.761   1.782   1.793   1.808   1.822   1.847
  1.872   1.883   1.913   1.935   1.940   1.941   1.969   1.970
  1.976   1.983   2.000   2.016   2.028   2.044   2.057   2.082
  2.097   2.113   2.119   2.120   2.129   2.129   2.158   2.160
  2.163   2.177   2.193   2.196   2.226   2.249   2.263   2.273
  2.290   2.305   2.325   2.335   2.351   2.355   2.360   2.373
  2.395   2.403   2.416   2.426   2.437   2.439   2.449   2.456
  2.491   2.498   2.538   2.561   2.563   2.579   2.590   2.592
  2.609   2.668   2.668   2.701   2.714   2.735   2.740   2.803
  2.814   2.829   2.854   2.914   2.957   2.968   2.979   2.995
  3.065   3.086   3.101   3.109   3.131   3.147   3.156   3.175
  3.256   3.281   3.320   3.379   3.485   3.511   3.522   3.606
  3.616   3.686   3.722   3.808   4.600   4.657   4.677   4.693
  4.761   4.794   4.803   4.833   4.859   4.875   4.969   5.008
  5.040   5.111   5.198   5.985   6.464   7.331
 --------------------------------------------------------------
 
          Ground-State Mulliken Net Atomic Charges

     Atom                 Charge (a.u.)
  ----------------------------------------
      1 C                    -0.243303
      2 N                    -0.919955
      3 C                     0.738813
      4 O                    -0.587045
      5 O                    -0.480110
      6 C                     0.054808
      7 C                    -0.279252
      8 C                    -0.690363
      9 C                     0.049029
     10 C                     0.448810
     11 C                    -1.210353
     12 C                    -0.033485
     13 C                    -0.450707
     14 H                     0.498971
     15 H                     0.212492
     16 H                     0.212492
     17 H                     0.204278
     18 H                     0.204277
     19 H                     0.196672
     20 H                     0.204400
     21 H                     0.196671
     22 H                     0.334525
     23 Cl                    0.300544
     24 C                     1.691356
     25 H                     0.279454
     26 H                     0.238267
     27 F                    -0.439887
     28 F                    -0.365701
     29 F                    -0.365700
  ----------------------------------------
  Sum of atomic charges =    -0.000000

 -----------------------------------------------------------------
                    Cartesian Multipole Moments
 -----------------------------------------------------------------
    Charge (ESU x 10^10)
                 0.0000
    Dipole Moment (Debye)
         X      -5.8170      Y      -3.7974      Z      -0.0001
       Tot       6.9468
    Quadrupole Moments (Debye-Ang)
        XX    -109.1166     XY       0.7827     YY    -107.9070
        XZ      -0.0005     YZ      -0.0001     ZZ    -113.7703
    Octopole Moments (Debye-Ang^2)
       XXX    -137.8829    XXY      -2.1699    XYY      27.5995
       YYY     -19.8687    XXZ       0.0009    XYZ       0.0003
       YYZ      -0.0002    XZZ       9.9619    YZZ       3.7700
       ZZZ       0.0028
    Hexadecapole Moments (Debye-Ang^3)
      XXXX   -9102.2537   XXXY       4.2323   XXYY   -1766.3078
      XYYY      18.3008   YYYY    -967.7931   XXXZ      -0.0027
      XXYZ      -0.0018   XYYZ       0.0062   YYYZ       0.0001
      XXZZ   -1620.8655   XYZZ      -9.9763   YYZZ    -215.0437
      XZZZ       0.0074   YZZZ      -0.0019   ZZZZ    -201.8120
 -----------------------------------------------------------------
Archival summary:
1\1\r4298\SP\ProcedureUnspecified\6-31+G*\l13211111\hio507\TueDec1019:57:392019TueDec1019:57:392019\0\\#,ProcedureUnspecified,6-31+G*,\\0,1\Cl\C,1,1.73705\C,2,1.38738,1,117.382\H,3,1.07912,2,119.917,1,-0,0\C,2,1.39463,1,120.797,3,180,0\C,5,1.3921,2,118.218,1,-180,0\H,6,1.08238,5,119.366,2,180,0\C,6,1.38233,5,120.941,2,-0,0\H,8,1.08471,6,119.72,5,-180,0\C,3,1.39712,2,119.195,1,-180,0\N,10,1.39699,3,123.08,2,-180,0\H,11,1.00935,10,117.175,3,-179.999,0\C,11,1.37409,10,127.666,3,-0.0119177,0\O,13,1.20272,11,126.453,10,0.00890655,0\O,13,1.34273,11,108.807,10,-179.991,0\C,15,1.4366,13,115.362,11,-179.997,0\H,16,1.09268,15,108.788,13,58.6345,0\H,16,1.09268,15,108.787,13,-58.6367,0\C,5,1.50373,2,121.868,1,0,0\F,19,1.33967,5,112.298,2,-60.4223,0\F,19,1.33967,5,112.298,2,60.4273,0\F,19,1.34251,5,111.202,2,-179.997,0\C,16,1.51325,15,107.692,13,179.999,0\H,23,1.09338,16,109.01,15,58.2386,0\H,23,1.09338,16,109.01,15,-58.2393,0\C,23,1.52631,16,110.897,15,180,0\H,26,1.09062,23,111.022,16,180,0\H,26,1.09267,23,111.3,16,60.0845,0\H,26,1.09267,23,111.3,16,-60.0859,0\\HF=-1385.00008\\@

 Total job time:  119766.39s(wall), 397780.06s(cpu) 
 Tue Dec 10 19:57:39 2019

        *************************************************************
        *                                                           *
        *  Thank you very much for using Q-Chem.  Have a nice day.  *
        *                                                           *
        *************************************************************


0 sent ACK to 0 
now end server 0 ... 
