 Entering Gaussian System, Link 0=/apps/gaussian/g09e01/g09/g09
 Initial command:
 /apps/gaussian/g09e01/g09/l1.exe "/jobfs/local/3588324.r-man2/Gau-37133.inp" -scrdir="/jobfs/local/3588324.r-man2/"
 Entering Link 1 = /apps/gaussian/g09e01/g09/l1.exe PID=     37134.
  
 Copyright (c) 1988,1990,1992,1993,1995,1998,2003,2009,2015,
            Gaussian, Inc.  All Rights Reserved.
  
 This is part of the Gaussian(R) 09 program.  It is based on
 the Gaussian(R) 03 system (copyright 2003, Gaussian, Inc.),
 the Gaussian(R) 98 system (copyright 1998, Gaussian, Inc.),
 the Gaussian(R) 94 system (copyright 1995, Gaussian, Inc.),
 the Gaussian 92(TM) system (copyright 1992, Gaussian, Inc.),
 the Gaussian 90(TM) system (copyright 1990, Gaussian, Inc.),
 the Gaussian 88(TM) system (copyright 1988, Gaussian, Inc.),
 the Gaussian 86(TM) system (copyright 1986, Carnegie Mellon
 University), and the Gaussian 82(TM) system (copyright 1983,
 Carnegie Mellon University). Gaussian is a federally registered
 trademark of Gaussian, Inc.
  
 This software contains proprietary and confidential information,
 including trade secrets, belonging to Gaussian, Inc.
  
 This software is provided under written license and may be
 used, copied, transmitted, or stored only in accord with that
 written license.
  
 The following legend is applicable only to US Government
 contracts under FAR:
  
                    RESTRICTED RIGHTS LEGEND
  
 Use, reproduction and disclosure by the US Government is
 subject to restrictions as set forth in subparagraphs (a)
 and (c) of the Commercial Computer Software - Restricted
 Rights clause in FAR 52.227-19.
  
 Gaussian, Inc.
 340 Quinnipiac St., Bldg. 40, Wallingford CT 06492
  
  
 ---------------------------------------------------------------
 Warning -- This program may not be used in any manner that
 competes with the business of Gaussian, Inc. or will provide
 assistance to any competitor of Gaussian, Inc.  The licensee
 of this program is prohibited from giving any competitor of
 Gaussian, Inc. access to this program.  By using this program,
 the user acknowledges that Gaussian, Inc. is engaged in the
 business of creating and licensing software in the field of
 computational chemistry and represents and warrants to the
 licensee that it is not a competitor of Gaussian, Inc. and that
 it will not use this program in any manner prohibited above.
 ---------------------------------------------------------------
  

 Cite this work as:
 Gaussian 09, Revision E.01,
 M. J. Frisch, G. W. Trucks, H. B. Schlegel, G. E. Scuseria, 
 M. A. Robb, J. R. Cheeseman, G. Scalmani, V. Barone, B. Mennucci, 
 G. A. Petersson, H. Nakatsuji, M. Caricato, X. Li, H. P. Hratchian, 
 A. F. Izmaylov, J. Bloino, G. Zheng, J. L. Sonnenberg, M. Hada, 
 M. Ehara, K. Toyota, R. Fukuda, J. Hasegawa, M. Ishida, T. Nakajima, 
 Y. Honda, O. Kitao, H. Nakai, T. Vreven, J. A. Montgomery, Jr., 
 J. E. Peralta, F. Ogliaro, M. Bearpark, J. J. Heyd, E. Brothers, 
 K. N. Kudin, V. N. Staroverov, T. Keith, R. Kobayashi, J. Normand, 
 K. Raghavachari, A. Rendell, J. C. Burant, S. S. Iyengar, J. Tomasi, 
 M. Cossi, N. Rega, J. M. Millam, M. Klene, J. E. Knox, J. B. Cross, 
 V. Bakken, C. Adamo, J. Jaramillo, R. Gomperts, R. E. Stratmann, 
 O. Yazyev, A. J. Austin, R. Cammi, C. Pomelli, J. W. Ochterski, 
 R. L. Martin, K. Morokuma, V. G. Zakrzewski, G. A. Voth, 
 P. Salvador, J. J. Dannenberg, S. Dapprich, A. D. Daniels, 
 O. Farkas, J. B. Foresman, J. V. Ortiz, J. Cioslowski, 
 and D. J. Fox, Gaussian, Inc., Wallingford CT, 2013.
 
 ******************************************
 Gaussian 09:  ES64L-G09RevE.01 30-Nov-2015
                14-Nov-2019 
 ******************************************
 %chk=CP19CA.M062X_6-311pGd_opt_Pentadecane_GD3.chk
 %mem=196608000
 %nproc=4
 Will use up to    4 processors via shared memory.
 ----------------------------------------------------------------------
 # M062X/6-311+G* SCF=Tight INT(grid=ultrafine) OPT IOP(2/17=4) Empiric
 alDispersion=GD3 SCRF=(SMD,Solvent=n-Pentadecane) maxdisk=2147483648
 ----------------------------------------------------------------------
 1/14=-1,18=20,19=15,26=4,38=1/1,3;
 2/9=110,12=2,17=4,18=5,40=1/2;
 3/5=4,6=6,7=11,11=2,16=1,25=1,30=1,70=32201,71=1,72=151,74=-55,75=-5,124=31/1,2,3;
 4//1;
 5/5=2,32=2,38=5,53=151/2;
 6/7=2,8=2,9=2,10=2,28=1/1;
 7//1,2,3,16;
 1/14=-1,18=20,19=15,26=4/3(2);
 2/9=110,17=4/2;
 99//99;
 2/9=110,17=4/2;
 3/5=4,6=6,7=11,11=2,16=1,25=1,30=1,70=32205,71=1,72=151,74=-55,75=-5,124=31/1,2,3;
 4/5=5,16=3,69=1/1;
 5/5=2,32=2,38=5,53=151/2;
 7//1,2,3,16;
 1/14=-1,18=20,19=15,26=4/3(-5);
 2/9=110,17=4/2;
 6/7=2,8=2,9=2,10=2,19=2,28=1/1;
 99/9=1/99;
 -----------------------------------------
 CP19CA.M062X_6-311pGd_opt_Pentadecane_GD3
 -----------------------------------------
 Symbolic Z-matrix:
 Charge =  0 Multiplicity = 1
 C                    -6.29658   1.28316   0.01956 
 N                    -5.00053   0.76795   0.044 
 C                    -3.81763   1.46373   0.00233 
 O                    -3.69708   2.66063  -0.0637 
 O                    -2.79952   0.5945    0.04701 
 C                    -1.48342   1.17529   0.01102 
 C                    -0.4786    0.04626   0.07024 
 C                     0.94607   0.59016   0.03568 
 C                    -6.57596   2.65091  -0.0541 
 C                    -7.89738   3.07048  -0.07323 
 C                    -8.95836   2.16731  -0.02109 
 C                    -8.66251   0.8082    0.05206 
 C                    -7.35324   0.36685   0.0724 
 H                    -4.91051  -0.2372    0.09869 
 H                    -1.37659   1.85575   0.85918 
 H                    -1.38194   1.75834  -0.90744 
 H                    -0.64847  -0.62855  -0.77328 
 H                    -0.64293  -0.53145   0.98402 
 H                     1.13352   1.15623  -0.88037 
 H                     1.67506  -0.22063   0.0783 
 H                     1.13902   1.25383   0.88247 
 H                    -5.77999   3.37823  -0.09592 
 Cl                   -8.19112   4.78365  -0.16565 
 C                    -10.38898   2.62349  -0.04191 
 H                    -9.46962   0.0879    0.09353 
 H                    -7.14397  -0.69578   0.12964 
 F                    -11.23624   1.58424   0.01709 
 F                    -10.68817   3.42151   0.99455 
 F                    -10.69423   3.30429  -1.15723 
 

 GradGradGradGradGradGradGradGradGradGradGradGradGradGradGradGradGradGrad
 Berny optimization.
 Initialization pass.
                           ----------------------------
                           !    Initial Parameters    !
                           ! (Angstroms and Degrees)  !
 --------------------------                            --------------------------
 ! Name  Definition              Value          Derivative Info.                !
 --------------------------------------------------------------------------------
 ! R1    R(1,2)                  1.3949         estimate D2E/DX2                !
 ! R2    R(1,9)                  1.3979         estimate D2E/DX2                !
 ! R3    R(1,13)                 1.3996         estimate D2E/DX2                !
 ! R4    R(2,3)                  1.373          estimate D2E/DX2                !
 ! R5    R(2,14)                 1.0107         estimate D2E/DX2                !
 ! R6    R(3,4)                  1.2048         estimate D2E/DX2                !
 ! R7    R(3,5)                  1.3394         estimate D2E/DX2                !
 ! R8    R(5,6)                  1.439          estimate D2E/DX2                !
 ! R9    R(6,7)                  1.5126         estimate D2E/DX2                !
 ! R10   R(6,15)                 1.0926         estimate D2E/DX2                !
 ! R11   R(6,16)                 1.0926         estimate D2E/DX2                !
 ! R12   R(7,8)                  1.5254         estimate D2E/DX2                !
 ! R13   R(7,17)                 1.0935         estimate D2E/DX2                !
 ! R14   R(7,18)                 1.0935         estimate D2E/DX2                !
 ! R15   R(8,19)                 1.093          estimate D2E/DX2                !
 ! R16   R(8,20)                 1.0912         estimate D2E/DX2                !
 ! R17   R(8,21)                 1.093          estimate D2E/DX2                !
 ! R18   R(9,10)                 1.3866         estimate D2E/DX2                !
 ! R19   R(9,22)                 1.079          estimate D2E/DX2                !
 ! R20   R(10,11)                1.3943         estimate D2E/DX2                !
 ! R21   R(10,23)                1.7406         estimate D2E/DX2                !
 ! R22   R(11,12)                1.3929         estimate D2E/DX2                !
 ! R23   R(11,24)                1.5017         estimate D2E/DX2                !
 ! R24   R(12,13)                1.3818         estimate D2E/DX2                !
 ! R25   R(12,25)                1.0826         estimate D2E/DX2                !
 ! R26   R(13,26)                1.0846         estimate D2E/DX2                !
 ! R27   R(24,27)                1.3422         estimate D2E/DX2                !
 ! R28   R(24,28)                1.3419         estimate D2E/DX2                !
 ! R29   R(24,29)                1.3419         estimate D2E/DX2                !
 ! A1    A(2,1,9)              123.2288         estimate D2E/DX2                !
 ! A2    A(2,1,13)             117.3221         estimate D2E/DX2                !
 ! A3    A(9,1,13)             119.4491         estimate D2E/DX2                !
 ! A4    A(1,2,3)              127.7912         estimate D2E/DX2                !
 ! A5    A(1,2,14)             116.8109         estimate D2E/DX2                !
 ! A6    A(3,2,14)             115.3979         estimate D2E/DX2                !
 ! A7    A(2,3,4)              126.2512         estimate D2E/DX2                !
 ! A8    A(2,3,5)              108.9646         estimate D2E/DX2                !
 ! A9    A(4,3,5)              124.7842         estimate D2E/DX2                !
 ! A10   A(3,5,6)              115.6212         estimate D2E/DX2                !
 ! A11   A(5,6,7)              107.778          estimate D2E/DX2                !
 ! A12   A(5,6,15)             108.7455         estimate D2E/DX2                !
 ! A13   A(5,6,16)             108.744          estimate D2E/DX2                !
 ! A14   A(7,6,15)             111.6861         estimate D2E/DX2                !
 ! A15   A(7,6,16)             111.686          estimate D2E/DX2                !
 ! A16   A(15,6,16)            108.1271         estimate D2E/DX2                !
 ! A17   A(6,7,8)              110.6965         estimate D2E/DX2                !
 ! A18   A(6,7,17)             109.1009         estimate D2E/DX2                !
 ! A19   A(6,7,18)             109.1008         estimate D2E/DX2                !
 ! A20   A(8,7,17)             110.3445         estimate D2E/DX2                !
 ! A21   A(8,7,18)             110.345          estimate D2E/DX2                !
 ! A22   A(17,7,18)            107.1716         estimate D2E/DX2                !
 ! A23   A(7,8,19)             111.335          estimate D2E/DX2                !
 ! A24   A(7,8,20)             110.9863         estimate D2E/DX2                !
 ! A25   A(7,8,21)             111.3356         estimate D2E/DX2                !
 ! A26   A(19,8,20)            107.6364         estimate D2E/DX2                !
 ! A27   A(19,8,21)            107.7316         estimate D2E/DX2                !
 ! A28   A(20,8,21)            107.6364         estimate D2E/DX2                !
 ! A29   A(1,9,10)             119.1602         estimate D2E/DX2                !
 ! A30   A(1,9,22)             120.9381         estimate D2E/DX2                !
 ! A31   A(10,9,22)            119.9018         estimate D2E/DX2                !
 ! A32   A(9,10,11)            121.9149         estimate D2E/DX2                !
 ! A33   A(9,10,23)            117.3472         estimate D2E/DX2                !
 ! A34   A(11,10,23)           120.7379         estimate D2E/DX2                !
 ! A35   A(10,11,12)           118.1899         estimate D2E/DX2                !
 ! A36   A(10,11,24)           121.8442         estimate D2E/DX2                !
 ! A37   A(12,11,24)           119.9658         estimate D2E/DX2                !
 ! A38   A(11,12,13)           120.91           estimate D2E/DX2                !
 ! A39   A(11,12,25)           119.531          estimate D2E/DX2                !
 ! A40   A(13,12,25)           119.559          estimate D2E/DX2                !
 ! A41   A(1,13,12)            120.3759         estimate D2E/DX2                !
 ! A42   A(1,13,26)            119.8521         estimate D2E/DX2                !
 ! A43   A(12,13,26)           119.772          estimate D2E/DX2                !
 ! A44   A(11,24,27)           111.4417         estimate D2E/DX2                !
 ! A45   A(11,24,28)           112.4794         estimate D2E/DX2                !
 ! A46   A(11,24,29)           112.4793         estimate D2E/DX2                !
 ! A47   A(27,24,28)           106.606          estimate D2E/DX2                !
 ! A48   A(27,24,29)           106.606          estimate D2E/DX2                !
 ! A49   A(28,24,29)           106.8309         estimate D2E/DX2                !
 ! D1    D(9,1,2,3)             -0.0277         estimate D2E/DX2                !
 ! D2    D(9,1,2,14)           179.985          estimate D2E/DX2                !
 ! D3    D(13,1,2,3)           179.9743         estimate D2E/DX2                !
 ! D4    D(13,1,2,14)           -0.0129         estimate D2E/DX2                !
 ! D5    D(2,1,9,10)          -179.9983         estimate D2E/DX2                !
 ! D6    D(2,1,9,22)             0.0021         estimate D2E/DX2                !
 ! D7    D(13,1,9,10)           -0.0004         estimate D2E/DX2                !
 ! D8    D(13,1,9,22)          180.0            estimate D2E/DX2                !
 ! D9    D(2,1,13,12)          179.9981         estimate D2E/DX2                !
 ! D10   D(2,1,13,26)           -0.0026         estimate D2E/DX2                !
 ! D11   D(9,1,13,12)            0.0001         estimate D2E/DX2                !
 ! D12   D(9,1,13,26)          179.9994         estimate D2E/DX2                !
 ! D13   D(1,2,3,4)             -0.0003         estimate D2E/DX2                !
 ! D14   D(1,2,3,5)           -179.9995         estimate D2E/DX2                !
 ! D15   D(14,2,3,4)           179.9871         estimate D2E/DX2                !
 ! D16   D(14,2,3,5)            -0.0121         estimate D2E/DX2                !
 ! D17   D(2,3,5,6)            179.9898         estimate D2E/DX2                !
 ! D18   D(4,3,5,6)             -0.0095         estimate D2E/DX2                !
 ! D19   D(3,5,6,7)            179.9918         estimate D2E/DX2                !
 ! D20   D(3,5,6,15)            58.7532         estimate D2E/DX2                !
 ! D21   D(3,5,6,16)           -58.7705         estimate D2E/DX2                !
 ! D22   D(5,6,7,8)            179.9892         estimate D2E/DX2                !
 ! D23   D(5,6,7,17)            58.3793         estimate D2E/DX2                !
 ! D24   D(5,6,7,18)           -58.4004         estimate D2E/DX2                !
 ! D25   D(15,6,7,8)           -60.6246         estimate D2E/DX2                !
 ! D26   D(15,6,7,17)          177.7655         estimate D2E/DX2                !
 ! D27   D(15,6,7,18)           60.9858         estimate D2E/DX2                !
 ! D28   D(16,6,7,8)            60.6048         estimate D2E/DX2                !
 ! D29   D(16,6,7,17)          -61.0052         estimate D2E/DX2                !
 ! D30   D(16,6,7,18)         -177.7848         estimate D2E/DX2                !
 ! D31   D(6,7,8,19)           -60.1253         estimate D2E/DX2                !
 ! D32   D(6,7,8,20)           179.9937         estimate D2E/DX2                !
 ! D33   D(6,7,8,21)            60.1123         estimate D2E/DX2                !
 ! D34   D(17,7,8,19)           60.7496         estimate D2E/DX2                !
 ! D35   D(17,7,8,20)          -59.1314         estimate D2E/DX2                !
 ! D36   D(17,7,8,21)         -179.0128         estimate D2E/DX2                !
 ! D37   D(18,7,8,19)          178.9996         estimate D2E/DX2                !
 ! D38   D(18,7,8,20)           59.1186         estimate D2E/DX2                !
 ! D39   D(18,7,8,21)          -60.7628         estimate D2E/DX2                !
 ! D40   D(1,9,10,11)            0.0005         estimate D2E/DX2                !
 ! D41   D(1,9,10,23)          179.9999         estimate D2E/DX2                !
 ! D42   D(22,9,10,11)        -179.9999         estimate D2E/DX2                !
 ! D43   D(22,9,10,23)          -0.0004         estimate D2E/DX2                !
 ! D44   D(9,10,11,12)          -0.0002         estimate D2E/DX2                !
 ! D45   D(9,10,11,24)        -179.9999         estimate D2E/DX2                !
 ! D46   D(23,10,11,12)       -179.9997         estimate D2E/DX2                !
 ! D47   D(23,10,11,24)          0.0006         estimate D2E/DX2                !
 ! D48   D(10,11,12,13)         -0.0001         estimate D2E/DX2                !
 ! D49   D(10,11,12,25)       -179.9997         estimate D2E/DX2                !
 ! D50   D(24,11,12,13)        179.9996         estimate D2E/DX2                !
 ! D51   D(24,11,12,25)          0.0            estimate D2E/DX2                !
 ! D52   D(10,11,24,27)       -179.9978         estimate D2E/DX2                !
 ! D53   D(10,11,24,28)        -60.3413         estimate D2E/DX2                !
 ! D54   D(10,11,24,29)         60.3458         estimate D2E/DX2                !
 ! D55   D(12,11,24,27)          0.0025         estimate D2E/DX2                !
 ! D56   D(12,11,24,28)        119.659          estimate D2E/DX2                !
 ! D57   D(12,11,24,29)       -119.6539         estimate D2E/DX2                !
 ! D58   D(11,12,13,1)           0.0002         estimate D2E/DX2                !
 ! D59   D(11,12,13,26)       -179.9991         estimate D2E/DX2                !
 ! D60   D(25,12,13,1)         179.9997         estimate D2E/DX2                !
 ! D61   D(25,12,13,26)          0.0004         estimate D2E/DX2                !
 --------------------------------------------------------------------------------
 Trust Radius=3.00D-01 FncErr=1.00D-07 GrdErr=1.00D-06
 Number of steps in this run=    149 maximum allowed number of steps=    174.
 GradGradGradGradGradGradGradGradGradGradGradGradGradGradGradGradGradGrad

                          Input orientation:                          
 ---------------------------------------------------------------------
 Center     Atomic      Atomic             Coordinates (Angstroms)
 Number     Number       Type             X           Y           Z
 ---------------------------------------------------------------------
      1          6           0       -6.296576    1.283158    0.019562
      2          7           0       -5.000534    0.767954    0.044004
      3          6           0       -3.817635    1.463735    0.002332
      4          8           0       -3.697083    2.660633   -0.063705
      5          8           0       -2.799524    0.594496    0.047011
      6          6           0       -1.483420    1.175293    0.011021
      7          6           0       -0.478596    0.046262    0.070237
      8          6           0        0.946070    0.590165    0.035685
      9          6           0       -6.575957    2.650914   -0.054098
     10          6           0       -7.897382    3.070483   -0.073230
     11          6           0       -8.958363    2.167308   -0.021089
     12          6           0       -8.662512    0.808203    0.052059
     13          6           0       -7.353245    0.366852    0.072404
     14          1           0       -4.910508   -0.237205    0.098692
     15          1           0       -1.376595    1.855751    0.859178
     16          1           0       -1.381942    1.758336   -0.907441
     17          1           0       -0.648468   -0.628554   -0.773284
     18          1           0       -0.642927   -0.531453    0.984021
     19          1           0        1.133517    1.156225   -0.880371
     20          1           0        1.675055   -0.220630    0.078299
     21          1           0        1.139020    1.253826    0.882469
     22          1           0       -5.779990    3.378232   -0.095921
     23         17           0       -8.191118    4.783646   -0.165647
     24          6           0      -10.388981    2.623487   -0.041909
     25          1           0       -9.469617    0.087896    0.093528
     26          1           0       -7.143973   -0.695783    0.129643
     27          9           0      -11.236242    1.584238    0.017086
     28          9           0      -10.688170    3.421507    0.994552
     29          9           0      -10.694227    3.304294   -1.157229
 ---------------------------------------------------------------------
                    Distance matrix (angstroms):
                    1          2          3          4          5
     1  C    0.000000
     2  N    1.394904   0.000000
     3  C    2.485569   1.372989   0.000000
     4  O    2.943082   2.300613   1.204765   0.000000
     5  O    3.564321   2.207837   1.339449   2.255392   0.000000
     6  C    4.814372   3.540778   2.351985   2.666856   1.439010
     7  C    5.948224   4.579242   3.628088   4.148679   2.384912
     8  C    7.275741   5.949267   4.843255   5.084839   3.745613
     9  C    1.397940   2.457056   3.003485   2.878907   4.301224
    10  C    2.401192   3.702312   4.385395   4.220258   5.668609
    11  C    2.805082   4.198433   5.188704   5.284529   6.356861
    12  C    2.413358   3.662208   4.889278   5.300980   5.866885
    13  C    1.399628   2.386825   3.702513   4.318272   4.559478
    14  H    2.058871   1.010663   2.024069   3.145829   2.269505
    15  H    5.023846   3.870497   2.616589   2.623778   2.067633
    16  H    5.023818   3.870441   2.616691   2.624101   2.067617
    17  H    6.015345   4.643132   3.875935   4.540519   2.606871
    18  H    6.015541   4.643364   3.875984   4.540375   2.607040
    19  H    7.485470   6.215449   5.038614   5.124927   4.079753
    20  H    8.112443   6.748479   5.745650   6.097681   4.548326
    21  H    7.485556   6.215563   5.038564   5.124670   4.079808
    22  H    2.160910   2.727762   2.743318   2.203290   4.080784
    23  Cl   3.984597   5.133183   5.493395   4.971311   6.831069
    24  C    4.306744   5.699626   6.673048   6.692036   7.856499
    25  H    3.391506   4.520800   5.817744   6.321854   6.689465
    26  H    2.155553   2.596958   3.967903   4.814973   4.532757
    27  F    4.948834   6.288967   7.419601   7.616041   8.494628
    28  F    4.980888   6.347762   7.212602   7.111550   8.433301
    29  F    4.980880   6.347765   7.212473   7.111267   8.433240
                    6          7          8          9         10
     6  C    0.000000
     7  C    1.512577   0.000000
     8  C    2.499080   1.525351   0.000000
     9  C    5.302418   6.631553   7.799721   0.000000
    10  C    6.688629   8.012795   9.185340   1.386566   0.000000
    11  C    7.540550   8.741489  10.029376   2.431218   1.394319
    12  C    7.188589   8.219329   9.611070   2.785779   2.391451
    13  C    5.925554   6.882120   8.302399   2.416013   2.761687
    14  H    3.707799   4.441060   5.915067   3.337409   4.460019
    15  H    1.092614   2.168659   2.770311   5.338514   6.698181
    16  H    1.092616   2.168660   2.770153   5.338791   6.698402
    17  H    2.136854   1.093509   2.163852   6.812289   8.168213
    18  H    2.136852   1.093508   2.163858   6.812195   8.168160
    19  H    2.764652   2.175909   1.093032   7.896380   9.266768
    20  H    3.453852   2.170141   1.091157   8.737420  10.123534
    21  H    2.764558   2.175916   1.093032   7.896195   9.266615
    22  H    4.829585   6.263738   7.282206   1.079030   2.139760
    23  Cl   7.618704   9.054361  10.055547   2.677636   1.740618
    24  C    9.022698  10.240625  11.516240   3.813141   2.531571
    25  H    8.060309   8.991147  10.427950   3.868348   3.375730
    26  H    5.962957   6.706818   8.192147   3.399528   3.846238
    27  F    9.761395  10.867159  12.222817   4.781330   3.655827
    28  F    9.525767  10.792685  12.012138   4.313209   3.008634
    29  F    9.525567  10.792616  12.011913   4.313230   3.008665
                   11         12         13         14         15
    11  C    0.000000
    12  C    1.392855   0.000000
    13  C    2.413874   1.381806   0.000000
    14  H    4.709688   3.895201   2.516453   0.000000
    15  H    7.639054   7.404958   6.209362   4.177002   0.000000
    16  H    7.639046   7.404735   6.209088   4.176753   1.769311
    17  H    8.799830   8.183543   6.830817   4.367893   3.060535
    18  H    8.800002   8.183947   6.831278   4.368368   2.500519
    19  H   10.178737   9.846458   8.576480   6.279367   3.133054
    20  H   10.898702  10.388671   9.047396   6.585616   3.772757
    21  H   10.178802   9.846735   8.576799   6.279671   2.586730
    22  H    3.402057   3.864697   3.401746   3.723608   4.756054
    23  Cl   2.730345   4.009209   4.501863   6.003435   7.487361
    24  C    1.501732   2.506946   3.784331   6.181989   9.089801
    25  H    2.144405   1.082579   2.134782   4.570688   8.319167
    26  H    3.392938   2.138681   1.084558   2.280267   6.348638
    27  F    2.351630   2.688408   4.069737   6.583253   9.899267
    28  F    2.365750   3.438160   4.615518   6.897109   9.443270
    29  F    2.365751   3.438126   4.615488   6.897170   9.642741
                   16         17         18         19         20
    16  H    0.000000
    17  H    2.500645   0.000000
    18  H    3.060540   1.759995   0.000000
    19  H    2.586659   2.524356   3.078955   0.000000
    20  H    3.772694   2.508058   2.507985   1.762963   0.000000
    21  H    3.132660   3.078959   2.524454   1.765548   1.762964
    22  H    4.756622   6.545661   6.545329   7.304057   8.280088
    23  Cl   7.487833   9.303372   9.303075  10.030845  11.065427
    24  C    9.089795  10.295061  10.295229  11.645764  12.395339
    25  H    8.318821   8.892544   8.893088  10.701226  11.148952
    26  H    6.348168   6.558306   6.559006   8.542066   8.831968
    27  F    9.899106  10.845373  10.845711  12.409656  13.036982
    28  F    9.643111  10.969224  10.795041  12.181918  12.921069
    29  F    9.443041  10.794999  10.969345  12.024408  12.920943
                   21         22         23         24         25
    21  H    0.000000
    22  H    7.303633   0.000000
    23  Cl  10.030437   2.791700   0.000000
    24  C   11.645825   4.670691   3.084185   0.000000
    25  H   10.701635   4.947276   4.873582   2.700517   0.000000
    26  H    8.542581   4.302201   5.586400   4.645112   2.454400
    27  F   12.409882   5.744726   4.420677   1.342152   2.316430
    28  F   12.024718   5.028045   3.071930   1.341865   3.661923
    29  F   12.181565   5.028078   3.072014   1.341869   3.661868
                   26         27         28         29
    26  H    0.000000
    27  F    4.685919   0.000000
    28  F    5.501044   2.152064   0.000000
    29  F    5.500997   2.152067   2.154980   0.000000
 Stoichiometry    C11H11ClF3NO2
 Framework group  C1[X(C11H11ClF3NO2)]
 Deg. of freedom    81
 Full point group                 C1      NOp   1
 Largest Abelian subgroup         C1      NOp   1
 Largest concise Abelian subgroup C1      NOp   1
                         Standard orientation:                         
 ---------------------------------------------------------------------
 Center     Atomic      Atomic             Coordinates (Angstroms)
 Number     Number       Type             X           Y           Z
 ---------------------------------------------------------------------
      1          6           0       -0.219816   -0.715247   -0.000191
      2          7           0       -1.601264   -0.908526   -0.000326
      3          6           0       -2.584836    0.049433   -0.000008
      4          8           0       -2.417311    1.242494    0.000455
      5          8           0       -3.780502   -0.554310   -0.000280
      6          6           0       -4.920804    0.323448    0.000234
      7          6           0       -6.165345   -0.536207   -0.000378
      8          6           0       -7.419872    0.331467    0.000393
      9          6           0        0.376815    0.548979   -0.000252
     10          6           0        1.760177    0.643189   -0.000142
     11          6           0        2.576008   -0.487539    0.000018
     12          6           0        1.965437   -1.739437    0.000071
     13          6           0        0.588703   -1.857724   -0.000029
     14          1           0       -1.927739   -1.865006   -0.000502
     15          1           0       -4.871707    0.963392   -0.883998
     16          1           0       -4.871773    0.962229    0.885313
     17          1           0       -6.151907   -1.185897    0.879101
     18          1           0       -6.152009   -1.184493   -0.880893
     19          1           0       -7.458405    0.974060    0.883743
     20          1           0       -8.320796   -0.284130   -0.000157
     21          1           0       -7.458407    0.975643   -0.881804
     22          1           0       -0.223408    1.445660   -0.000376
     23         17           0        2.452890    2.240029   -0.000225
     24          6           0        4.074143   -0.383658    0.000139
     25          1           0        2.578145   -2.631942    0.000200
     26          1           0        0.132731   -2.841774    0.000029
     27          9           0        4.650015   -1.595988    0.000237
     28          9           0        4.543630    0.263824   -1.077336
     29          9           0        4.543448    0.263913    1.077644
 ---------------------------------------------------------------------
 Rotational constants (GHZ):      1.1308846      0.1272271      0.1169452
 Standard basis: 6-311+G(d) (5D, 7F)
 There are   455 symmetry adapted cartesian basis functions of A   symmetry.
 There are   437 symmetry adapted basis functions of A   symmetry.
   437 basis functions,   720 primitive gaussians,   455 cartesian basis functions
    72 alpha electrons       72 beta electrons
       nuclear repulsion energy      1438.7143761878 Hartrees.
 NAtoms=   29 NActive=   29 NUniq=   29 SFac= 1.00D+00 NAtFMM=   60 NAOKFM=F Big=F
 Integral buffers will be    131072 words long.
 Raffenetti 2 integral format.
 Two-electron integral symmetry is turned on.
 Nuclear repulsion after empirical dispersion term =     1438.7131446296 Hartrees.
 ------------------------------------------------------------------------------
 Polarizable Continuum Model (PCM)
 =================================
 Model                : PCM (using non-symmetric T matrix).
 Atomic radii         : SMD-Coulomb.
 Polarization charges : Total charges.
 Charge compensation  : None.
 Solution method      : On-the-fly selection.
 Cavity type          : VdW (van der Waals Surface) (Alpha=1.000).
 Cavity algorithm     : GePol (No added spheres)
                        Default sphere list used, NSphG=   29.
                        Lebedev-Laikov grids with approx.  5.0 points / Ang**2.
                        Smoothing algorithm: York/Karplus (Gamma=1.0000).
                        Polarization charges: spherical gaussians, with
                                              point-specific exponents (IZeta= 3).
                        Self-potential: point-specific (ISelfS= 7).
                        Self-field    : sphere-specific E.n sum rule (ISelfD= 2).
 1st derivatives      : Analytical E(r).r(x)/FMM algorithm (CHGder, D1EAlg=3).
                        Cavity 1st derivative terms included.
 Solvent              : n-Pentadecane, Eps=   2.033300 Eps(inf)=   2.049192
 ------------------------------------------------------------------------------
 ------------------------------------------------------------------------------
 Atomic radii for non-electrostatic terms: SMD-CDS.
 ------------------------------------------------------------------------------
 Nuclear repulsion after PCM non-electrostatic terms =     1438.7077632624 Hartrees.
 One-electron integrals computed using PRISM.
 NBasis=   437 RedAO= T EigKep=  1.80D-06  NBF=   437
 NBsUse=   435 1.00D-06 EigRej=  7.30D-07 NBFU=   435
 ExpMin= 4.38D-02 ExpMax= 1.06D+05 ExpMxC= 3.62D+03 IAcc=3 IRadAn=         5 AccDes= 0.00D+00
 Harris functional with IExCor= 1009 and IRadAn=       5 diagonalized for initial guess.
 HarFok:  IExCor= 1009 AccDes= 0.00D+00 IRadAn=         5 IDoV= 1 UseB2=F ITyADJ=14
 ICtDFT=  3500011 ScaDFX=  1.000000  1.000000  1.000000  1.000000
 FoFCou: FMM=F IPFlag=           0 FMFlag=      100000 FMFlg1=           0
         NFxFlg=           0 DoJE=T BraDBF=F KetDBF=T FulRan=T
         wScrn=  0.000000 ICntrl=     500 IOpCl=  0 I1Cent=   200000004 NGrid=           0
         NMat0=    1 NMatS0=      1 NMatT0=    0 NMatD0=    1 NMtDS0=    0 NMtDT0=    0
 Petite list used in FoFCou.
 Requested convergence on RMS density matrix=1.00D-08 within 128 cycles.
 Requested convergence on MAX density matrix=1.00D-06.
 Requested convergence on             energy=1.00D-06.
 No special actions if energy rises.
 Inv3:  Mode=1 IEnd=    17280000.
 Iteration    1 A*A^-1 deviation from unit magnitude is 5.11D-15 for   2386.
 Iteration    1 A*A^-1 deviation from orthogonality  is 2.12D-15 for   1646    367.
 Iteration    1 A^-1*A deviation from unit magnitude is 4.33D-15 for   2386.
 Iteration    1 A^-1*A deviation from orthogonality  is 3.75D-15 for   1403   1359.
 Error on total polarization charges =  0.01836
 SCF Done:  E(RM062X) =  -1390.68443420     A.U. after   16 cycles
            NFock= 16  Conv=0.45D-08     -V/T= 2.0028
 SMD-CDS (non-electrostatic) energy       (kcal/mol) =      -3.38
 (included in total energy above)

 **********************************************************************

            Population analysis using the SCF density.

 **********************************************************************

 Orbital symmetries:
       Occupied  (A) (A) (A) (A) (A) (A) (A) (A) (A) (A) (A) (A)
                 (A) (A) (A) (A) (A) (A) (A) (A) (A) (A) (A) (A)
                 (A) (A) (A) (A) (A) (A) (A) (A) (A) (A) (A) (A)
                 (A) (A) (A) (A) (A) (A) (A) (A) (A) (A) (A) (A)
                 (A) (A) (A) (A) (A) (A) (A) (A) (A) (A) (A) (A)
                 (A) (A) (A) (A) (A) (A) (A) (A) (A) (A) (A) (A)
       Virtual   (A) (A) (A) (A) (A) (A) (A) (A) (A) (A) (A) (A)
                 (A) (A) (A) (A) (A) (A) (A) (A) (A) (A) (A) (A)
                 (A) (A) (A) (A) (A) (A) (A) (A) (A) (A) (A) (A)
                 (A) (A) (A) (A) (A) (A) (A) (A) (A) (A) (A) (A)
                 (A) (A) (A) (A) (A) (A) (A) (A) (A) (A) (A) (A)
                 (A) (A) (A) (A) (A) (A) (A) (A) (A) (A) (A) (A)
                 (A) (A) (A) (A) (A) (A) (A) (A) (A) (A) (A) (A)
                 (A) (A) (A) (A) (A) (A) (A) (A) (A) (A) (A) (A)
                 (A) (A) (A) (A) (A) (A) (A) (A) (A) (A) (A) (A)
                 (A) (A) (A) (A) (A) (A) (A) (A) (A) (A) (A) (A)
                 (A) (A) (A) (A) (A) (A) (A) (A) (A) (A) (A) (A)
                 (A) (A) (A) (A) (A) (A) (A) (A) (A) (A) (A) (A)
                 (A) (A) (A) (A) (A) (A) (A) (A) (A) (A) (A) (A)
                 (A) (A) (A) (A) (A) (A) (A) (A) (A) (A) (A) (A)
                 (A) (A) (A) (A) (A) (A) (A) (A) (A) (A) (A) (A)
                 (A) (A) (A) (A) (A) (A) (A) (A) (A) (A) (A) (A)
                 (A) (A) (A) (A) (A) (A) (A) (A) (A) (A) (A) (A)
                 (A) (A) (A) (A) (A) (A) (A) (A) (A) (A) (A) (A)
                 (A) (A) (A) (A) (A) (A) (A) (A) (A) (A) (A) (A)
                 (A) (A) (A) (A) (A) (A) (A) (A) (A) (A) (A) (A)
                 (A) (A) (A) (A) (A) (A) (A) (A) (A) (A) (A) (A)
                 (A) (A) (A) (A) (A) (A) (A) (A) (A) (A) (A) (A)
                 (A) (A) (A) (A) (A) (A) (A) (A) (A) (A) (A) (A)
                 (A) (A) (A) (A) (A) (A) (A) (A) (A) (A) (A) (A)
                 (A) (A) (A) (A) (A) (A) (A) (A) (A) (A) (A) (A)
                 (A) (A) (A) (A) (A) (A) (A) (A) (A) (A) (A) (A)
                 (A) (A) (A) (A) (A) (A) (A) (A) (A) (A) (A) (A)
                 (A) (A) (A) (A) (A) (A) (A) (A) (A) (A) (A) (A)
                 (A) (A) (A) (A) (A) (A) (A) (A) (A) (A) (A) (A)
                 (A) (A) (A) (A) (A) (A) (A) (A) (A) (A) (A) (A)
                 (A) (A) (A)
 The electronic state is 1-A.
 Alpha  occ. eigenvalues -- -102.68618 -25.28214 -25.27661 -25.27660 -19.67924
 Alpha  occ. eigenvalues --  -19.62019 -14.80794 -10.80857 -10.71607 -10.63248
 Alpha  occ. eigenvalues --  -10.62543 -10.59950 -10.58478 -10.57725 -10.56808
 Alpha  occ. eigenvalues --  -10.56624 -10.54204 -10.53085  -9.82903  -7.55422
 Alpha  occ. eigenvalues --   -7.54735  -7.54715  -1.47355  -1.37979  -1.37590
 Alpha  occ. eigenvalues --   -1.26066  -1.16133  -1.08452  -1.01876  -0.95600
 Alpha  occ. eigenvalues --   -0.91240  -0.89332  -0.85712  -0.82692  -0.79544
 Alpha  occ. eigenvalues --   -0.74968  -0.73066  -0.70207  -0.69640  -0.69128
 Alpha  occ. eigenvalues --   -0.67821  -0.67283  -0.64680  -0.61922  -0.59847
 Alpha  occ. eigenvalues --   -0.58048  -0.57887  -0.57184  -0.55392  -0.54795
 Alpha  occ. eigenvalues --   -0.54345  -0.53623  -0.53269  -0.52100  -0.51515
 Alpha  occ. eigenvalues --   -0.51370  -0.50817  -0.49854  -0.47421  -0.46529
 Alpha  occ. eigenvalues --   -0.45708  -0.44358  -0.43776  -0.43444  -0.41132
 Alpha  occ. eigenvalues --   -0.40987  -0.39220  -0.38854  -0.38628  -0.37758
 Alpha  occ. eigenvalues --   -0.32293  -0.29990
 Alpha virt. eigenvalues --   -0.01353  -0.00556   0.00233   0.01826   0.02309
 Alpha virt. eigenvalues --    0.02575   0.03370   0.03408   0.04296   0.04957
 Alpha virt. eigenvalues --    0.05054   0.05453   0.06046   0.06429   0.06990
 Alpha virt. eigenvalues --    0.07250   0.07614   0.07766   0.08252   0.08589
 Alpha virt. eigenvalues --    0.09003   0.09208   0.09676   0.10620   0.10930
 Alpha virt. eigenvalues --    0.11587   0.12050   0.12196   0.12631   0.13466
 Alpha virt. eigenvalues --    0.13628   0.14796   0.14947   0.15325   0.15846
 Alpha virt. eigenvalues --    0.16331   0.17434   0.18063   0.18181   0.18427
 Alpha virt. eigenvalues --    0.19305   0.19535   0.19869   0.20290   0.20511
 Alpha virt. eigenvalues --    0.20825   0.21201   0.21242   0.21758   0.22311
 Alpha virt. eigenvalues --    0.22718   0.22900   0.23310   0.23598   0.24184
 Alpha virt. eigenvalues --    0.24553   0.25006   0.25208   0.25275   0.26383
 Alpha virt. eigenvalues --    0.26617   0.27026   0.27133   0.27496   0.28253
 Alpha virt. eigenvalues --    0.28756   0.28884   0.29837   0.29957   0.29982
 Alpha virt. eigenvalues --    0.30607   0.30884   0.31466   0.31786   0.31981
 Alpha virt. eigenvalues --    0.32829   0.33107   0.34410   0.35187   0.35266
 Alpha virt. eigenvalues --    0.36283   0.36588   0.37195   0.37559   0.38009
 Alpha virt. eigenvalues --    0.38840   0.39067   0.39866   0.40962   0.41519
 Alpha virt. eigenvalues --    0.42667   0.43143   0.43407   0.43941   0.44847
 Alpha virt. eigenvalues --    0.45935   0.46082   0.47331   0.48323   0.48352
 Alpha virt. eigenvalues --    0.49984   0.50609   0.50878   0.51895   0.52541
 Alpha virt. eigenvalues --    0.53134   0.54849   0.55170   0.55919   0.56973
 Alpha virt. eigenvalues --    0.58524   0.59833   0.60134   0.60577   0.61023
 Alpha virt. eigenvalues --    0.62365   0.62799   0.63215   0.64174   0.65839
 Alpha virt. eigenvalues --    0.66883   0.67472   0.67758   0.67844   0.68947
 Alpha virt. eigenvalues --    0.69350   0.70168   0.70464   0.72344   0.72538
 Alpha virt. eigenvalues --    0.72847   0.72877   0.73804   0.74128   0.75241
 Alpha virt. eigenvalues --    0.76362   0.77043   0.77800   0.78327   0.80421
 Alpha virt. eigenvalues --    0.80881   0.82483   0.83824   0.85215   0.87743
 Alpha virt. eigenvalues --    0.88731   0.90001   0.91355   0.92195   0.93993
 Alpha virt. eigenvalues --    0.94272   0.94845   0.96522   0.96597   0.96886
 Alpha virt. eigenvalues --    0.98807   0.99861   1.01526   1.03589   1.04278
 Alpha virt. eigenvalues --    1.04359   1.06084   1.06607   1.08400   1.10105
 Alpha virt. eigenvalues --    1.10193   1.11294   1.12708   1.13933   1.15201
 Alpha virt. eigenvalues --    1.18926   1.19292   1.21700   1.21954   1.23084
 Alpha virt. eigenvalues --    1.24238   1.25002   1.27602   1.29628   1.30893
 Alpha virt. eigenvalues --    1.32833   1.33953   1.36384   1.38693   1.40023
 Alpha virt. eigenvalues --    1.40304   1.43721   1.44759   1.45258   1.46709
 Alpha virt. eigenvalues --    1.49073   1.49569   1.49691   1.50073   1.53353
 Alpha virt. eigenvalues --    1.53384   1.54011   1.57020   1.57314   1.58004
 Alpha virt. eigenvalues --    1.58259   1.58664   1.60195   1.61004   1.61533
 Alpha virt. eigenvalues --    1.62702   1.63690   1.65063   1.67752   1.71096
 Alpha virt. eigenvalues --    1.73475   1.75302   1.77659   1.78505   1.79068
 Alpha virt. eigenvalues --    1.79204   1.79989   1.81969   1.82956   1.84111
 Alpha virt. eigenvalues --    1.86081   1.86707   1.89463   1.89905   1.92156
 Alpha virt. eigenvalues --    1.93167   1.94619   1.96870   1.98865   1.99349
 Alpha virt. eigenvalues --    2.01957   2.05735   2.08388   2.08453   2.09211
 Alpha virt. eigenvalues --    2.11939   2.17412   2.18803   2.20272   2.22881
 Alpha virt. eigenvalues --    2.25768   2.31709   2.32534   2.35105   2.36067
 Alpha virt. eigenvalues --    2.39531   2.40655   2.43086   2.47440   2.50467
 Alpha virt. eigenvalues --    2.51883   2.54831   2.55105   2.56233   2.57661
 Alpha virt. eigenvalues --    2.59895   2.61627   2.61695   2.65249   2.68272
 Alpha virt. eigenvalues --    2.70074   2.73313   2.75443   2.79768   2.81808
 Alpha virt. eigenvalues --    2.84353   2.84922   2.91254   2.92716   2.94610
 Alpha virt. eigenvalues --    2.95677   3.01200   3.01359   3.02313   3.04212
 Alpha virt. eigenvalues --    3.05231   3.06751   3.09815   3.11637   3.11970
 Alpha virt. eigenvalues --    3.18127   3.18785   3.21205   3.23484   3.26210
 Alpha virt. eigenvalues --    3.28914   3.29387   3.29769   3.34011   3.37946
 Alpha virt. eigenvalues --    3.39685   3.41653   3.44175   3.44401   3.51349
 Alpha virt. eigenvalues --    3.55602   3.66909   3.70768   3.73686   3.78392
 Alpha virt. eigenvalues --    3.80353   3.82336   3.84102   3.84488   3.86664
 Alpha virt. eigenvalues --    3.87186   3.88436   3.90486   3.96586   3.96917
 Alpha virt. eigenvalues --    4.01121   4.01278   4.02372   4.05332   4.10598
 Alpha virt. eigenvalues --    4.12906   4.18668   4.22999   4.27458   4.32053
 Alpha virt. eigenvalues --    4.55740   4.76687   4.81005   4.98371   5.01597
 Alpha virt. eigenvalues --    5.08529   5.09944   5.15780   5.37064   5.50197
 Alpha virt. eigenvalues --    5.80310   5.96065   6.44432   6.48333   6.49799
 Alpha virt. eigenvalues --    6.52683   6.55544   6.57792   6.63905   6.87346
 Alpha virt. eigenvalues --    6.90823   9.99932  23.44586  23.57174  23.65811
 Alpha virt. eigenvalues --   23.72048  23.81685  23.90577  23.92628  23.97235
 Alpha virt. eigenvalues --   24.08156  24.11649  24.19666  25.95814  26.32341
 Alpha virt. eigenvalues --   26.80162  35.65484  50.01675  50.13631  66.88757
 Alpha virt. eigenvalues --   66.91363  66.97152 216.10766
          Condensed to atoms (all electrons):
               1          2          3          4          5          6
     1  C   18.586668  -0.007909  -0.852322  -0.232307  -0.363892  -0.609541
     2  N   -0.007909   7.615194   0.260347   0.004148  -0.218131  -0.309272
     3  C   -0.852322   0.260347   8.558063   0.466399   0.296020  -0.640850
     4  O   -0.232307   0.004148   0.466399   8.065237  -0.198359  -0.201763
     5  O   -0.363892  -0.218131   0.296020  -0.198359   8.339971   0.371254
     6  C   -0.609541  -0.309272  -0.640850  -0.201763   0.371254   8.339621
     7  C   -0.019919   0.036649   0.138662   0.029838  -0.168244  -0.986560
     8  C   -0.017718  -0.005844  -0.261212   0.000840   0.033665   0.329218
     9  C   -1.307850  -0.156097  -0.097124   0.381459   0.071642  -0.302323
    10  C   -2.179943   0.194918   0.906044   0.050495   0.031488  -0.001344
    11  C   -2.520329  -0.103332  -1.389933   0.002752  -0.000263  -0.139150
    12  C   -0.375724   0.097865  -0.300244  -0.008454  -0.011687   0.005675
    13  C   -1.218347  -0.171176  -1.165737  -0.053511  -0.064156  -0.106244
    14  H   -0.049730   0.260521  -0.008214  -0.000066   0.023191  -0.003136
    15  H    0.007141   0.004880   0.038705  -0.001703  -0.043434   0.354677
    16  H    0.007177   0.004880   0.038692  -0.001704  -0.043452   0.354763
    17  H   -0.000028  -0.000783   0.006884  -0.000298   0.001006  -0.064622
    18  H   -0.000019  -0.000777   0.006882  -0.000298   0.001002  -0.064547
    19  H   -0.000103  -0.000041  -0.001238  -0.000076  -0.000387  -0.048719
    20  H    0.000131   0.000039   0.008662   0.000030  -0.000669   0.092408
    21  H   -0.000104  -0.000042  -0.001253  -0.000076  -0.000386  -0.048752
    22  H    0.033526  -0.027378   0.094682   0.005201   0.002814   0.011262
    23  Cl  -0.090554  -0.003184   0.021659   0.001483   0.000461   0.002765
    24  C   -2.090344   0.024628  -0.179848  -0.000913   0.002073  -0.007892
    25  H    0.047539  -0.002690   0.004670  -0.000014  -0.000014   0.000068
    26  H    0.046117  -0.020344  -0.021199   0.000075  -0.000638  -0.001288
    27  F    0.017842  -0.000159  -0.000935   0.000002   0.000000  -0.000011
    28  F    0.018589   0.000033  -0.000184  -0.000004   0.000000   0.000001
    29  F    0.018669   0.000033  -0.000181  -0.000004   0.000000   0.000001
               7          8          9         10         11         12
     1  C   -0.019919  -0.017718  -1.307850  -2.179943  -2.520329  -0.375724
     2  N    0.036649  -0.005844  -0.156097   0.194918  -0.103332   0.097865
     3  C    0.138662  -0.261212  -0.097124   0.906044  -1.389933  -0.300244
     4  O    0.029838   0.000840   0.381459   0.050495   0.002752  -0.008454
     5  O   -0.168244   0.033665   0.071642   0.031488  -0.000263  -0.011687
     6  C   -0.986560   0.329218  -0.302323  -0.001344  -0.139150   0.005675
     7  C    6.540190  -0.147583  -0.022967  -0.005478  -0.001691  -0.000422
     8  C   -0.147583   6.099018  -0.011613  -0.000179  -0.001039  -0.000077
     9  C   -0.022967  -0.011613  11.574193   3.953490  -3.595817  -1.672310
    10  C   -0.005478  -0.000179   3.953490  29.049872 -11.658530  -3.987617
    11  C   -0.001691  -0.001039  -3.595817 -11.658530  31.808782  -2.817025
    12  C   -0.000422  -0.000077  -1.672310  -3.987617  -2.817025  13.656144
    13  C    0.022156  -0.000698  -2.497512  -6.754301   1.407956   0.671552
    14  H   -0.002869  -0.000485   0.077312   0.024220   0.012891  -0.002956
    15  H   -0.022344  -0.014577  -0.002249   0.000032   0.000087   0.000017
    16  H   -0.022485  -0.014524  -0.002251   0.000031   0.000088   0.000017
    17  H    0.443608  -0.045312   0.000155   0.000014   0.000007   0.000001
    18  H    0.443463  -0.045252   0.000157   0.000014   0.000007   0.000001
    19  H    0.014063   0.380603  -0.000020  -0.000002  -0.000001   0.000000
    20  H   -0.136591   0.387547   0.000063   0.000001   0.000001  -0.000001
    21  H    0.014141   0.380569  -0.000020  -0.000002  -0.000001   0.000000
    22  H   -0.000519   0.000079   0.329879  -0.088057  -0.000675  -0.019423
    23  Cl  -0.000043   0.000034   0.539073  -1.306144  -0.431011   0.318325
    24  C   -0.000522  -0.000031  -1.064840  -2.937751  -3.612884   0.409170
    25  H    0.000001   0.000000  -0.007636  -0.007385   0.139664   0.265042
    26  H   -0.000043   0.000001  -0.004262  -0.007598   0.031348  -0.024258
    27  F    0.000000  -0.000000  -0.006806  -0.097229  -0.193549   0.078083
    28  F   -0.000000   0.000000   0.017369  -0.104991   0.131711  -0.009710
    29  F   -0.000000   0.000000   0.017508  -0.104843   0.131602  -0.009754
              13         14         15         16         17         18
     1  C   -1.218347  -0.049730   0.007141   0.007177  -0.000028  -0.000019
     2  N   -0.171176   0.260521   0.004880   0.004880  -0.000783  -0.000777
     3  C   -1.165737  -0.008214   0.038705   0.038692   0.006884   0.006882
     4  O   -0.053511  -0.000066  -0.001703  -0.001704  -0.000298  -0.000298
     5  O   -0.064156   0.023191  -0.043434  -0.043452   0.001006   0.001002
     6  C   -0.106244  -0.003136   0.354677   0.354763  -0.064622  -0.064547
     7  C    0.022156  -0.002869  -0.022344  -0.022485   0.443608   0.443463
     8  C   -0.000698  -0.000485  -0.014577  -0.014524  -0.045312  -0.045252
     9  C   -2.497512   0.077312  -0.002249  -0.002251   0.000155   0.000157
    10  C   -6.754301   0.024220   0.000032   0.000031   0.000014   0.000014
    11  C    1.407956   0.012891   0.000087   0.000088   0.000007   0.000007
    12  C    0.671552  -0.002956   0.000017   0.000017   0.000001   0.000001
    13  C   15.350030  -0.067015   0.000844   0.000843   0.000078   0.000076
    14  H   -0.067015   0.297185  -0.000020  -0.000020   0.000007   0.000006
    15  H    0.000844  -0.000020   0.441482  -0.039583   0.005278  -0.007731
    16  H    0.000843  -0.000020  -0.039583   0.441483  -0.007726   0.005278
    17  H    0.000078   0.000007   0.005278  -0.007726   0.440561  -0.036750
    18  H    0.000076   0.000006  -0.007731   0.005278  -0.036750   0.440560
    19  H    0.000011  -0.000000  -0.000466   0.003553  -0.007942   0.005975
    20  H   -0.000017   0.000000  -0.000183  -0.000183  -0.003168  -0.003169
    21  H    0.000011  -0.000000   0.003553  -0.000467   0.005975  -0.007941
    22  H   -0.021754   0.000007  -0.000029  -0.000029  -0.000000  -0.000000
    23  Cl   0.286916   0.000009   0.000005   0.000005   0.000000   0.000000
    24  C    0.318474   0.003320  -0.000003  -0.000003   0.000000   0.000000
    25  H   -0.106080   0.000010   0.000000   0.000000  -0.000000  -0.000000
    26  H    0.306276   0.006029  -0.000000  -0.000000  -0.000000  -0.000000
    27  F    0.124026  -0.000000   0.000000   0.000000  -0.000000  -0.000000
    28  F   -0.008343   0.000002  -0.000000  -0.000000  -0.000000   0.000000
    29  F   -0.008391   0.000002  -0.000000  -0.000000   0.000000  -0.000000
              19         20         21         22         23         24
     1  C   -0.000103   0.000131  -0.000104   0.033526  -0.090554  -2.090344
     2  N   -0.000041   0.000039  -0.000042  -0.027378  -0.003184   0.024628
     3  C   -0.001238   0.008662  -0.001253   0.094682   0.021659  -0.179848
     4  O   -0.000076   0.000030  -0.000076   0.005201   0.001483  -0.000913
     5  O   -0.000387  -0.000669  -0.000386   0.002814   0.000461   0.002073
     6  C   -0.048719   0.092408  -0.048752   0.011262   0.002765  -0.007892
     7  C    0.014063  -0.136591   0.014141  -0.000519  -0.000043  -0.000522
     8  C    0.380603   0.387547   0.380569   0.000079   0.000034  -0.000031
     9  C   -0.000020   0.000063  -0.000020   0.329879   0.539073  -1.064840
    10  C   -0.000002   0.000001  -0.000002  -0.088057  -1.306144  -2.937751
    11  C   -0.000001   0.000001  -0.000001  -0.000675  -0.431011  -3.612884
    12  C    0.000000  -0.000001   0.000000  -0.019423   0.318325   0.409170
    13  C    0.000011  -0.000017   0.000011  -0.021754   0.286916   0.318474
    14  H   -0.000000   0.000000  -0.000000   0.000007   0.000009   0.003320
    15  H   -0.000466  -0.000183   0.003553  -0.000029   0.000005  -0.000003
    16  H    0.003553  -0.000183  -0.000467  -0.000029   0.000005  -0.000003
    17  H   -0.007942  -0.003168   0.005975  -0.000000   0.000000   0.000000
    18  H    0.005975  -0.003169  -0.007941  -0.000000   0.000000   0.000000
    19  H    0.451767  -0.024637  -0.037207  -0.000000  -0.000000  -0.000000
    20  H   -0.024637   0.425695  -0.024639   0.000000   0.000000   0.000000
    21  H   -0.037207  -0.024639   0.451780  -0.000000  -0.000000  -0.000000
    22  H   -0.000000   0.000000  -0.000000   0.343796  -0.010152   0.012477
    23  Cl  -0.000000   0.000000  -0.000000  -0.010152  17.548833  -0.311574
    24  C   -0.000000   0.000000  -0.000000   0.012477  -0.311574  14.393493
    25  H    0.000000  -0.000000   0.000000   0.000049  -0.000061  -0.017791
    26  H   -0.000000   0.000000  -0.000000  -0.000022   0.000230   0.022493
    27  F   -0.000000   0.000000  -0.000000   0.000016   0.011562   0.208879
    28  F   -0.000000   0.000000  -0.000000  -0.000018  -0.012405   0.109081
    29  F   -0.000000   0.000000  -0.000000  -0.000018  -0.012401   0.108914
              25         26         27         28         29
     1  C    0.047539   0.046117   0.017842   0.018589   0.018669
     2  N   -0.002690  -0.020344  -0.000159   0.000033   0.000033
     3  C    0.004670  -0.021199  -0.000935  -0.000184  -0.000181
     4  O   -0.000014   0.000075   0.000002  -0.000004  -0.000004
     5  O   -0.000014  -0.000638   0.000000   0.000000   0.000000
     6  C    0.000068  -0.001288  -0.000011   0.000001   0.000001
     7  C    0.000001  -0.000043   0.000000  -0.000000  -0.000000
     8  C    0.000000   0.000001  -0.000000   0.000000   0.000000
     9  C   -0.007636  -0.004262  -0.006806   0.017369   0.017508
    10  C   -0.007385  -0.007598  -0.097229  -0.104991  -0.104843
    11  C    0.139664   0.031348  -0.193549   0.131711   0.131602
    12  C    0.265042  -0.024258   0.078083  -0.009710  -0.009754
    13  C   -0.106080   0.306276   0.124026  -0.008343  -0.008391
    14  H    0.000010   0.006029  -0.000000   0.000002   0.000002
    15  H    0.000000  -0.000000   0.000000  -0.000000  -0.000000
    16  H    0.000000  -0.000000   0.000000  -0.000000  -0.000000
    17  H   -0.000000  -0.000000  -0.000000  -0.000000   0.000000
    18  H   -0.000000  -0.000000  -0.000000   0.000000  -0.000000
    19  H    0.000000  -0.000000  -0.000000  -0.000000  -0.000000
    20  H   -0.000000   0.000000   0.000000   0.000000   0.000000
    21  H    0.000000  -0.000000  -0.000000  -0.000000  -0.000000
    22  H    0.000049  -0.000022   0.000016  -0.000018  -0.000018
    23  Cl  -0.000061   0.000230   0.011562  -0.012405  -0.012401
    24  C   -0.017791   0.022493   0.208879   0.109081   0.108914
    25  H    0.381127  -0.003625   0.009556   0.000178   0.000178
    26  H   -0.003625   0.410487   0.000082   0.000036   0.000036
    27  F    0.009556   0.000082   9.060503  -0.036722  -0.036728
    28  F    0.000178   0.000036  -0.036722   8.995664  -0.049227
    29  F    0.000178   0.000036  -0.036728  -0.049227   8.995662
 Mulliken charges:
               1
     1  C   -0.846717
     2  N   -0.476977
     3  C    0.074106
     4  O   -0.308410
     5  O   -0.060873
     6  C   -0.325699
     7  C   -0.144488
     8  C   -1.045432
     9  C   -0.210602
    10  C    1.030776
    11  C   -1.201667
    12  C   -0.262229
    13  C   -0.245963
    14  H    0.429800
    15  H    0.275621
    16  H    0.275618
    17  H    0.263057
    18  H    0.263062
    19  H    0.264867
    20  H    0.278682
    21  H    0.264860
    22  H    0.334287
    23  Cl   0.446169
    24  C    0.611397
    25  H    0.297214
    26  H    0.260068
    27  F   -0.138409
    28  F   -0.051060
    29  F   -0.051056
 Sum of Mulliken charges =  -0.00000
 Mulliken charges with hydrogens summed into heavy atoms:
               1
     1  C   -0.846717
     2  N   -0.047176
     3  C    0.074106
     4  O   -0.308410
     5  O   -0.060873
     6  C    0.225539
     7  C    0.381630
     8  C   -0.237023
     9  C    0.123685
    10  C    1.030776
    11  C   -1.201667
    12  C    0.034985
    13  C    0.014105
    23  Cl   0.446169
    24  C    0.611397
    27  F   -0.138409
    28  F   -0.051060
    29  F   -0.051056
 Electronic spatial extent (au):  <R**2>=           8543.6169
 Charge=             -0.0000 electrons
 Dipole moment (field-independent basis, Debye):
    X=             -6.3500    Y=             -4.1411    Z=             -0.0006  Tot=              7.5810
 Quadrupole moment (field-independent basis, Debye-Ang):
   XX=           -108.3406   YY=           -106.2641   ZZ=           -113.4188
   XY=              0.8766   XZ=              0.0001   YZ=             -0.0022
 Traceless Quadrupole moment (field-independent basis, Debye-Ang):
   XX=              1.0006   YY=              3.0770   ZZ=             -4.0776
   XY=              0.8766   XZ=              0.0001   YZ=             -0.0022
 Octapole moment (field-independent basis, Debye-Ang**2):
  XXX=           -155.7751  YYY=            -23.0460  ZZZ=              0.0055  XYY=             26.0402
  XXY=             -4.4425  XXZ=              0.0014  XZZ=              8.7301  YZZ=              3.3966
  YYZ=             -0.0039  XYZ=              0.0053
 Hexadecapole moment (field-independent basis, Debye-Ang**3):
 XXXX=          -9031.3076 YYYY=           -961.0324 ZZZZ=           -203.8479 XXXY=              8.9499
 XXXZ=              0.0130 YYYX=             18.6949 YYYZ=             -0.0122 ZZZX=              0.0008
 ZZZY=              0.0034 XXYY=          -1763.4819 XXZZ=          -1619.9095 YYZZ=           -214.0872
 XXYZ=             -0.0228 YYXZ=              0.0228 ZZXY=            -10.5811
 N-N= 1.438707763262D+03 E-N=-6.156304643912D+03  KE= 1.386766516115D+03
 D1PCM: PCM CHGder 1st derivatives, ID1Alg=3 FixD1E=F DoIter=F DoCFld=F I1PDM=0.
 Calling FoFJK, ICntrl=      2127 FMM=F ISym2X=0 I1Cent= 0 IOpClX= 0 NMat=1 NMatS=1 NMatT=0.
 ***** Axes restored to original set *****
 -------------------------------------------------------------------
 Center     Atomic                   Forces (Hartrees/Bohr)
 Number     Number              X              Y              Z
 -------------------------------------------------------------------
      1        6          -0.000002328    0.000001730   -0.000000764
      2        7           0.000004388   -0.000001370    0.000000204
      3        6           0.000002917    0.000002913   -0.000001152
      4        8           0.000000412   -0.000000725    0.000000775
      5        8          -0.000013863   -0.000007791    0.000000418
      6        6           0.000005334   -0.000002769    0.000000088
      7        6           0.000001043   -0.000005127    0.000000058
      8        6          -0.000001770   -0.000007829    0.000000524
      9        6           0.000001800    0.000003135    0.000000001
     10        6           0.000002561    0.000002678   -0.000000173
     11        6           0.000000305    0.000004316   -0.000000196
     12        6          -0.000000322    0.000004601   -0.000000005
     13        6          -0.000001445    0.000003231   -0.000000075
     14        1          -0.000000812   -0.000000612    0.000000722
     15        1          -0.000000070   -0.000003969    0.000000312
     16        1           0.000000230   -0.000003747   -0.000000056
     17        1          -0.000002818   -0.000005488    0.000000523
     18        1          -0.000003050   -0.000005557    0.000000015
     19        1           0.000000001   -0.000007191    0.000000568
     20        1          -0.000001675   -0.000008042    0.000000431
     21        1           0.000000008   -0.000007410    0.000000431
     22        1           0.000002707    0.000000686   -0.000000425
     23       17           0.000004348    0.000004773   -0.000000363
     24        6          -0.000001142    0.000006071   -0.000001121
     25        1          -0.000001551    0.000005972   -0.000000172
     26        1          -0.000002297    0.000003298   -0.000000022
     27        9           0.000002626    0.000013403   -0.000000971
     28        9           0.000001981    0.000005417   -0.000003248
     29        9           0.000002480    0.000005406    0.000003672
 -------------------------------------------------------------------
 Cartesian Forces:  Max     0.000013863 RMS     0.000003743

 GradGradGradGradGradGradGradGradGradGradGradGradGradGradGradGradGradGrad
 Berny optimization.
 FormGI is forming the generalized inverse of G from B-inverse, IUseBI=4.
 GSVD:  received Info=                   1 from GESDD.
 Internal  Forces:  Max     0.000008218 RMS     0.000001451
 Search for a local minimum.
 Step number   1 out of a maximum of  149
 All quantities printed in internal units (Hartrees-Bohrs-Radians)
 Mixed Optimization -- En-DIIS/RFO-DIIS
 Second derivative matrix not updated -- first step.
 ITU=  0
     Eigenvalues ---    0.00431   0.00600   0.00743   0.01176   0.01588
     Eigenvalues ---    0.01759   0.01902   0.02008   0.02049   0.02125
     Eigenvalues ---    0.02178   0.02190   0.02193   0.02213   0.02217
     Eigenvalues ---    0.02241   0.02266   0.02493   0.03847   0.04987
     Eigenvalues ---    0.05393   0.05504   0.05549   0.05733   0.08086
     Eigenvalues ---    0.10573   0.10804   0.11283   0.11992   0.13616
     Eigenvalues ---    0.16000   0.16000   0.16000   0.16000   0.16000
     Eigenvalues ---    0.16000   0.16000   0.21884   0.21954   0.22000
     Eigenvalues ---    0.22371   0.23490   0.24614   0.25000   0.25000
     Eigenvalues ---    0.25000   0.25000   0.25000   0.25000   0.25000
     Eigenvalues ---    0.25000   0.25000   0.29857   0.31093   0.31414
     Eigenvalues ---    0.32196   0.34410   0.34410   0.34465   0.34465
     Eigenvalues ---    0.34512   0.34512   0.34679   0.35449   0.35684
     Eigenvalues ---    0.36112   0.39722   0.42364   0.42918   0.45862
     Eigenvalues ---    0.46108   0.46381   0.46476   0.47195   0.48437
     Eigenvalues ---    0.50406   0.56725   0.56788   0.56789   0.57329
     Eigenvalues ---    1.02465
 RFO step:  Lambda= 0.00000000D+00 EMin= 4.30599201D-03
 Linear search not attempted -- first point.
 Iteration  1 RMS(Cart)=  0.00007087 RMS(Int)=  0.00000000
 Iteration  2 RMS(Cart)=  0.00000000 RMS(Int)=  0.00000000
 Variable       Old X    -DE/DX   Delta X   Delta X   Delta X     New X
                                 (Linear)    (Quad)   (Total)
    R1        2.63599   0.00000   0.00000   0.00000   0.00000   2.63599
    R2        2.64172  -0.00000   0.00000  -0.00000  -0.00000   2.64172
    R3        2.64491  -0.00000   0.00000  -0.00000  -0.00000   2.64491
    R4        2.59457  -0.00000   0.00000  -0.00001  -0.00001   2.59457
    R5        1.90988   0.00000   0.00000   0.00000   0.00000   1.90988
    R6        2.27668   0.00000   0.00000   0.00000   0.00000   2.27668
    R7        2.53119  -0.00000   0.00000  -0.00000  -0.00000   2.53119
    R8        2.71933   0.00001   0.00000   0.00002   0.00002   2.71935
    R9        2.85836   0.00000   0.00000   0.00000   0.00000   2.85836
   R10        2.06474   0.00000   0.00000   0.00000   0.00000   2.06474
   R11        2.06475   0.00000   0.00000   0.00000   0.00000   2.06475
   R12        2.88250   0.00000   0.00000   0.00000   0.00000   2.88250
   R13        2.06643   0.00000   0.00000   0.00000   0.00000   2.06643
   R14        2.06643   0.00000   0.00000   0.00000   0.00000   2.06643
   R15        2.06553   0.00000   0.00000   0.00000   0.00000   2.06553
   R16        2.06199   0.00000   0.00000   0.00000   0.00000   2.06199
   R17        2.06553   0.00000   0.00000   0.00000   0.00000   2.06553
   R18        2.62023  -0.00000   0.00000  -0.00000  -0.00000   2.62023
   R19        2.03907  -0.00000   0.00000  -0.00000  -0.00000   2.03907
   R20        2.63488   0.00000   0.00000   0.00000   0.00000   2.63488
   R21        3.28929   0.00000   0.00000   0.00000   0.00000   3.28929
   R22        2.63212   0.00000   0.00000   0.00000   0.00000   2.63212
   R23        2.83786   0.00000   0.00000   0.00000   0.00000   2.83787
   R24        2.61123   0.00000   0.00000   0.00000   0.00000   2.61124
   R25        2.04578  -0.00000   0.00000  -0.00000  -0.00000   2.04578
   R26        2.04952  -0.00000   0.00000  -0.00000  -0.00000   2.04952
   R27        2.53630  -0.00001   0.00000  -0.00001  -0.00001   2.53629
   R28        2.53576  -0.00000   0.00000  -0.00001  -0.00001   2.53575
   R29        2.53576  -0.00000   0.00000  -0.00001  -0.00001   2.53576
    A1        2.15075  -0.00000   0.00000  -0.00001  -0.00001   2.15074
    A2        2.04766   0.00000   0.00000   0.00001   0.00001   2.04766
    A3        2.08478   0.00000   0.00000   0.00000   0.00000   2.08478
    A4        2.23038  -0.00000   0.00000  -0.00000  -0.00000   2.23038
    A5        2.03873   0.00000   0.00000   0.00001   0.00001   2.03874
    A6        2.01407  -0.00000   0.00000  -0.00001  -0.00001   2.01407
    A7        2.20350   0.00000   0.00000   0.00001   0.00001   2.20351
    A8        1.90179  -0.00001   0.00000  -0.00003  -0.00003   1.90176
    A9        2.17789   0.00001   0.00000   0.00002   0.00002   2.17792
   A10        2.01797  -0.00000   0.00000  -0.00001  -0.00001   2.01796
   A11        1.88108   0.00000   0.00000   0.00001   0.00001   1.88109
   A12        1.89797  -0.00000   0.00000  -0.00001  -0.00001   1.89795
   A13        1.89794  -0.00000   0.00000   0.00000   0.00000   1.89794
   A14        1.94929   0.00000   0.00000   0.00000   0.00000   1.94929
   A15        1.94929  -0.00000   0.00000   0.00000   0.00000   1.94929
   A16        1.88717  -0.00000   0.00000  -0.00000  -0.00000   1.88717
   A17        1.93202   0.00000   0.00000   0.00000   0.00000   1.93202
   A18        1.90417  -0.00000   0.00000  -0.00000  -0.00000   1.90417
   A19        1.90417  -0.00000   0.00000  -0.00000  -0.00000   1.90416
   A20        1.92588   0.00000   0.00000   0.00001   0.00001   1.92588
   A21        1.92588   0.00000   0.00000   0.00000   0.00000   1.92588
   A22        1.87050  -0.00000   0.00000  -0.00000  -0.00000   1.87049
   A23        1.94316   0.00000   0.00000   0.00000   0.00000   1.94317
   A24        1.93708   0.00000   0.00000   0.00000   0.00000   1.93708
   A25        1.94317   0.00000   0.00000   0.00000   0.00000   1.94317
   A26        1.87861  -0.00000   0.00000  -0.00000  -0.00000   1.87861
   A27        1.88027  -0.00000   0.00000  -0.00000  -0.00000   1.88027
   A28        1.87861  -0.00000   0.00000  -0.00000  -0.00000   1.87861
   A29        2.07974  -0.00000   0.00000  -0.00000  -0.00000   2.07974
   A30        2.11077  -0.00000   0.00000  -0.00000  -0.00000   2.11077
   A31        2.09268   0.00000   0.00000   0.00000   0.00000   2.09268
   A32        2.12782   0.00000   0.00000   0.00000   0.00000   2.12782
   A33        2.04810  -0.00000   0.00000  -0.00000  -0.00000   2.04809
   A34        2.10727   0.00000   0.00000   0.00000   0.00000   2.10727
   A35        2.06280  -0.00000   0.00000  -0.00000  -0.00000   2.06280
   A36        2.12658  -0.00000   0.00000  -0.00000  -0.00000   2.12658
   A37        2.09380   0.00000   0.00000   0.00001   0.00001   2.09380
   A38        2.11028  -0.00000   0.00000   0.00000   0.00000   2.11028
   A39        2.08621  -0.00000   0.00000  -0.00000  -0.00000   2.08621
   A40        2.08670   0.00000   0.00000   0.00000   0.00000   2.08670
   A41        2.10096   0.00000   0.00000   0.00000   0.00000   2.10096
   A42        2.09181  -0.00000   0.00000  -0.00000  -0.00000   2.09181
   A43        2.09042   0.00000   0.00000   0.00000   0.00000   2.09042
   A44        1.94503   0.00000   0.00000   0.00001   0.00001   1.94503
   A45        1.96314   0.00000   0.00000   0.00001   0.00001   1.96314
   A46        1.96313   0.00000   0.00000   0.00000   0.00000   1.96314
   A47        1.86063  -0.00000   0.00000  -0.00001  -0.00001   1.86062
   A48        1.86063  -0.00000   0.00000  -0.00001  -0.00001   1.86062
   A49        1.86455  -0.00000   0.00000  -0.00001  -0.00001   1.86454
    D1       -0.00048   0.00000   0.00000   0.00003   0.00003  -0.00045
    D2        3.14133   0.00000   0.00000   0.00001   0.00001   3.14134
    D3        3.14114   0.00000   0.00000   0.00004   0.00004   3.14118
    D4       -0.00023   0.00000   0.00000   0.00002   0.00002  -0.00021
    D5       -3.14156   0.00000   0.00000   0.00001   0.00001  -3.14155
    D6        0.00004   0.00000   0.00000   0.00001   0.00001   0.00005
    D7       -0.00001  -0.00000   0.00000  -0.00000  -0.00000  -0.00001
    D8        3.14159   0.00000   0.00000   0.00001   0.00001  -3.14159
    D9        3.14156  -0.00000   0.00000  -0.00001  -0.00001   3.14155
   D10       -0.00005  -0.00000   0.00000  -0.00000  -0.00000  -0.00005
   D11        0.00000   0.00000   0.00000   0.00000   0.00000   0.00000
   D12        3.14158   0.00000   0.00000   0.00001   0.00001   3.14159
   D13       -0.00000   0.00000   0.00000   0.00004   0.00004   0.00003
   D14       -3.14158  -0.00000   0.00000  -0.00000  -0.00000  -3.14159
   D15        3.14137   0.00000   0.00000   0.00006   0.00006   3.14143
   D16       -0.00021   0.00000   0.00000   0.00002   0.00002  -0.00019
   D17        3.14141   0.00000   0.00000   0.00006   0.00006   3.14147
   D18       -0.00017   0.00000   0.00000   0.00002   0.00002  -0.00014
   D19        3.14145   0.00000   0.00000   0.00001   0.00001   3.14146
   D20        1.02544  -0.00000   0.00000   0.00001   0.00001   1.02545
   D21       -1.02574   0.00000   0.00000   0.00002   0.00002  -1.02571
   D22        3.14140   0.00000   0.00000   0.00004   0.00004   3.14145
   D23        1.01891   0.00000   0.00000   0.00004   0.00004   1.01895
   D24       -1.01928   0.00000   0.00000   0.00004   0.00004  -1.01924
   D25       -1.05810   0.00000   0.00000   0.00004   0.00004  -1.05806
   D26        3.10259  -0.00000   0.00000   0.00003   0.00003   3.10262
   D27        1.06440   0.00000   0.00000   0.00004   0.00004   1.06444
   D28        1.05775   0.00000   0.00000   0.00003   0.00003   1.05779
   D29       -1.06474  -0.00000   0.00000   0.00003   0.00003  -1.06471
   D30       -3.10293   0.00000   0.00000   0.00003   0.00003  -3.10290
   D31       -1.04938   0.00000   0.00000   0.00002   0.00002  -1.04937
   D32        3.14148  -0.00000   0.00000   0.00001   0.00001   3.14150
   D33        1.04916   0.00000   0.00000   0.00001   0.00001   1.04917
   D34        1.06028   0.00000   0.00000   0.00002   0.00002   1.06030
   D35       -1.03204   0.00000   0.00000   0.00002   0.00002  -1.03202
   D36       -3.12436   0.00000   0.00000   0.00002   0.00002  -3.12435
   D37        3.12413   0.00000   0.00000   0.00002   0.00002   3.12415
   D38        1.03181   0.00000   0.00000   0.00001   0.00001   1.03183
   D39       -1.06051   0.00000   0.00000   0.00002   0.00002  -1.06050
   D40        0.00001  -0.00000   0.00000  -0.00000  -0.00000   0.00001
   D41        3.14159   0.00000   0.00000   0.00000   0.00000  -3.14159
   D42       -3.14159  -0.00000   0.00000  -0.00001  -0.00001   3.14159
   D43       -0.00001  -0.00000   0.00000  -0.00000  -0.00000  -0.00001
   D44       -0.00000   0.00000   0.00000   0.00000   0.00000  -0.00000
   D45       -3.14159   0.00000   0.00000   0.00000   0.00000  -3.14159
   D46       -3.14159  -0.00000   0.00000  -0.00000  -0.00000  -3.14159
   D47        0.00001  -0.00000   0.00000  -0.00000  -0.00000   0.00001
   D48       -0.00000  -0.00000   0.00000  -0.00000  -0.00000  -0.00000
   D49       -3.14159  -0.00000   0.00000  -0.00000  -0.00000  -3.14159
   D50        3.14159  -0.00000   0.00000  -0.00000  -0.00000   3.14158
   D51        0.00000  -0.00000   0.00000  -0.00001  -0.00001  -0.00001
   D52       -3.14155  -0.00000   0.00000  -0.00003  -0.00003  -3.14159
   D53       -1.05315  -0.00000   0.00000  -0.00003  -0.00003  -1.05319
   D54        1.05323  -0.00000   0.00000  -0.00003  -0.00003   1.05320
   D55        0.00004  -0.00000   0.00000  -0.00003  -0.00003   0.00001
   D56        2.08844  -0.00000   0.00000  -0.00003  -0.00003   2.08842
   D57       -2.08836  -0.00000   0.00000  -0.00003  -0.00003  -2.08839
   D58        0.00000   0.00000   0.00000   0.00000   0.00000   0.00000
   D59       -3.14158  -0.00000   0.00000  -0.00000  -0.00000  -3.14158
   D60        3.14159   0.00000   0.00000   0.00000   0.00000   3.14159
   D61        0.00001  -0.00000   0.00000  -0.00000  -0.00000   0.00001
         Item               Value     Threshold  Converged?
 Maximum Force            0.000008     0.000450     YES
 RMS     Force            0.000001     0.000300     YES
 Maximum Displacement     0.000279     0.001800     YES
 RMS     Displacement     0.000071     0.001200     YES
 Predicted change in Energy=-6.597353D-10
 Optimization completed.
    -- Stationary point found.
                           ----------------------------
                           !   Optimized Parameters   !
                           ! (Angstroms and Degrees)  !
 --------------------------                            --------------------------
 ! Name  Definition              Value          Derivative Info.                !
 --------------------------------------------------------------------------------
 ! R1    R(1,2)                  1.3949         -DE/DX =    0.0                 !
 ! R2    R(1,9)                  1.3979         -DE/DX =    0.0                 !
 ! R3    R(1,13)                 1.3996         -DE/DX =    0.0                 !
 ! R4    R(2,3)                  1.373          -DE/DX =    0.0                 !
 ! R5    R(2,14)                 1.0107         -DE/DX =    0.0                 !
 ! R6    R(3,4)                  1.2048         -DE/DX =    0.0                 !
 ! R7    R(3,5)                  1.3394         -DE/DX =    0.0                 !
 ! R8    R(5,6)                  1.439          -DE/DX =    0.0                 !
 ! R9    R(6,7)                  1.5126         -DE/DX =    0.0                 !
 ! R10   R(6,15)                 1.0926         -DE/DX =    0.0                 !
 ! R11   R(6,16)                 1.0926         -DE/DX =    0.0                 !
 ! R12   R(7,8)                  1.5254         -DE/DX =    0.0                 !
 ! R13   R(7,17)                 1.0935         -DE/DX =    0.0                 !
 ! R14   R(7,18)                 1.0935         -DE/DX =    0.0                 !
 ! R15   R(8,19)                 1.093          -DE/DX =    0.0                 !
 ! R16   R(8,20)                 1.0912         -DE/DX =    0.0                 !
 ! R17   R(8,21)                 1.093          -DE/DX =    0.0                 !
 ! R18   R(9,10)                 1.3866         -DE/DX =    0.0                 !
 ! R19   R(9,22)                 1.079          -DE/DX =    0.0                 !
 ! R20   R(10,11)                1.3943         -DE/DX =    0.0                 !
 ! R21   R(10,23)                1.7406         -DE/DX =    0.0                 !
 ! R22   R(11,12)                1.3929         -DE/DX =    0.0                 !
 ! R23   R(11,24)                1.5017         -DE/DX =    0.0                 !
 ! R24   R(12,13)                1.3818         -DE/DX =    0.0                 !
 ! R25   R(12,25)                1.0826         -DE/DX =    0.0                 !
 ! R26   R(13,26)                1.0846         -DE/DX =    0.0                 !
 ! R27   R(24,27)                1.3422         -DE/DX =    0.0                 !
 ! R28   R(24,28)                1.3419         -DE/DX =    0.0                 !
 ! R29   R(24,29)                1.3419         -DE/DX =    0.0                 !
 ! A1    A(2,1,9)              123.2288         -DE/DX =    0.0                 !
 ! A2    A(2,1,13)             117.3221         -DE/DX =    0.0                 !
 ! A3    A(9,1,13)             119.4491         -DE/DX =    0.0                 !
 ! A4    A(1,2,3)              127.7912         -DE/DX =    0.0                 !
 ! A5    A(1,2,14)             116.8109         -DE/DX =    0.0                 !
 ! A6    A(3,2,14)             115.3979         -DE/DX =    0.0                 !
 ! A7    A(2,3,4)              126.2512         -DE/DX =    0.0                 !
 ! A8    A(2,3,5)              108.9646         -DE/DX =    0.0                 !
 ! A9    A(4,3,5)              124.7842         -DE/DX =    0.0                 !
 ! A10   A(3,5,6)              115.6212         -DE/DX =    0.0                 !
 ! A11   A(5,6,7)              107.778          -DE/DX =    0.0                 !
 ! A12   A(5,6,15)             108.7455         -DE/DX =    0.0                 !
 ! A13   A(5,6,16)             108.744          -DE/DX =    0.0                 !
 ! A14   A(7,6,15)             111.6861         -DE/DX =    0.0                 !
 ! A15   A(7,6,16)             111.686          -DE/DX =    0.0                 !
 ! A16   A(15,6,16)            108.1271         -DE/DX =    0.0                 !
 ! A17   A(6,7,8)              110.6965         -DE/DX =    0.0                 !
 ! A18   A(6,7,17)             109.1009         -DE/DX =    0.0                 !
 ! A19   A(6,7,18)             109.1008         -DE/DX =    0.0                 !
 ! A20   A(8,7,17)             110.3445         -DE/DX =    0.0                 !
 ! A21   A(8,7,18)             110.345          -DE/DX =    0.0                 !
 ! A22   A(17,7,18)            107.1716         -DE/DX =    0.0                 !
 ! A23   A(7,8,19)             111.335          -DE/DX =    0.0                 !
 ! A24   A(7,8,20)             110.9863         -DE/DX =    0.0                 !
 ! A25   A(7,8,21)             111.3356         -DE/DX =    0.0                 !
 ! A26   A(19,8,20)            107.6364         -DE/DX =    0.0                 !
 ! A27   A(19,8,21)            107.7316         -DE/DX =    0.0                 !
 ! A28   A(20,8,21)            107.6364         -DE/DX =    0.0                 !
 ! A29   A(1,9,10)             119.1602         -DE/DX =    0.0                 !
 ! A30   A(1,9,22)             120.9381         -DE/DX =    0.0                 !
 ! A31   A(10,9,22)            119.9018         -DE/DX =    0.0                 !
 ! A32   A(9,10,11)            121.9149         -DE/DX =    0.0                 !
 ! A33   A(9,10,23)            117.3472         -DE/DX =    0.0                 !
 ! A34   A(11,10,23)           120.7379         -DE/DX =    0.0                 !
 ! A35   A(10,11,12)           118.1899         -DE/DX =    0.0                 !
 ! A36   A(10,11,24)           121.8442         -DE/DX =    0.0                 !
 ! A37   A(12,11,24)           119.9658         -DE/DX =    0.0                 !
 ! A38   A(11,12,13)           120.91           -DE/DX =    0.0                 !
 ! A39   A(11,12,25)           119.531          -DE/DX =    0.0                 !
 ! A40   A(13,12,25)           119.559          -DE/DX =    0.0                 !
 ! A41   A(1,13,12)            120.3759         -DE/DX =    0.0                 !
 ! A42   A(1,13,26)            119.8521         -DE/DX =    0.0                 !
 ! A43   A(12,13,26)           119.772          -DE/DX =    0.0                 !
 ! A44   A(11,24,27)           111.4417         -DE/DX =    0.0                 !
 ! A45   A(11,24,28)           112.4794         -DE/DX =    0.0                 !
 ! A46   A(11,24,29)           112.4793         -DE/DX =    0.0                 !
 ! A47   A(27,24,28)           106.606          -DE/DX =    0.0                 !
 ! A48   A(27,24,29)           106.606          -DE/DX =    0.0                 !
 ! A49   A(28,24,29)           106.8309         -DE/DX =    0.0                 !
 ! D1    D(9,1,2,3)             -0.0277         -DE/DX =    0.0                 !
 ! D2    D(9,1,2,14)           179.985          -DE/DX =    0.0                 !
 ! D3    D(13,1,2,3)           179.9743         -DE/DX =    0.0                 !
 ! D4    D(13,1,2,14)           -0.0129         -DE/DX =    0.0                 !
 ! D5    D(2,1,9,10)          -179.9983         -DE/DX =    0.0                 !
 ! D6    D(2,1,9,22)             0.0021         -DE/DX =    0.0                 !
[...]
 001856,-0.00001174,-0.00000193,-0.00001855,-0.00001145,0.00000334,0.00
 000188,0.00000175,-0.00000064,0.00000190,0.00000181,0.00000043,0.00000
 068,-0.00000324,0.00000242,-0.00001181,0.00000087,-0.00000001,0.000000
 67,-0.00000349,-0.00000206,0.00079308,0.00160877,-0.00009806,0.0515220
 2,0.00211196,0.00670575,-0.00005536,0.00180787,-0.00128005,0.00006024,
 -0.00314306,-0.00151230,0.00009522,0.00087070,0.00106575,-0.00005670,0
 .00164358,-0.00019852,0.00000470,-0.00063385,-0.00026042,0.00001619,0.
 00005707,0.00008467,-0.00000489,0.00000532,-0.00006819,0.00000378,0.01
 170380,-0.03459721,0.00208855,0.02088517,-0.17138465,0.00798567,0.0058
 9912,-0.03563159,0.00213087,-0.00548034,-0.00039750,0.00026175,-0.0009
 4144,-0.00283682,0.00010337,0.00022458,0.00011828,-0.00001797,0.000071
 47,0.00003422,0.00001348,0.00007145,0.00003248,-0.00001743,-0.00001105
 ,-0.00000245,0.00001169,-0.00001102,-0.00000392,-0.00001119,0.00000242
 ,0.00000999,-0.00001377,0.00003677,0.00000047,-0.00000015,0.00000255,0
 .00001150,0.00001260,-0.00098674,0.00075254,-0.00020100,-0.03535257,0.
 24250349,-0.00008689,-0.00004165,0.00579301,-0.00009833,0.00006138,-0.
 00007376,0.00016878,0.00008481,0.00005113,-0.00004648,-0.00005345,0.00
 007940,-0.00008803,0.00000916,-0.00002465,0.00003393,0.00001391,-0.000
 00152,-0.00000306,-0.00000453,0.00000015,-0.00000028,0.00000367,0.0000
 0034,-0.00061024,0.00202355,0.00427162,-0.00107970,0.00798356,-0.02399
 319,-0.00033447,0.00219621,0.00370339,0.00032168,0.00024527,0.00411902
 ,0.00004273,0.00009790,-0.00099612,-0.00001182,-0.00001718,-0.00019566
 ,-0.00000430,-0.00000133,0.00000085,-0.00000336,-0.00000204,0.00000256
 ,-0.00000050,0.00000151,-0.00000016,0.00000170,-0.00000111,0.00000123,
 -0.00000070,-0.00000095,0.00000090,-0.00000197,-0.00000004,-0.00000019
 ,0.00000042,-0.00000018,-0.00000057,0.00004298,-0.00020822,-0.00297672
 ,0.00181430,-0.01241176,0.01330586,-0.01053539,0.00280386,-0.00012573,
 0.01439594,-0.00101892,0.00001101,-0.01052249,-0.00476726,0.00029145,0
 .00220117,0.00304467,-0.00017347,0.00529717,-0.00144310,0.00006377,-0.
 00196489,-0.00060147,0.00003922,0.00012357,0.00028851,-0.00001633,0.00
 004030,-0.00021957,0.00001203,0.00408992,-0.00553135,0.00030433,-0.027
 38401,-0.00924092,0.00057316,-0.20340090,0.03775272,-0.00166727,-0.006
 77200,0.01963708,-0.00104762,0.00923004,-0.00112848,0.00005262,0.00012
 734,0.00086019,-0.00004585,0.00022001,0.00010151,-0.00000589,0.0002201
 5,0.00010167,-0.00000684,-0.00002188,-0.00002559,-0.00000414,-0.000021
 95,-0.00002500,0.00000703,-0.00001301,0.00003840,-0.00001464,0.0001361
 5,-0.00002170,0.00000080,-0.00001305,0.00003967,0.00001042,0.00011401,
 0.00000713,0.00000237,-0.00184113,0.00629463,-0.00034617,0.60525569,0.
 00229547,-0.00442156,0.00018867,-0.00514554,0.00017570,-0.00004902,0.0
 0376083,0.00215365,-0.00011884,-0.00088137,-0.00132984,0.00006144,-0.0
 0185330,0.00036352,-0.00001241,0.00069708,0.00025786,-0.00001194,-0.00
 005267,-0.00009071,0.00000607,-0.00000772,0.00007467,-0.00000375,-0.00
 746557,-0.00196458,0.00040768,-0.01702602,0.02488305,-0.00143652,0.028
 38239,-0.10497620,0.00209514,0.03020120,-0.00355219,0.00015112,-0.0012
 5205,-0.00738423,0.00075549,-0.00004719,-0.00023319,0.00002711,-0.0000
 8243,-0.00003614,-0.00001216,-0.00008217,-0.00003306,0.00001441,0.0000
 1191,0.00000325,-0.00001323,0.00001172,0.00000656,0.00001141,-0.000001
 60,-0.00001175,0.00001440,-0.00004043,0.00000191,0.00000034,-0.0000024
 9,-0.00001447,-0.00001385,-0.00120748,0.00081754,0.00001978,0.00128475
 ,-0.00619069,0.00016571,-0.01738734,0.53556169,-0.00009742,0.00018693,
 -0.00085041,0.00023685,-0.00006132,-0.00099705,-0.00017475,-0.00009451
 ,0.00018648,0.00004080,0.00005018,-0.00025950,0.00008621,-0.00001348,0
 .00003940,-0.00003224,-0.00000804,0.00007994,0.00000259,0.00000499,0.0
 0001541,0.00000033,-0.00000309,0.00000656,0.00040882,0.00040279,0.0051
 2319,0.00099760,-0.00145782,-0.00230056,-0.00115687,0.00206802,-0.0651
 4353,-0.00162282,0.00018089,0.00077453,0.00006054,0.00075480,0.0063851
 8,0.00000298,0.00002486,0.00026490,0.00000179,-0.00001445,-0.00001762,
 0.00000583,0.00001552,-0.00002080,0.00000213,-0.00001798,-0.00000918,-
 0.00000338,0.00001639,-0.00001249,0.00000760,0.00001071,-0.00000950,0.
 00000183,0.00000028,0.00000572,-0.00000734,-0.00001041,-0.00000677,0.0
 0006867,0.00001643,0.00111860,-0.00007332,0.00015085,-0.00310198,0.000
 64982,-0.00189993,0.49977129,-0.00348985,0.00255115,-0.00010802,-0.001
 12331,-0.00121120,0.00006934,0.00025585,0.00053961,-0.00003105,-0.0000
 3848,-0.00019173,0.00001071,-0.00035079,-0.00001910,0.00000208,0.00007
 463,0.00005780,-0.00000337,-0.00001504,-0.00002476,0.00000143,-0.00000
 387,0.00001473,-0.00000080,-0.00033787,0.00091625,-0.00005187,0.000467
 12,0.00164409,-0.00007440,0.00929086,0.00431212,-0.00024858,-0.2200225
 2,-0.14641983,0.00847581,-0.01597459,-0.01992991,0.00114155,0.00000921
 ,-0.00009050,0.00000517,-0.00001076,-0.00000588,0.00000011,-0.00001077
 ,-0.00000585,0.00000060,0.00000034,0.00000156,0.00000226,0.00000032,0.
 00000131,-0.00000243,0.00000083,-0.00000097,-0.00000015,-0.00000682,-0
 .00000084,0.00000007,0.00000083,-0.00000095,0.00000025,-0.00001049,-0.
 00007318,0.00000274,0.00027731,0.00089196,-0.00004860,-0.00012925,0.00
 077484,-0.00004995,0.23308339,0.00306847,0.00010163,0.00039305,0.00030
 049,0.00061572,-0.00003571,0.00007696,-0.00015677,-0.00000191,-0.00001
 438,0.00002748,0.00000021,0.00011151,0.00002898,-0.00000312,-0.0000109
 7,-0.00002311,0.00000229,0.00000578,0.00000795,-0.00000008,0.00000169,
 -0.00000463,0.00000025,0.00076191,-0.00027693,-0.00004522,0.00235624,-
 0.00353223,0.00050398,-0.02237928,-0.01478416,0.00110435,-0.14502426,-
 0.19066972,0.00865253,0.00936095,0.01139606,-0.00041055,-0.00002273,0.
 00001085,0.00000325,0.00000216,0.00000121,0.00000054,0.00000195,0.0000
 0141,-0.00000091,-0.00000007,-0.00000007,-0.00000113,-0.00000014,0.000
 00025,0.00000094,-0.00000021,0.00000004,0.,0.00000198,0.00000059,0.,-0
 .00000031,-0.00000011,-0.00000009,-0.00005873,0.00003761,-0.00002681,-
 0.00070037,-0.00151059,0.00009850,-0.00301909,-0.00285864,0.00000527,0
 .15380338,0.19801924,-0.00013602,0.00039454,0.00745983,-0.00001332,-0.
 00003138,-0.00002055,-0.00000545,-0.00000350,-0.00019026,0.00000092,0.
 00000075,0.00003058,-0.00000516,-0.00000269,-0.00002132,0.00000045,0.0
 0000209,0.00001806,-0.00000025,0.00000002,0.00000689,-0.00000008,0.000
 00021,-0.00000008,-0.00004357,-0.00004553,-0.00106581,-0.00011328,0.00
 050589,0.00582232,0.00120424,0.00102986,0.00429102,0.00840024,0.008656
 16,-0.03966630,-0.00045267,-0.00032868,0.00435227,0.00000141,0.0000035
 1,0.00006992,0.00000182,-0.00000271,-0.00000188,-0.00000199,0.00000239
 ,-0.00000208,0.00000071,-0.00000197,-0.00000146,-0.00000072,0.00000177
 ,-0.00000177,0.00000098,0.00000128,-0.00000094,-0.00000009,0.,0.000000
 60,-0.00000096,-0.00000137,-0.00000078,0.00000191,-0.00002675,-0.00045
 612,0.00003809,0.00009404,0.00025752,0.00015667,-0.00000539,-0.0029179
 3,-0.00894863,-0.00973830,0.02758054,0.00710450,-0.02277315,0.00123081
 ,0.00270401,-0.00113455,0.00004631,-0.00039967,-0.00055544,0.00002938,
 0.00003593,0.00046749,-0.00002517,0.00021437,0.00008427,-0.00000518,-0
 .00010558,-0.00004344,0.00000300,0.00001219,0.00001208,-0.00000066,-0.
 00000006,-0.00000920,0.00000050,-0.00339794,-0.00285226,0.00017964,-0.
 00155429,-0.00052911,0.00003099,-0.00514560,0.00137995,-0.00004159,-0.
 00150864,0.03041196,-0.00164338,-0.06893069,0.05222591,-0.00274538,-0.
 00156507,0.00054649,-0.00002428,0.00001577,0.00000817,0.00000426,0.000
 01568,0.00000768,-0.00000528,-0.00000466,0.00000020,0.00000479,-0.0000
 0471,-0.00000031,-0.00000479,0.00000131,0.00000264,-0.00000219,0.00000
 647,-0.00000083,0.00000003,0.00000130,0.00000284,0.00000187,0.00048667
 ,-0.00104632,0.00005537,0.00017420,0.00013536,-0.00000938,0.00129927,0
 .00109432,-0.00006170,0.00100615,-0.00031143,0.00000146,0.07076475,0.0
 0742310,-0.01562260,0.00105252,0.00200387,0.00140352,-0.00025358,-0.00
 059830,-0.00025274,-0.00002880,0.00014035,0.00058081,-0.00002120,0.000
 00301,0.00005053,-0.00000063,-0.00005273,-0.00000800,0.00000598,0.0000
 0216,-0.00000139,0.00000109,-0.00000186,-0.00000146,-0.00000021,-0.003
 58546,-0.00107095,0.00035480,-0.00087145,0.00062466,-0.00007242,0.0015
 3387,0.00180588,0.00026627,0.00020561,-0.00492360,0.00041406,0.0515466
 0,-0.33385911,0.01614631,-0.00099757,0.00015861,0.00003337,0.00000924,
 0.00000191,0.00000283,0.00000803,0.00000229,-0.00000408,-0.00000300,0.
 00000202,0.00000278,-0.00000344,0.00000230,-0.00000366,0.00000125,0.00
 000132,-0.00000216,0.00000244,-0.00000054,0.00000011,0.00000092,0.0000
 0111,0.00000178,0.00061077,-0.00069213,0.00003134,0.00008366,-0.000108
 31,-0.00002389,-0.00073906,-0.00001798,0.00003233,0.00010433,0.0006253
 0,-0.00027951,-0.05741211,0.35152437,-0.00041353,0.00113813,0.00404020
 ,-0.00012571,-0.00024783,-0.00310963,0.00003182,-0.00002932,-0.0008191
 8,-0.00000702,-0.00002185,0.00020534,-0.00000075,-0.00000068,0.0000400
 2,0.00000350,0.00000598,0.00009854,-0.00000008,0.00000108,0.00001881,0
 .00000008,-0.00000019,-0.00000543,0.00021972,0.00035288,0.00524220,0.0
 0004975,-0.00007339,-0.00074621,-0.00005007,0.00026671,0.00676373,0.00
 000055,0.00032930,0.00267623,-0.00270834,0.01614428,-0.03535603,0.0000
 6143,0.00003112,0.00070455,0.00001039,-0.00000764,-0.00000871,-0.00001
 148,0.00000638,-0.00000903,0.00000402,-0.00000635,-0.00000603,-0.00000
 369,0.00000542,-0.00000630,0.00000317,0.00000372,-0.00000230,-0.000000
 15,0.00000012,0.00000155,-0.00000331,-0.00000411,-0.00000206,-0.000034
 99,0.00003600,-0.00008708,-0.00000659,-0.00002402,-0.00054144,0.000038
 11,0.00002720,0.00053719,-0.00002121,-0.00027841,-0.00449097,0.0029924
 2,-0.01767446,0.02470919,0.00221794,-0.00134399,0.00006743,-0.00315086
 ,0.00031553,-0.00000792,0.00261229,0.00066270,-0.00004394,-0.00079569,
 -0.00043491,0.00002626,-0.00147219,0.00048708,-0.00002239,0.00055323,0
 .00016482,-0.00001080,-0.00003227,-0.00008001,0.00000452,-0.00001329,0
 .00006230,-0.00000340,-0.00242821,-0.00184534,0.00010566,-0.00481069,0
 .00920767,-0.00048193,-0.03692813,-0.04088954,0.00235335,-0.00152925,-
 0.00208543,0.00011807,-0.00111656,-0.00060057,0.00003628,-0.00004852,-
 0.00021537,0.00001170,-0.00005540,-0.00002980,0.00000505,-0.00005547,-
 0.00003021,-0.00000136,0.00000511,0.00000852,0.00000383,0.00000511,0.0
 0000806,-0.00000477,0.00000504,-0.00001152,0.00000231,-0.00004042,0.00
 000783,-0.00000031,0.00000506,-0.00001168,-0.00000107,-0.00046974,0.00
 048225,-0.00002584,0.00048227,-0.00048657,0.00002583,-0.18174706,-0.08
 977528,0.00520292,-0.00325106,0.00130513,-0.00006260,-0.00019983,0.000
 17384,-0.00000890,0.20809835,0.00117851,-0.00035339,0.00002310,-0.0007
 9737,0.00042671,-0.00001811,0.00060635,-0.00005136,-0.00000222,-0.0001
 7344,0.00001993,0.00000202,-0.00031742,0.00018955,-0.00000943,0.000111
 05,0.00001427,-0.00000237,-0.00000245,-0.00002058,0.00000091,-0.000005
 39,0.00001386,-0.00000073,-0.00016197,-0.00002664,-0.00002396,-0.00011
 587,0.00098434,0.00005205,-0.00783388,-0.00313186,0.00063109,0.0035545
 5,-0.00594848,0.00031600,-0.00035341,0.00187908,-0.00009478,-0.0000800
 0,-0.00008153,0.00000329,-0.00001098,-0.00000540,0.00000633,-0.0000111
 1,-0.00000637,-0.00000531,-0.00000080,0.00000372,0.00000634,-0.0000008
 1,0.00000271,-0.00000647,0.00000309,-0.00000246,-0.00000310,-0.0000103
 8,0.00000284,-0.00000017,0.00000323,-0.00000190,0.00000347,-0.00009111
 ,0.00012983,-0.00002304,-0.00028239,0.00093499,-0.00003548,-0.10036725
 ,-0.16778493,0.00557761,0.00310896,0.00203560,-0.00013370,-0.00017561,
 0.00004016,-0.00000173,0.15364025,0.28541142,-0.00007003,0.00003005,0.
 00012914,0.00005232,-0.00002116,0.00005469,-0.00004045,-0.00000233,-0.
 00006189,0.00001186,0.00000267,0.00004783,0.00002139,-0.00001166,0.000
 00134,-0.00000766,-0.00000248,-0.00002260,0.00000021,0.00000111,-0.000
 00429,0.00000033,-0.00000090,0.00000047,0.00001431,-0.00001900,-0.0004
 7150,0.00002541,0.00002566,0.00193065,0.00055283,0.00072405,0.00801061
 ,-0.00018925,0.00033244,0.00002924,0.00002274,-0.00009419,0.00012402,0
 .00000442,0.00000370,-0.00002478,0.00000153,0.00000336,0.00000224,0.,-
 0.00000225,0.00000322,-0.00000024,0.00000264,0.00000152,0.00000031,-0.
 00000281,0.00000255,-0.00000120,-0.00000152,0.00000166,0.00000068,-0.0
 0000022,-0.00000074,0.00000083,0.00000197,0.00000110,0.00000543,-0.000
 02464,-0.00029636,0.00001480,-0.00003476,0.00027333,0.00577966,0.00554
 718,-0.07089371,-0.00016063,-0.00012869,-0.00025211,0.00001012,-0.0000
 0272,-0.00000071,-0.00872553,-0.01155056,0.08194065,0.00296943,-0.0001
 5136,0.00034868,-0.00386100,0.00015901,0.00007313,0.00281998,0.0013160
 8,-0.00000981,-0.00060770,-0.00084489,0.00001948,-0.00142793,0.0003728
 9,-0.00004244,0.00053185,0.00016705,-0.00000734,-0.00003418,-0.0000770
 1,0.00000433,-0.00001065,0.00005930,-0.00000196,-0.00049194,0.00083338
 ,-0.00083922,0.00267630,0.00283910,-0.00067134,-0.01026800,0.02909417,
 0.02906836,-0.00301020,-0.00377348,0.00234762,-0.00251018,0.00059591,-
 0.00174180,-0.00000487,-0.00022410,-0.00000839,-0.00006099,-0.00002763
 ,0.00000033,-0.00005773,-0.00002765,0.00000221,0.00000657,0.00000497,-
 0.00000076,0.00000639,0.00000793,-0.00000138,0.00000355,-0.00000969,0.
 00000400,-0.00003645,0.00000581,0.00000024,0.00000264,-0.00001187,-0.0
 0000418,0.00000591,0.00002080,-0.00001591,-0.00228075,-0.00273888,0.00
 181648,-0.09891174,0.03929158,0.04598524,0.00015579,0.00023242,0.00072
 013,-0.00051260,0.00019190,-0.00026129,0.01197920,-0.02703259,-0.02099
 330,0.08835549,-0.00219733,0.00064239,-0.00027241,0.00318977,-0.000047
 24,-0.00008982,-0.00221576,-0.00130521,0.00002323,0.00043295,0.0008289
 1,-0.00002070,0.00106067,-0.00021265,0.00004256,-0.00039492,-0.0001374
 0,-0.00000345,0.00002886,0.00005468,-0.00000701,0.00000524,-0.00004269
 ,0.00000106,0.00129707,-0.00026194,0.00097459,-0.00082762,-0.00679311,
 -0.00017327,0.01487865,-0.00951383,-0.02132117,0.00096422,0.00209858,-
 0.00091698,0.00178288,0.00054165,0.00117595,-0.00000702,0.00015933,-0.
 00001962,0.00005033,0.00002080,0.00000497,0.00004531,0.00001818,-0.000
 00439,-0.00000647,-0.00000062,0.00000547,-0.00000534,-0.00000618,-0.00
 000168,-0.00000142,0.00000551,-0.00000474,0.00002460,-0.00000217,-0.00
 000072,0.00000069,0.00000930,0.00000662,0.00021511,-0.00009588,0.00005
 767,-0.00301648,0.00203474,0.00088950,0.03983877,-0.14083023,-0.087522
 78,-0.00038675,0.00043503,-0.00070187,0.00025247,-0.00013649,0.0000854
 8,-0.01521614,-0.06201874,-0.04456961,-0.03600420,0.19665717,-0.001408
 13,0.00037752,-0.00025051,0.00192462,0.00000106,0.00007092,-0.00141567
 ,-0.00071214,-0.00005680,0.00032205,0.00045880,0.00005717,0.00072275,-
 0.00016360,0.00004401,-0.00026785,-0.00009279,-0.00002776,0.00001896,0
 .00003716,-0.00001105,0.00000428,-0.00003019,-0.00000077,0.00085365,-0
 .00019607,0.00032857,-0.00150312,-0.00278537,0.00076377,0.00750398,-0.
 01484161,-0.00602351,0.00286977,0.00129096,-0.00103413,0.00088391,-0.0
 0057868,0.00061001,-0.00001832,0.00009511,-0.00005819,0.00003464,0.000
 01906,0.00000566,0.00002731,0.00001045,0.00000309,-0.00000460,0.000003
 45,0.00000575,-0.00000251,-0.00000943,0.00000284,-0.00000319,0.0000015
 5,-0.00000011,0.00001750,-0.00000214,-0.00000164,0.00000193,0.00000938
 ,0.00000565,0.00006329,-0.00004914,-0.00007592,0.00081471,0.00204491,-
 0.00015316,0.04904261,-0.08550464,-0.17503682,-0.00018697,0.00026997,-
 0.00038249,0.00035695,-0.00012767,0.00007994,-0.01286030,-0.03585325,-
 0.00548048,-0.05171785,0.15018964,0.27589905,0.00297618,-0.00019174,-0
 .00034798,-0.00387349,0.00015124,-0.00006724,0.00282842,0.00131291,-0.
 00015078,-0.00060956,-0.00084466,0.00007691,-0.00143222,0.00037678,0.0
 0000992,0.00053350,0.00016722,-0.00001446,-0.00003429,-0.00007724,0.00
 000438,-0.00001068,0.00005934,-0.00000455,-0.00049293,0.00092127,0.000
 74855,0.00268759,0.00291286,0.00034598,-0.01048715,0.02584865,-0.03204
 684,-0.00303804,-0.00401353,-0.00191241,-0.00250602,0.00078542,0.00168
 489,-0.00000464,-0.00022245,0.00003211,-0.00005788,-0.00002773,0.00000
 123,-0.00006124,-0.00002763,0.00000315,0.00000638,0.00000805,0.0000004
 6,0.00000663,0.00000504,0.00000020,0.00000264,-0.00001140,0.00000547,-
 0.00003656,0.00000577,-0.00000066,0.00000357,-0.00001007,-0.00000296,0
 .00000556,0.00002267,0.00001311,-0.00229295,-0.00293028,-0.00149456,-0
 .09947198,0.03450457,-0.05048276,0.00015284,0.00015094,-0.00074425,-0.
 00051323,0.00022005,0.00024215,0.01218101,-0.02438176,0.02366908,0.014
 57379,-0.00378813,0.00392559,0.08896475,-0.00203113,0.00062132,0.00018
 858,0.00296365,-0.00003716,0.00008443,-0.00204962,-0.00121584,0.000115
 78,0.00039562,0.00077265,-0.00006017,0.00097619,-0.00019699,-0.0000217
 9,-0.00036364,-0.00012565,0.00001646,0.00002666,0.00005066,0.,0.000004
 75,-0.00003906,0.00000315,0.00119188,-0.00033978,-0.00090826,-0.000656
 99,-0.00638508,0.00095770,0.01409665,-0.00557953,0.02120212,0.00065136
 ,0.00202206,0.00058019,0.00167053,0.00047740,-0.00117172,-0.00000495,0
 .00014868,-0.00000269,0.00004210,0.00001733,0.00000255,0.00004628,0.00
 001802,-0.00000665,-0.00000501,-0.00000484,0.00000257,-0.00000598,-0.0
 0000154,-0.00000463,0.00000044,0.00000752,-0.00000683,0.00002257,-0.00
 000186,0.00000060,-0.00000104,0.00000579,0.00000411,0.00020657,-0.0000
 9664,-0.00005659,-0.00309076,0.00169433,-0.00107281,0.03472729,-0.1225
 6898,0.08160494,-0.00036064,0.00047200,0.00061085,0.00021194,-0.000129
 49,-0.00006383,-0.01346961,-0.05265538,0.04979466,-0.00426894,0.017898
 11,-0.01386230,-0.03092614,0.16517194,0.00162047,-0.00047210,-0.000235
 66,-0.00223791,0.00001045,0.00007338,0.00163178,0.00083122,-0.00015499
 ,-0.00036335,-0.00053232,0.00011554,-0.00082551,0.00018800,0.00003258,
 0.00030602,0.00010245,-0.00004133,-0.00002186,-0.00004347,-0.00000681,
 -0.00000478,0.00003403,-0.00000441,-0.00098444,0.00026431,0.00040691,0
 .00157194,0.00354923,0.00034445,-0.00906864,0.01464984,-0.00973865,-0.
 00294602,-0.00160147,-0.00092974,-0.00105442,0.00058892,0.00067062,0.0
 0001868,-0.00011647,-0.00004792,-0.00003172,-0.00001182,0.00000412,-0.
 00003954,-0.00002024,0.00000871,0.00000305,0.00001020,0.00000147,0.000
 00530,-0.00000266,0.00000661,-0.00000198,-0.00000951,0.00000743,-0.000
 01987,0.00000213,-0.00000183,0.00000330,-0.00000213,-0.00000042,-0.000
 08668,0.00005131,-0.00007481,-0.00046916,-0.00222894,0.00019880,-0.053
 58113,0.07958854,-0.19273055,0.00022455,-0.00036420,-0.00041671,-0.000
 37892,0.00014941,0.00007360,0.01429784,0.04114216,-0.01504510,-0.00407
 330,0.00217352,-0.08928308,0.05650627,-0.13793041,0.30676779\\0.000002
 32,-0.00000173,0.00000076,-0.00000438,0.00000137,-0.00000020,-0.000002
 92,-0.00000292,0.00000115,-0.00000041,0.00000073,-0.00000077,0.0000138
 6,0.00000779,-0.00000042,-0.00000533,0.00000277,-0.00000009,-0.0000010
 5,0.00000513,-0.00000006,0.00000177,0.00000783,-0.00000052,-0.00000181
 ,-0.00000314,0.,-0.00000255,-0.00000268,0.00000017,-0.00000031,-0.0000
 0432,0.00000020,0.00000032,-0.00000460,0.,0.00000146,-0.00000322,0.000
 00007,0.00000081,0.00000061,-0.00000072,0.00000007,0.00000397,-0.00000
 031,-0.00000023,0.00000375,0.00000006,0.00000282,0.00000549,-0.0000005
 2,0.00000305,0.00000556,-0.00000002,0.,0.00000719,-0.00000057,0.000001
 67,0.00000804,-0.00000043,0.,0.00000741,-0.00000043,-0.00000271,-0.000
 00069,0.00000042,-0.00000435,-0.00000477,0.00000036,0.00000114,-0.0000
 0607,0.00000112,0.00000155,-0.00000597,0.00000017,0.00000230,-0.000003
 30,0.00000002,-0.00000263,-0.00001340,0.00000097,-0.00000198,-0.000005
 42,0.00000325,-0.00000248,-0.00000541,-0.00000367\\\@


 DEPRESSION IS WAITING FOR YOUR SHIP TO COME IN,
 AND FINDING OUT IT'S THE TITANIC.
 Job cpu time:       0 days  4 hours  6 minutes 20.8 seconds.
 File lengths (MBytes):  RWF=    662 Int=      0 D2E=      0 Chk=     22 Scr=      1
 Normal termination of Gaussian 09 at Thu Nov 14 18:07:03 2019.
pbs_rusage has been removed.
Please contact help@nci.org.au if you require this functionality.
