 Entering Gaussian System, Link 0=/apps/gaussian/g09e01/g09/g09
 AtFile(1): /home/507/hio507/Basis/GTMP2LARGE.gbs
 Initial command:
 /apps/gaussian/g09e01/g09/l1.exe "/jobfs/local/4046918.r-man2/Gau-55606.inp" -scrdir="/jobfs/local/4046918.r-man2/"
 Entering Link 1 = /apps/gaussian/g09e01/g09/l1.exe PID=     55607.
  
 Copyright (c) 1988,1990,1992,1993,1995,1998,2003,2009,2015,
            Gaussian, Inc.  All Rights Reserved.
  
 This is part of the Gaussian(R) 09 program.  It is based on
 the Gaussian(R) 03 system (copyright 2003, Gaussian, Inc.),
 the Gaussian(R) 98 system (copyright 1998, Gaussian, Inc.),
 the Gaussian(R) 94 system (copyright 1995, Gaussian, Inc.),
 the Gaussian 92(TM) system (copyright 1992, Gaussian, Inc.),
 the Gaussian 90(TM) system (copyright 1990, Gaussian, Inc.),
 the Gaussian 88(TM) system (copyright 1988, Gaussian, Inc.),
 the Gaussian 86(TM) system (copyright 1986, Carnegie Mellon
 University), and the Gaussian 82(TM) system (copyright 1983,
 Carnegie Mellon University). Gaussian is a federally registered
 trademark of Gaussian, Inc.
  
 This software contains proprietary and confidential information,
 including trade secrets, belonging to Gaussian, Inc.
  
 This software is provided under written license and may be
 used, copied, transmitted, or stored only in accord with that
 written license.
  
 The following legend is applicable only to US Government
 contracts under FAR:
  
                    RESTRICTED RIGHTS LEGEND
  
 Use, reproduction and disclosure by the US Government is
 subject to restrictions as set forth in subparagraphs (a)
 and (c) of the Commercial Computer Software - Restricted
 Rights clause in FAR 52.227-19.
  
 Gaussian, Inc.
 340 Quinnipiac St., Bldg. 40, Wallingford CT 06492
  
  
 ---------------------------------------------------------------
 Warning -- This program may not be used in any manner that
 competes with the business of Gaussian, Inc. or will provide
 assistance to any competitor of Gaussian, Inc.  The licensee
 of this program is prohibited from giving any competitor of
 Gaussian, Inc. access to this program.  By using this program,
 the user acknowledges that Gaussian, Inc. is engaged in the
 business of creating and licensing software in the field of
 computational chemistry and represents and warrants to the
 licensee that it is not a competitor of Gaussian, Inc. and that
 it will not use this program in any manner prohibited above.
 ---------------------------------------------------------------
  

 Cite this work as:
 Gaussian 09, Revision E.01,
 M. J. Frisch, G. W. Trucks, H. B. Schlegel, G. E. Scuseria, 
 M. A. Robb, J. R. Cheeseman, G. Scalmani, V. Barone, B. Mennucci, 
 G. A. Petersson, H. Nakatsuji, M. Caricato, X. Li, H. P. Hratchian, 
 A. F. Izmaylov, J. Bloino, G. Zheng, J. L. Sonnenberg, M. Hada, 
 M. Ehara, K. Toyota, R. Fukuda, J. Hasegawa, M. Ishida, T. Nakajima, 
 Y. Honda, O. Kitao, H. Nakai, T. Vreven, J. A. Montgomery, Jr., 
 J. E. Peralta, F. Ogliaro, M. Bearpark, J. J. Heyd, E. Brothers, 
 K. N. Kudin, V. N. Staroverov, T. Keith, R. Kobayashi, J. Normand, 
 K. Raghavachari, A. Rendell, J. C. Burant, S. S. Iyengar, J. Tomasi, 
 M. Cossi, N. Rega, J. M. Millam, M. Klene, J. E. Knox, J. B. Cross, 
 V. Bakken, C. Adamo, J. Jaramillo, R. Gomperts, R. E. Stratmann, 
 O. Yazyev, A. J. Austin, R. Cammi, C. Pomelli, J. W. Ochterski, 
 R. L. Martin, K. Morokuma, V. G. Zakrzewski, G. A. Voth, 
 P. Salvador, J. J. Dannenberg, S. Dapprich, A. D. Daniels, 
 O. Farkas, J. B. Foresman, J. V. Ortiz, J. Cioslowski, 
 and D. J. Fox, Gaussian, Inc., Wallingford CT, 2013.
 
 ******************************************
 Gaussian 09:  ES64L-G09RevE.01 30-Nov-2015
                 9-Dec-2019 
 ******************************************
 %chk=CP19CA.MP2_GTMP2LARGE.chk
 %mem=1114112000
 %nproc=4
 Will use up to    4 processors via shared memory.
 -------------------------------------------------------------
 # MP2/Gen 5D SCF=Tight INT(grid=ultrafine) maxdisk=3489660928
 -------------------------------------------------------------
 1/38=1/1;
 2/12=2,17=6,18=5,40=1/2;
 3/5=7,8=1,11=9,16=1,25=1,30=1,75=-5/1,2,3;
 4//1;
 5/5=2,32=2,38=5/2;
 8/10=1/1;
 9/16=-3/6;
 6/7=2,8=2,9=2,10=2/1;
 99/5=1,9=1/99;
 ---------------------
 CP19CA.MP2_GTMP2LARGE
 ---------------------
 Symbolic Z-matrix:
 Charge =  0 Multiplicity = 1
 C                    -6.29862   1.27924   0.01961 
 N                    -5.00055   0.76346   0.044 
 C                    -3.81834   1.46258   0.00254 
 O                    -3.69657   2.65734  -0.06275 
 O                    -2.7981    0.59076   0.04692 
 C                    -1.4866    1.17601   0.01133 
 C                    -0.47838   0.04906   0.06963 
 C                     0.94766   0.5921    0.03598 
 C                    -6.57448   2.64688  -0.05387 
 C                    -7.89539   3.07073  -0.0732 
 C                    -8.9579    2.16885  -0.02128 
 C                    -8.6648    0.80991   0.05169 
 C                    -7.35612   0.36519   0.07218 
 H                    -4.9041   -0.23981   0.09817 
 H                    -1.38252   1.85813   0.85857 
 H                    -1.38763   1.7623   -0.90542 
 H                    -0.64941  -0.6258   -0.77345 
 H                    -0.64431  -0.53044   0.98183 
 H                     1.13498   1.15912  -0.87908 
 H                     1.67608  -0.21851   0.07792 
 H                     1.14008   1.25488   0.88312 
 H                    -5.77603   3.37161  -0.09544 
 Cl                   -8.18434   4.78111  -0.16524 
 C                    -10.38995   2.62707  -0.04217 
 H                    -9.4752    0.0936    0.09283 
 H                    -7.1504   -0.6983    0.12935 
 F                    -11.23413   1.58485   0.01682 
 F                    -10.68441   3.42218   0.99505 
 F                    -10.69043   3.30521  -1.15777 
 
                          Input orientation:                          
 ---------------------------------------------------------------------
 Center     Atomic      Atomic             Coordinates (Angstroms)
 Number     Number       Type             X           Y           Z
 ---------------------------------------------------------------------
      1          6           0       -6.298616    1.279236    0.019605
      2          7           0       -5.000552    0.763456    0.043997
      3          6           0       -3.818341    1.462576    0.002536
      4          8           0       -3.696574    2.657337   -0.062747
      5          8           0       -2.798098    0.590763    0.046919
      6          6           0       -1.486597    1.176011    0.011326
      7          6           0       -0.478379    0.049059    0.069626
      8          6           0        0.947663    0.592098    0.035985
      9          6           0       -6.574482    2.646880   -0.053867
     10          6           0       -7.895392    3.070729   -0.073199
     11          6           0       -8.957897    2.168847   -0.021278
     12          6           0       -8.664802    0.809910    0.051685
     13          6           0       -7.356120    0.365186    0.072183
     14          1           0       -4.904098   -0.239812    0.098171
     15          1           0       -1.382516    1.858132    0.858570
     16          1           0       -1.387633    1.762298   -0.905417
     17          1           0       -0.649408   -0.625801   -0.773454
     18          1           0       -0.644313   -0.530438    0.981832
     19          1           0        1.134976    1.159120   -0.879077
     20          1           0        1.676085   -0.218513    0.077924
     21          1           0        1.140079    1.254878    0.883119
     22          1           0       -5.776032    3.371615   -0.095437
     23         17           0       -8.184342    4.781107   -0.165243
     24          6           0      -10.389955    2.627068   -0.042171
     25          1           0       -9.475200    0.093596    0.092834
     26          1           0       -7.150401   -0.698303    0.129347
     27          9           0      -11.234133    1.584850    0.016817
     28          9           0      -10.684412    3.422176    0.995047
     29          9           0      -10.690432    3.305206   -1.157773
 ---------------------------------------------------------------------
                    Distance matrix (angstroms):
                    1          2          3          4          5
     1  C    0.000000
     2  N    1.396995   0.000000
     3  C    2.487100   1.374086   0.000000
     4  O    2.945601   2.301856   1.202723   0.000000
     5  O    3.567684   2.209216   1.342730   2.256106   0.000000
     6  C    4.813133   3.538241   2.349304   2.661543   1.436599
     7  C    5.949033   4.578325   3.627378   4.144564   2.382237
     8  C    7.278804   5.950688   4.844961   5.083690   3.745777
     9  C    1.397122   2.456444   3.000345   2.877941   4.301029
    10  C    2.401615   3.703693   4.383405   4.219133   5.669839
    11  C    2.804435   4.199996   5.187911   5.284115   6.359098
    12  C    2.412496   3.664553   4.890458   5.301828   5.870798
    13  C    1.398773   2.389166   3.704726   4.320236   4.563670
    14  H    2.063579   1.009348   2.021420   3.142846   2.264447
    15  H    5.020660   3.866786   2.611992   2.615802   2.066125
    16  H    5.020634   3.866815   2.612002   2.615797   2.066120
    17  H    6.014288   4.640120   3.873708   4.535341   2.601905
    18  H    6.014312   4.640099   3.873704   4.535345   2.601912
    19  H    7.488681   6.217179   5.040305   5.123955   4.080388
    20  H    8.114339   6.748547   5.746343   6.095553   4.546889
    21  H    7.488687   6.217152   5.040287   5.123941   4.080382
    22  H    2.159717   2.724574   2.736162   2.198957   4.076947
    23  Cl   3.981612   5.130480   5.486598   4.965981   6.827564
    24  C    4.308076   5.703169   6.674140   6.693481   7.860710
    25  H    3.391429   4.524773   5.820852   6.323725   6.695743
    26  H    2.155978   2.601129   3.973425   4.819351   4.539937
    27  F    4.944971   6.287525   7.416814   7.613893   8.494458
    28  F    4.977839   6.346617   7.208886   7.108712   8.432662
    29  F    4.977833   6.346611   7.208830   7.108647   8.432581
                    6          7          8          9         10
     6  C    0.000000
     7  C    1.513248   0.000000
     8  C    2.503434   1.526310   0.000000
     9  C    5.296629   6.627698   7.798261   0.000000
    10  C    6.683544   8.010179   9.184507   1.387381   0.000000
    11  C    7.537050   8.740937  10.030431   2.431100   1.394634
    12  C    7.187649   8.221723   9.614946   2.784787   2.391420
    13  C    5.925575   6.885002   8.306962   2.415154   2.762591
    14  H    3.700191   4.435228   5.910927   3.338605   4.465074
    15  H    1.092678   2.170861   2.776549   5.330214   6.690004
    16  H    1.092678   2.170862   2.776548   5.330199   6.689956
    17  H    2.136186   1.093376   2.165434   6.806963   8.164495
    18  H    2.136187   1.093376   2.165434   6.806977   8.164536
    19  H    2.768708   2.176049   1.092675   7.894944   9.265594
    20  H    3.457121   2.171032   1.090618   8.734970  10.122012
    21  H    2.768694   2.176046   1.092674   7.894939   9.265614
    22  H    4.819890   6.255537   7.276749   1.079116   2.140727
    23  Cl   7.608396   9.045955  10.048971   2.675627   1.737054
    24  C    9.020987  10.241970  11.519062   3.815542   2.533898
    25  H    8.062013   8.996961  10.434933   3.867162   3.374415
    26  H    5.967048   6.714014   8.200762   3.399338   3.847290
    27  F    9.756108  10.864975  12.222197   4.779671   3.655562
    28  F    9.519074  10.788763  12.009759   4.311940   3.007207
    29  F    9.518973  10.788652  12.009632   4.311965   3.007245
                   11         12         13         14         15
    11  C    0.000000
    12  C    1.392099   0.000000
    13  C    2.414046   1.382335   0.000000
    14  H    4.716905   3.904737   2.525689   0.000000
    15  H    7.632633   7.401455   6.207353   4.169067   0.000000
    16  H    7.632554   7.401370   6.207290   4.169072   1.766596
    17  H    8.798115   8.184661   6.832067   4.360173   3.061188
    18  H    8.798185   8.184739   6.832127   4.360171   2.503079
    19  H   10.179462   9.850072   8.581021   6.275543   3.137801
    20  H   10.899124  10.391934   9.051047   6.580249   3.778479
    21  H   10.179509   9.850126   8.581058   6.275534   2.593840
    22  H    3.402413   3.863802   3.400498   3.720236   4.743812
    23  Cl   2.728189   4.006034   4.499187   6.003250   7.473742
    24  C    1.503726   2.507394   3.785940   6.191390   9.084963
    25  H    2.141796   1.082379   2.136514   4.583248   8.318142
    26  H    3.392681   2.138726   1.084711   2.292828   6.351033
    27  F    2.350267   2.683880   4.065665   6.588274   9.891289
    28  F    2.363176   3.434048   4.612417   6.901200   9.433458
    29  F    2.363178   3.434016   4.612390   6.901174   9.633118
                   16         17         18         19         20
    16  H    0.000000
    17  H    2.503080   0.000000
    18  H    3.061189   1.757882   0.000000
    19  H    2.593853   2.526089   3.079523   0.000000
    20  H    3.778484   2.509710   2.509700   1.762533   0.000000
    21  H    3.137781   3.079521   2.526095   1.764803   1.762533
    22  H    4.743840   6.536155   6.536136   7.298716   8.273640
    23  Cl   7.473708   9.294074   9.294102  10.023873  11.058180
    24  C    9.084867  10.295348  10.295434  11.648146  12.397623
    25  H    8.318042   8.897337   8.897433  10.707744  11.155662
    26  H    6.350968   6.563781   6.563847   8.550696   8.839666
    27  F    9.891187  10.841952  10.842048  12.408817  13.035704
    28  F    9.633123  10.964261  10.790130  12.179149  12.918111
    29  F    9.433256  10.789934  10.964241  12.021798  12.917983
                   21         22         23         24         25
    21  H    0.000000
    22  H    7.298681   0.000000
    23  Cl  10.023881   2.791325   0.000000
    24  C   11.648208   4.673913   3.085411   0.000000
    25  H   10.707814   4.946180   4.868848   2.696939   0.000000
    26  H    8.550740   4.301587   5.583883   4.645667   2.456243
    27  F   12.408888   5.744214   4.421587   1.342511   2.307263
    28  F   12.021992   5.028310   3.072998   1.339673   3.654534
    29  F   12.179084   5.028349   3.073091   1.339674   3.654482
                   26         27         28         29
    26  H    0.000000
    27  F    4.679992   0.000000
    28  F    5.497000   2.152881   0.000000
    29  F    5.496961   2.152881   2.156004   0.000000
 Stoichiometry    C11H11ClF3NO2
 Framework group  C1[X(C11H11ClF3NO2)]
 Deg. of freedom    81
 Full point group                 C1      NOp   1
 Largest Abelian subgroup         C1      NOp   1
 Largest concise Abelian subgroup C1      NOp   1
                         Standard orientation:                         
 ---------------------------------------------------------------------
 Center     Atomic      Atomic             Coordinates (Angstroms)
 Number     Number       Type             X           Y           Z
 ---------------------------------------------------------------------
      1          6           0       -0.217431   -0.719217   -0.000145
      2          7           0       -1.600966   -0.912676   -0.000225
      3          6           0       -2.583150    0.048274   -0.000081
      4          8           0       -2.417410    1.239522   -0.000008
      5          8           0       -3.781450   -0.557534   -0.000035
      6          6           0       -4.916295    0.323342    0.000056
      7          6           0       -6.163565   -0.533535    0.000071
      8          6           0       -7.419709    0.333484    0.000176
      9          6           0        0.375662    0.545769   -0.000138
     10          6           0        1.759535    0.644366   -0.000060
     11          6           0        2.577239   -0.485396    0.000002
     12          6           0        1.969480   -1.737820   -0.000017
     13          6           0        0.592523   -1.859630   -0.000091
     14          1           0       -1.933159   -1.865793   -0.000206
     15          1           0       -4.864189    0.964486   -0.883212
     16          1           0       -4.864106    0.964398    0.883384
     17          1           0       -6.148958   -1.183751    0.878978
     18          1           0       -6.149043   -1.183661   -0.878904
     19          1           0       -7.457929    0.976736    0.882618
     20          1           0       -8.319989   -0.282100    0.000174
     21          1           0       -7.457999    0.976844   -0.882184
     22          1           0       -0.227655    1.440475   -0.000184
     23         17           0        2.446813    2.239674   -0.000052
     24          6           0        4.077250   -0.379760    0.000091
     25          1           0        2.586405   -2.627172    0.000028
     26          1           0        0.139874   -2.845382   -0.000104
     27          9           0        4.649514   -1.594194    0.000085
     28          9           0        4.541378    0.266243   -1.077865
     29          9           0        4.541258    0.266177    1.078139
 ---------------------------------------------------------------------
 Rotational constants (GHZ):      1.1310639      0.1272999      0.1170104
 General basis read from cards:  (5D, 7F)
 There are   836 symmetry adapted cartesian basis functions of A   symmetry.
 There are   742 symmetry adapted basis functions of A   symmetry.
   742 basis functions,  1098 primitive gaussians,   836 cartesian basis functions
    72 alpha electrons       72 beta electrons
       nuclear repulsion energy      1439.0340644238 Hartrees.
 NAtoms=   29 NActive=   29 NUniq=   29 SFac= 1.00D+00 NAtFMM=   60 NAOKFM=F Big=F
 Integral buffers will be    131072 words long.
 Raffenetti 1 integral format.
 Two-electron integral symmetry is turned on.
 One-electron integrals computed using PRISM.
 NBasis=   742 RedAO= T EigKep=  1.06D-06  NBF=   742
 NBsUse=   740 1.00D-06 EigRej=  4.51D-07 NBFU=   740
 ExpMin= 3.60D-02 ExpMax= 1.06D+05 ExpMxC= 3.62D+03 IAcc=3 IRadAn=         5 AccDes= 0.00D+00
 Harris functional with IExCor=  205 and IRadAn=       5 diagonalized for initial guess.
 HarFok:  IExCor=  205 AccDes= 0.00D+00 IRadAn=         5 IDoV= 1 UseB2=F ITyADJ=14
 ICtDFT=  3500011 ScaDFX=  1.000000  1.000000  1.000000  1.000000
 FoFCou: FMM=F IPFlag=           0 FMFlag=      100000 FMFlg1=           0
         NFxFlg=           0 DoJE=T BraDBF=F KetDBF=T FulRan=T
         wScrn=  0.000000 ICntrl=     500 IOpCl=  0 I1Cent=   200000004 NGrid=           0
         NMat0=    1 NMatS0=      1 NMatT0=    0 NMatD0=    1 NMtDS0=    0 NMtDT0=    0
 Petite list used in FoFCou.
 Requested convergence on RMS density matrix=1.00D-08 within 128 cycles.
 Requested convergence on MAX density matrix=1.00D-06.
 Requested convergence on             energy=1.00D-06.
 No special actions if energy rises.
 Initial convergence to 1.0D-05 achieved.  Increase integral accuracy.
 SCF Done:  E(RHF) =  -1385.31562624     A.U. after   16 cycles
            NFock= 16  Conv=0.55D-08     -V/T= 2.0007
 ExpMin= 3.60D-02 ExpMax= 1.06D+05 ExpMxC= 3.62D+03 IAcc=3 IRadAn=         5 AccDes= 0.00D+00
 HarFok:  IExCor=  205 AccDes= 0.00D+00 IRadAn=         5 IDoV=-2 UseB2=F ITyADJ=14
 ICtDFT= 12500011 ScaDFX=  1.000000  1.000000  1.000000  1.000000
 Range of M.O.s used for correlation:    23   740
 NBasis=   742 NAE=    72 NBE=    72 NFC=    22 NFV=     0
 NROrb=    718 NOA=    50 NOB=    50 NVA=   668 NVB=   668

 **** Warning!!: The largest alpha MO coefficient is  0.21888186D+03

 Fully direct method using O(OVN) memory.
 JobTyp=1 Pass  1:  I=   1 to  10 NPSUse=  4 ParTrn=T ParDer=T DoDerP=F.
 JobTyp=1 Pass  2:  I=  11 to  24 NPSUse=  4 ParTrn=T ParDer=T DoDerP=F.
 JobTyp=1 Pass  3:  I=  25 to  50 NPSUse=  4 ParTrn=T ParDer=T DoDerP=F.
 Spin components of T(2) and E(2):
     alpha-alpha T2 =       0.1296965371D+00 E2=     -0.4348411651D+00
     alpha-beta  T2 =       0.6766680941D+00 E2=     -0.2466596089D+01
     beta-beta   T2 =       0.1296965371D+00 E2=     -0.4348411651D+00
 ANorm=    0.1391424151D+01
 E2 =    -0.3336278419D+01 EUMP2 =    -0.13886519046616D+04

 **********************************************************************

            Population analysis using the SCF density.

 **********************************************************************

 Orbital symmetries:
       Occupied  (A) (A) (A) (A) (A) (A) (A) (A) (A) (A) (A) (A)
                 (A) (A) (A) (A) (A) (A) (A) (A) (A) (A) (A) (A)
                 (A) (A) (A) (A) (A) (A) (A) (A) (A) (A) (A) (A)
                 (A) (A) (A) (A) (A) (A) (A) (A) (A) (A) (A) (A)
                 (A) (A) (A) (A) (A) (A) (A) (A) (A) (A) (A) (A)
                 (A) (A) (A) (A) (A) (A) (A) (A) (A) (A) (A) (A)
       Virtual   (A) (A) (A) (A) (A) (A) (A) (A) (A) (A) (A) (A)
                 (A) (A) (A) (A) (A) (A) (A) (A) (A) (A) (A) (A)
                 (A) (A) (A) (A) (A) (A) (A) (A) (A) (A) (A) (A)
                 (A) (A) (A) (A) (A) (A) (A) (A) (A) (A) (A) (A)
                 (A) (A) (A) (A) (A) (A) (A) (A) (A) (A) (A) (A)
                 (A) (A) (A) (A) (A) (A) (A) (A) (A) (A) (A) (A)
                 (A) (A) (A) (A) (A) (A) (A) (A) (A) (A) (A) (A)
                 (A) (A) (A) (A) (A) (A) (A) (A) (A) (A) (A) (A)
                 (A) (A) (A) (A) (A) (A) (A) (A) (A) (A) (A) (A)
                 (A) (A) (A) (A) (A) (A) (A) (A) (A) (A) (A) (A)
                 (A) (A) (A) (A) (A) (A) (A) (A) (A) (A) (A) (A)
                 (A) (A) (A) (A) (A) (A) (A) (A) (A) (A) (A) (A)
                 (A) (A) (A) (A) (A) (A) (A) (A) (A) (A) (A) (A)
                 (A) (A) (A) (A) (A) (A) (A) (A) (A) (A) (A) (A)
                 (A) (A) (A) (A) (A) (A) (A) (A) (A) (A) (A) (A)
                 (A) (A) (A) (A) (A) (A) (A) (A) (A) (A) (A) (A)
                 (A) (A) (A) (A) (A) (A) (A) (A) (A) (A) (A) (A)
                 (A) (A) (A) (A) (A) (A) (A) (A) (A) (A) (A) (A)
                 (A) (A) (A) (A) (A) (A) (A) (A) (A) (A) (A) (A)
                 (A) (A) (A) (A) (A) (A) (A) (A) (A) (A) (A) (A)
                 (A) (A) (A) (A) (A) (A) (A) (A) (A) (A) (A) (A)
                 (A) (A) (A) (A) (A) (A) (A) (A) (A) (A) (A) (A)
                 (A) (A) (A) (A) (A) (A) (A) (A) (A) (A) (A) (A)
                 (A) (A) (A) (A) (A) (A) (A) (A) (A) (A) (A) (A)
                 (A) (A) (A) (A) (A) (A) (A) (A) (A) (A) (A) (A)
                 (A) (A) (A) (A) (A) (A) (A) (A) (A) (A) (A) (A)
                 (A) (A) (A) (A) (A) (A) (A) (A) (A) (A) (A) (A)
                 (A) (A) (A) (A) (A) (A) (A) (A) (A) (A) (A) (A)
                 (A) (A) (A) (A) (A) (A) (A) (A) (A) (A) (A) (A)
                 (A) (A) (A) (A) (A) (A) (A) (A) (A) (A) (A) (A)
                 (A) (A) (A) (A) (A) (A) (A) (A) (A) (A) (A) (A)
                 (A) (A) (A) (A) (A) (A) (A) (A) (A) (A) (A) (A)
                 (A) (A) (A) (A) (A) (A) (A) (A) (A) (A) (A) (A)
                 (A) (A) (A) (A) (A) (A) (A) (A) (A) (A) (A) (A)
                 (A) (A) (A) (A) (A) (A) (A) (A) (A) (A) (A) (A)
                 (A) (A) (A) (A) (A) (A) (A) (A) (A) (A) (A) (A)
                 (A) (A) (A) (A) (A) (A) (A) (A) (A) (A) (A) (A)
                 (A) (A) (A) (A) (A) (A) (A) (A) (A) (A) (A) (A)
                 (A) (A) (A) (A) (A) (A) (A) (A) (A) (A) (A) (A)
                 (A) (A) (A) (A) (A) (A) (A) (A) (A) (A) (A) (A)
                 (A) (A) (A) (A) (A) (A) (A) (A) (A) (A) (A) (A)
                 (A) (A) (A) (A) (A) (A) (A) (A) (A) (A) (A) (A)
                 (A) (A) (A) (A) (A) (A) (A) (A) (A) (A) (A) (A)
                 (A) (A) (A) (A) (A) (A) (A) (A) (A) (A) (A) (A)
                 (A) (A) (A) (A) (A) (A) (A) (A) (A) (A) (A) (A)
                 (A) (A) (A) (A) (A) (A) (A) (A) (A) (A) (A) (A)
                 (A) (A) (A) (A) (A) (A) (A) (A) (A) (A) (A) (A)
                 (A) (A) (A) (A) (A) (A) (A) (A) (A) (A) (A) (A)
                 (A) (A) (A) (A) (A) (A) (A) (A) (A) (A) (A) (A)
                 (A) (A) (A) (A) (A) (A) (A) (A) (A) (A) (A) (A)
                 (A) (A) (A) (A) (A) (A) (A) (A) (A) (A) (A) (A)
                 (A) (A) (A) (A) (A) (A) (A) (A) (A) (A) (A) (A)
                 (A) (A) (A) (A) (A) (A) (A) (A) (A) (A) (A) (A)
                 (A) (A) (A) (A) (A) (A) (A) (A) (A) (A) (A) (A)
                 (A) (A) (A) (A) (A) (A) (A) (A) (A) (A) (A) (A)
                 (A) (A) (A) (A) (A) (A) (A) (A)
 The electronic state is 1-A.
 Alpha  occ. eigenvalues -- -104.85068 -26.33701 -26.33060 -26.33058 -20.61811
 Alpha  occ. eigenvalues --  -20.55130 -15.62544 -11.50774 -11.42586 -11.32764
 Alpha  occ. eigenvalues --  -11.32252 -11.29752 -11.27274 -11.27043 -11.25818
 Alpha  occ. eigenvalues --  -11.25258 -11.23808 -11.22899 -10.57528  -8.04304
 Alpha  occ. eigenvalues --   -8.04127  -8.04124  -1.72727  -1.63118  -1.62709
 Alpha  occ. eigenvalues --   -1.49084  -1.38316  -1.28924  -1.20843  -1.13374
 Alpha  occ. eigenvalues --   -1.08876  -1.06847  -1.02396  -0.97959  -0.94848
 Alpha  occ. eigenvalues --   -0.89019  -0.86477  -0.83608  -0.82159  -0.81837
 Alpha  occ. eigenvalues --   -0.81080  -0.79843  -0.76557  -0.73244  -0.71072
 Alpha  occ. eigenvalues --   -0.70679  -0.70679  -0.68577  -0.66578  -0.66042
 Alpha  occ. eigenvalues --   -0.65800  -0.64667  -0.64312  -0.64288  -0.62734
 Alpha  occ. eigenvalues --   -0.61224  -0.60326  -0.58955  -0.56544  -0.55827
 Alpha  occ. eigenvalues --   -0.55461  -0.53312  -0.52838  -0.51383  -0.50225
 Alpha  occ. eigenvalues --   -0.49794  -0.47886  -0.47509  -0.46206  -0.46016
 Alpha  occ. eigenvalues --   -0.35893  -0.34011
 Alpha virt. eigenvalues --    0.02902   0.03825   0.05016   0.05447   0.05499
 Alpha virt. eigenvalues --    0.06575   0.07383   0.08152   0.08495   0.08713
 Alpha virt. eigenvalues --    0.08803   0.09507   0.09789   0.10634   0.10887
 Alpha virt. eigenvalues --    0.11038   0.12178   0.12461   0.13208   0.14081
 Alpha virt. eigenvalues --    0.14559   0.14817   0.14901   0.15826   0.16276
 Alpha virt. eigenvalues --    0.16706   0.17157   0.17674   0.17898   0.18174
 Alpha virt. eigenvalues --    0.18525   0.18553   0.18870   0.18981   0.19171
 Alpha virt. eigenvalues --    0.20076   0.20192   0.20738   0.20937   0.21289
 Alpha virt. eigenvalues --    0.22289   0.22364   0.23171   0.23188   0.23718
 Alpha virt. eigenvalues --    0.24387   0.25039   0.25898   0.25983   0.26444
 Alpha virt. eigenvalues --    0.27325   0.27552   0.28212   0.28812   0.29105
 Alpha virt. eigenvalues --    0.29266   0.29933   0.30125   0.30940   0.31048
 Alpha virt. eigenvalues --    0.31415   0.32020   0.32866   0.33277   0.33716
 Alpha virt. eigenvalues --    0.33898   0.35076   0.35418   0.36147   0.36308
 Alpha virt. eigenvalues --    0.37053   0.37581   0.37903   0.38956   0.39393
 Alpha virt. eigenvalues --    0.39616   0.39691   0.40005   0.40754   0.40777
 Alpha virt. eigenvalues --    0.41531   0.41547   0.42564   0.42839   0.42847
 Alpha virt. eigenvalues --    0.43626   0.43873   0.44951   0.45104   0.45561
 Alpha virt. eigenvalues --    0.46015   0.46524   0.47151   0.47448   0.48120
 Alpha virt. eigenvalues --    0.48419   0.49500   0.50558   0.50732   0.51648
 Alpha virt. eigenvalues --    0.52116   0.53271   0.54474   0.54991   0.55190
 Alpha virt. eigenvalues --    0.55836   0.56128   0.56173   0.57545   0.58119
 Alpha virt. eigenvalues --    0.59198   0.59776   0.60309   0.60547   0.61916
 Alpha virt. eigenvalues --    0.63608   0.64704   0.65105   0.65400   0.65985
 Alpha virt. eigenvalues --    0.67748   0.67969   0.68744   0.69449   0.69958
 Alpha virt. eigenvalues --    0.70020   0.70501   0.70746   0.71894   0.72499
 Alpha virt. eigenvalues --    0.72787   0.73019   0.74140   0.74209   0.75087
 Alpha virt. eigenvalues --    0.76328   0.77078   0.77180   0.78260   0.78398
 Alpha virt. eigenvalues --    0.79150   0.79324   0.80705   0.80997   0.81044
 Alpha virt. eigenvalues --    0.82583   0.83184   0.83560   0.84139   0.84640
 Alpha virt. eigenvalues --    0.84837   0.85208   0.85898   0.86931   0.87097
 Alpha virt. eigenvalues --    0.87693   0.88159   0.88584   0.89749   0.90627
 Alpha virt. eigenvalues --    0.92669   0.93349   0.93992   0.94274   0.94708
 Alpha virt. eigenvalues --    0.95614   0.96480   0.96580   0.97298   0.98401
 Alpha virt. eigenvalues --    0.99525   0.99838   1.01545   1.01573   1.01827
 Alpha virt. eigenvalues --    1.02785   1.02819   1.03801   1.04166   1.05941
 Alpha virt. eigenvalues --    1.06243   1.06425   1.07906   1.08366   1.10735
 Alpha virt. eigenvalues --    1.11167   1.13126   1.13678   1.15595   1.16183
 Alpha virt. eigenvalues --    1.16525   1.16943   1.18170   1.19591   1.20755
 Alpha virt. eigenvalues --    1.22540   1.23152   1.23413   1.24479   1.24918
 Alpha virt. eigenvalues --    1.26672   1.27956   1.28333   1.28689   1.30024
 Alpha virt. eigenvalues --    1.31072   1.32015   1.32634   1.33061   1.33628
 Alpha virt. eigenvalues --    1.34115   1.34379   1.35164   1.35902   1.36737
 Alpha virt. eigenvalues --    1.36883   1.38386   1.38711   1.39079   1.40550
 Alpha virt. eigenvalues --    1.40620   1.41097   1.41758   1.42350   1.43262
 Alpha virt. eigenvalues --    1.44976   1.46085   1.46127   1.47834   1.48384
 Alpha virt. eigenvalues --    1.48976   1.48976   1.49633   1.50696   1.51287
 Alpha virt. eigenvalues --    1.53628   1.54428   1.54820   1.56639   1.57105
 Alpha virt. eigenvalues --    1.57388   1.58129   1.58965   1.59209   1.60027
 Alpha virt. eigenvalues --    1.61175   1.61784   1.61944   1.62819   1.63496
 Alpha virt. eigenvalues --    1.65209   1.66313   1.66345   1.66833   1.66990
 Alpha virt. eigenvalues --    1.67586   1.68126   1.68810   1.70139   1.71157
 Alpha virt. eigenvalues --    1.72532   1.72994   1.73049   1.74138   1.74528
 Alpha virt. eigenvalues --    1.74603   1.76895   1.77206   1.77746   1.78575
 Alpha virt. eigenvalues --    1.79670   1.80574   1.81816   1.82735   1.83723
 Alpha virt. eigenvalues --    1.84550   1.85128   1.86243   1.86693   1.88235
 Alpha virt. eigenvalues --    1.89157   1.90590   1.92071   1.95288   1.95308
 Alpha virt. eigenvalues --    1.96626   1.98482   1.99159   1.99315   2.00998
 Alpha virt. eigenvalues --    2.03764   2.03948   2.06745   2.07003   2.11118
 Alpha virt. eigenvalues --    2.11507   2.12875   2.15920   2.21528   2.21597
 Alpha virt. eigenvalues --    2.22748   2.23356   2.26873   2.27730   2.30183
 Alpha virt. eigenvalues --    2.31582   2.32066   2.34878   2.39653   2.41477
 Alpha virt. eigenvalues --    2.43969   2.44757   2.46351   2.46575   2.49352
 Alpha virt. eigenvalues --    2.51179   2.51711   2.57706   2.59312   2.61506
 Alpha virt. eigenvalues --    2.61869   2.63524   2.65377   2.67949   2.71053
 Alpha virt. eigenvalues --    2.76718   2.76931   2.81245   2.81251   2.81801
 Alpha virt. eigenvalues --    2.86760   2.86795   2.88867   2.91648   2.92948
 Alpha virt. eigenvalues --    2.93715   2.93726   2.94415   2.97153   2.97816
 Alpha virt. eigenvalues --    2.99526   3.01507   3.02987   3.04350   3.04726
 Alpha virt. eigenvalues --    3.06457   3.08059   3.08456   3.10001   3.10363
 Alpha virt. eigenvalues --    3.11447   3.11993   3.12090   3.14392   3.14887
 Alpha virt. eigenvalues --    3.15196   3.16596   3.17761   3.18058   3.18178
 Alpha virt. eigenvalues --    3.19662   3.20473   3.20547   3.22268   3.22338
 Alpha virt. eigenvalues --    3.24338   3.25453   3.26752   3.28848   3.30099
 Alpha virt. eigenvalues --    3.31020   3.34255   3.34662   3.35553   3.36620
 Alpha virt. eigenvalues --    3.37216   3.38083   3.40612   3.41673   3.42136
 Alpha virt. eigenvalues --    3.42592   3.43235   3.45258   3.46123   3.46379
 Alpha virt. eigenvalues --    3.47481   3.49121   3.49272   3.49732   3.51573
 Alpha virt. eigenvalues --    3.52757   3.52972   3.54476   3.54896   3.55938
 Alpha virt. eigenvalues --    3.56134   3.58703   3.58766   3.60877   3.61594
 Alpha virt. eigenvalues --    3.63202   3.65791   3.65873   3.66377   3.67775
 Alpha virt. eigenvalues --    3.68837   3.69018   3.69938   3.69940   3.71430
 Alpha virt. eigenvalues --    3.72491   3.72731   3.72876   3.73297   3.75483
 Alpha virt. eigenvalues --    3.76069   3.76696   3.77526   3.80835   3.80838
 Alpha virt. eigenvalues --    3.81121   3.82026   3.84132   3.84482   3.85009
 Alpha virt. eigenvalues --    3.86697   3.88281   3.88518   3.88945   3.89399
 Alpha virt. eigenvalues --    3.90270   3.91507   3.92603   3.93022   3.93530
 Alpha virt. eigenvalues --    3.94003   3.94418   3.96137   3.97610   3.98932
 Alpha virt. eigenvalues --    4.00772   4.01202   4.01883   4.04022   4.04725
 Alpha virt. eigenvalues --    4.05182   4.05306   4.08569   4.09019   4.09097
 Alpha virt. eigenvalues --    4.11888   4.12618   4.14786   4.16590   4.17503
 Alpha virt. eigenvalues --    4.18467   4.18596   4.21420   4.22188   4.25077
 Alpha virt. eigenvalues --    4.26262   4.26355   4.26551   4.28709   4.30027
 Alpha virt. eigenvalues --    4.30903   4.31158   4.32664   4.35766   4.37005
 Alpha virt. eigenvalues --    4.38748   4.39228   4.39274   4.40327   4.41043
 Alpha virt. eigenvalues --    4.42608   4.44989   4.45397   4.46964   4.48612
 Alpha virt. eigenvalues --    4.51655   4.53316   4.55562   4.55893   4.57692
 Alpha virt. eigenvalues --    4.59241   4.60821   4.60999   4.63067   4.64790
 Alpha virt. eigenvalues --    4.65132   4.67592   4.67713   4.68661   4.69597
 Alpha virt. eigenvalues --    4.70782   4.72143   4.72893   4.73472   4.74751
 Alpha virt. eigenvalues --    4.75533   4.77609   4.78816   4.79876   4.80433
 Alpha virt. eigenvalues --    4.81219   4.82760   4.83559   4.83921   4.85207
 Alpha virt. eigenvalues --    4.85209   4.86676   4.87268   4.89673   4.91891
 Alpha virt. eigenvalues --    4.92310   4.92334   4.93111   4.93814   4.95508
 Alpha virt. eigenvalues --    4.95630   4.97500   4.99708   5.00970   5.01333
 Alpha virt. eigenvalues --    5.04826   5.06650   5.07693   5.09219   5.14424
 Alpha virt. eigenvalues --    5.15759   5.18232   5.19946   5.21824   5.31362
 Alpha virt. eigenvalues --    5.32903   5.35896   5.41762   5.41798   5.46891
 Alpha virt. eigenvalues --    5.49789   5.52533   5.54066   5.55921   5.60495
 Alpha virt. eigenvalues --    5.62323   5.63901   5.65972   5.66585   5.68086
 Alpha virt. eigenvalues --    5.69940   5.71327   5.72127   5.76047   5.78281
 Alpha virt. eigenvalues --    5.80444   5.81513   5.83628   5.85666   5.87733
 Alpha virt. eigenvalues --    5.92051   5.94506   5.94691   5.98509   6.01200
 Alpha virt. eigenvalues --    6.01256   6.05142   6.05522   6.06910   6.13675
 Alpha virt. eigenvalues --    6.14842   6.17356   6.20513   6.24498   6.26413
 Alpha virt. eigenvalues --    6.28112   6.34110   6.40927   6.47048   6.48708
 Alpha virt. eigenvalues --    6.53368   6.64103   6.66117   6.86340   6.89330
 Alpha virt. eigenvalues --    6.94258   6.95852   6.97284   6.99010   7.03256
 Alpha virt. eigenvalues --    7.06501   7.07602   7.08957   7.10754   7.11560
 Alpha virt. eigenvalues --    7.12326   7.12480   7.13324   7.14600   7.15977
 Alpha virt. eigenvalues --    7.16238   7.17565   7.18817   7.24214   7.26201
 Alpha virt. eigenvalues --    7.30274   7.36170   7.36470   7.37665   7.37757
 Alpha virt. eigenvalues --    7.43784   7.53681   7.56426   7.57009   7.63072
 Alpha virt. eigenvalues --    7.67526   7.73327   7.76279   7.78366   7.80964
 Alpha virt. eigenvalues --    7.84626   7.87434   7.90329   7.92869   7.95206
 Alpha virt. eigenvalues --    8.15779   8.28801   8.35889   8.39654   8.42832
 Alpha virt. eigenvalues --    8.45542   9.69570   9.71445   9.72676   9.81515
 Alpha virt. eigenvalues --    9.85810   9.88397  10.03358  10.12468  10.15896
 Alpha virt. eigenvalues --   10.26068  10.40783  10.52263  10.59200  10.68214
 Alpha virt. eigenvalues --   10.75040  10.80098  21.81687  21.93205  22.19909
 Alpha virt. eigenvalues --   25.00278  25.38176  25.51072  25.58412  25.61230
 Alpha virt. eigenvalues --   25.67696  25.72565  25.85615  25.87850  26.11025
 Alpha virt. eigenvalues --   26.29646  37.36181  51.79366  51.94888  68.83524
 Alpha virt. eigenvalues --   68.86665  68.93232 220.11249
          Condensed to atoms (all electrons):
               1          2          3          4          5          6
     1  C   16.641224  -0.411088   0.065399  -0.277281  -0.133718  -0.376376
     2  N   -0.411088   6.982577   0.500042   0.023530   0.093226  -0.227338
     3  C    0.065399   0.500042   7.244215   0.402112   0.229778  -0.602977
     4  O   -0.277281   0.023530   0.402112   8.136088  -0.074176  -0.174877
     5  O   -0.133718   0.093226   0.229778  -0.074176   8.097997   0.260046
     6  C   -0.376376  -0.227338  -0.602977  -0.174877   0.260046   6.885438
     7  C    0.020163  -0.050111   0.120870   0.052846  -0.204310  -0.569194
     8  C   -0.012160  -0.006189  -0.193373   0.002252   0.030264   0.364697
     9  C    0.566956   0.109412  -0.781551   0.435808   0.009397  -0.403287
    10  C   -1.348147   0.164337   0.208999   0.049792   0.005613  -0.020616
    11  C   -3.777494  -0.052864  -1.100812  -0.007543  -0.004002  -0.118940
    12  C   -1.252849   0.023506  -0.271737  -0.002504  -0.001883  -0.005135
    13  C   -0.918315  -0.102412  -0.073889  -0.083006   0.003762   0.042474
    14  H    0.010375   0.399665  -0.008859   0.004248  -0.009291  -0.000095
    15  H    0.001426   0.006452   0.035963  -0.009601  -0.047930   0.461869
    16  H    0.001429   0.006455   0.035984  -0.009604  -0.047934   0.461868
    17  H    0.002439   0.002034   0.003387  -0.001002   0.000678  -0.023838
    18  H    0.002430   0.002036   0.003389  -0.001003   0.000679  -0.023826
    19  H    0.000121   0.000060  -0.000162   0.000368  -0.000217  -0.023396
    20  H   -0.000166  -0.000784   0.002369   0.000430  -0.002325   0.015810
    21  H    0.000123   0.000060  -0.000162   0.000368  -0.000217  -0.023402
    22  H   -0.133368  -0.024295   0.076834  -0.017712   0.004698   0.013029
    23  Cl  -0.144996   0.008118   0.021353  -0.002044   0.000338   0.001794
    24  C   -2.142042  -0.000192  -0.337800   0.002222   0.000632  -0.012553
    25  H    0.116748  -0.000023   0.001687   0.000157  -0.000038  -0.000292
    26  H   -0.206256  -0.021003  -0.019682  -0.001145   0.002464   0.001129
    27  F    0.033988  -0.000009   0.000424  -0.000000   0.000000  -0.000001
    28  F    0.014460  -0.000035  -0.000320   0.000002   0.000000  -0.000004
    29  F    0.014489  -0.000035  -0.000318   0.000002   0.000000  -0.000003
               7          8          9         10         11         12
     1  C    0.020163  -0.012160   0.566956  -1.348147  -3.777494  -1.252849
     2  N   -0.050111  -0.006189   0.109412   0.164337  -0.052864   0.023506
     3  C    0.120870  -0.193373  -0.781551   0.208999  -1.100812  -0.271737
     4  O    0.052846   0.002252   0.435808   0.049792  -0.007543  -0.002504
     5  O   -0.204310   0.030264   0.009397   0.005613  -0.004002  -0.001883
     6  C   -0.569194   0.364697  -0.403287  -0.020616  -0.118940  -0.005135
     7  C    5.766840  -0.067802  -0.001335  -0.001018  -0.000803  -0.002424
     8  C   -0.067802   5.171367  -0.009794  -0.000481  -0.000734   0.000185
     9  C   -0.001335  -0.009794  13.020521   4.217469  -5.318966  -1.639002
    10  C   -0.001018  -0.000481   4.217469  23.168769  -7.753542  -4.645791
    11  C   -0.000803  -0.000734  -5.318966  -7.753542  32.001892  -2.307343
    12  C   -0.002424   0.000185  -1.639002  -4.645791  -2.307343  12.556293
    13  C   -0.005608   0.002414  -2.832371  -5.304234   0.446174   1.618533
    14  H   -0.003859  -0.004215   0.077103   0.029323   0.002114  -0.069133
    15  H   -0.069027  -0.009281  -0.004861  -0.000031  -0.000197   0.000208
    16  H   -0.069051  -0.009281  -0.004864  -0.000032  -0.000198   0.000208
    17  H    0.429840  -0.029792  -0.001761  -0.000372  -0.000014   0.000325
    18  H    0.429823  -0.029790  -0.001756  -0.000371  -0.000014   0.000325
    19  H   -0.005643   0.418935   0.000113   0.000028   0.000011  -0.000012
    20  H   -0.037048   0.409348  -0.000170   0.000005  -0.000023  -0.000018
    21  H   -0.005638   0.418936   0.000112   0.000028   0.000011  -0.000012
    22  H    0.002997   0.000104   0.360970  -0.017864   0.068754  -0.036379
    23  Cl  -0.000029   0.000005  -0.272249  -0.773596   0.743530   0.027349
    24  C   -0.000228  -0.000031  -1.141045  -2.650292  -6.200074   1.962577
    25  H   -0.000019  -0.000010   0.040193   0.218502  -0.038428   0.396326
    26  H    0.000012   0.000344   0.005157  -0.084173   0.072834   0.020638
    27  F    0.000000  -0.000000  -0.015994   0.054039   0.056603  -0.147661
    28  F   -0.000000   0.000000   0.045516  -0.020454  -0.067211   0.027415
    29  F   -0.000000   0.000000   0.045556  -0.020310  -0.067286   0.027344
              13         14         15         16         17         18
     1  C   -0.918315   0.010375   0.001426   0.001429   0.002439   0.002430
     2  N   -0.102412   0.399665   0.006452   0.006455   0.002034   0.002036
     3  C   -0.073889  -0.008859   0.035963   0.035984   0.003387   0.003389
     4  O   -0.083006   0.004248  -0.009601  -0.009604  -0.001002  -0.001003
     5  O    0.003762  -0.009291  -0.047930  -0.047934   0.000678   0.000679
     6  C    0.042474  -0.000095   0.461869   0.461868  -0.023838  -0.023826
     7  C   -0.005608  -0.003859  -0.069027  -0.069051   0.429840   0.429823
     8  C    0.002414  -0.004215  -0.009281  -0.009281  -0.029792  -0.029790
     9  C   -2.832371   0.077103  -0.004861  -0.004864  -0.001761  -0.001756
    10  C   -5.304234   0.029323  -0.000031  -0.000032  -0.000372  -0.000371
    11  C    0.446174   0.002114  -0.000197  -0.000198  -0.000014  -0.000014
    12  C    1.618533  -0.069133   0.000208   0.000208   0.000325   0.000325
    13  C   11.871364  -0.105790   0.001635   0.001637   0.000843   0.000842
    14  H   -0.105790   0.460481   0.000529   0.000529   0.000544   0.000544
    15  H    0.001635   0.000529   0.587253  -0.052076   0.007448  -0.010102
    16  H    0.001637   0.000529  -0.052076   0.587252  -0.010101   0.007449
    17  H    0.000843   0.000544   0.007448  -0.010101   0.627349  -0.047413
    18  H    0.000842   0.000544  -0.010102   0.007449  -0.047413   0.627350
    19  H   -0.000054   0.000037   0.000344  -0.000119  -0.007812   0.005475
    20  H   -0.000059   0.000042  -0.001898  -0.001899  -0.005740  -0.005741
    21  H   -0.000054   0.000037  -0.000120   0.000344   0.005475  -0.007811
    22  H    0.022235  -0.000819  -0.000872  -0.000871  -0.000124  -0.000124
    23  Cl   0.169575  -0.000415   0.000002   0.000002  -0.000004  -0.000004
    24  C    0.816053  -0.007667   0.000008   0.000007   0.000002   0.000002
    25  H   -0.253444   0.001257   0.000000   0.000000   0.000004   0.000004
    26  H    0.564571  -0.002182  -0.000035  -0.000034  -0.000071  -0.000071
    27  F    0.052469   0.000009  -0.000000  -0.000000  -0.000000  -0.000000
    28  F   -0.009183   0.000018  -0.000000   0.000000  -0.000000   0.000000
    29  F   -0.009201   0.000018   0.000000  -0.000000   0.000000  -0.000000
              19         20         21         22         23         24
     1  C    0.000121  -0.000166   0.000123  -0.133368  -0.144996  -2.142042
     2  N    0.000060  -0.000784   0.000060  -0.024295   0.008118  -0.000192
     3  C   -0.000162   0.002369  -0.000162   0.076834   0.021353  -0.337800
     4  O    0.000368   0.000430   0.000368  -0.017712  -0.002044   0.002222
     5  O   -0.000217  -0.002325  -0.000217   0.004698   0.000338   0.000632
     6  C   -0.023396   0.015810  -0.023402   0.013029   0.001794  -0.012553
     7  C   -0.005643  -0.037048  -0.005638   0.002997  -0.000029  -0.000228
     8  C    0.418935   0.409348   0.418936   0.000104   0.000005  -0.000031
     9  C    0.000113  -0.000170   0.000112   0.360970  -0.272249  -1.141045
    10  C    0.000028   0.000005   0.000028  -0.017864  -0.773596  -2.650292
    11  C    0.000011  -0.000023   0.000011   0.068754   0.743530  -6.200074
    12  C   -0.000012  -0.000018  -0.000012  -0.036379   0.027349   1.962577
    13  C   -0.000054  -0.000059  -0.000054   0.022235   0.169575   0.816053
    14  H    0.000037   0.000042   0.000037  -0.000819  -0.000415  -0.007667
    15  H    0.000344  -0.001898  -0.000120  -0.000872   0.000002   0.000008
    16  H   -0.000119  -0.001899   0.000344  -0.000871   0.000002   0.000007
    17  H   -0.007812  -0.005740   0.005475  -0.000124  -0.000004   0.000002
    18  H    0.005475  -0.005741  -0.007811  -0.000124  -0.000004   0.000002
    19  H    0.621776  -0.025708  -0.042585   0.000015   0.000000   0.000000
    20  H   -0.025708   0.588472  -0.025707   0.000040   0.000000  -0.000001
    21  H   -0.042585  -0.025707   0.621778   0.000015   0.000000   0.000000
    22  H    0.000015   0.000040   0.000015   0.407346   0.021590  -0.028950
    23  Cl   0.000000   0.000000   0.000000   0.021590  17.915127  -0.457823
    24  C    0.000000  -0.000001   0.000000  -0.028950  -0.457823  14.249073
    25  H   -0.000000  -0.000000  -0.000000  -0.001129  -0.004205  -0.094663
    26  H    0.000002   0.000001   0.000002   0.002824   0.003160   0.027454
    27  F    0.000000   0.000000   0.000000   0.000402   0.004038   0.120160
    28  F    0.000000  -0.000000   0.000000  -0.000149  -0.018102   0.167867
    29  F    0.000000  -0.000000   0.000000  -0.000150  -0.018107   0.167822
              25         26         27         28         29
     1  C    0.116748  -0.206256   0.033988   0.014460   0.014489
     2  N   -0.000023  -0.021003  -0.000009  -0.000035  -0.000035
     3  C    0.001687  -0.019682   0.000424  -0.000320  -0.000318
     4  O    0.000157  -0.001145  -0.000000   0.000002   0.000002
     5  O   -0.000038   0.002464   0.000000   0.000000   0.000000
     6  C   -0.000292   0.001129  -0.000001  -0.000004  -0.000003
     7  C   -0.000019   0.000012   0.000000  -0.000000  -0.000000
     8  C   -0.000010   0.000344  -0.000000   0.000000   0.000000
     9  C    0.040193   0.005157  -0.015994   0.045516   0.045556
    10  C    0.218502  -0.084173   0.054039  -0.020454  -0.020310
    11  C   -0.038428   0.072834   0.056603  -0.067211  -0.067286
    12  C    0.396326   0.020638  -0.147661   0.027415   0.027344
    13  C   -0.253444   0.564571   0.052469  -0.009183  -0.009201
    14  H    0.001257  -0.002182   0.000009   0.000018   0.000018
    15  H    0.000000  -0.000035  -0.000000  -0.000000   0.000000
    16  H    0.000000  -0.000034  -0.000000   0.000000  -0.000000
    17  H    0.000004  -0.000071  -0.000000  -0.000000   0.000000
    18  H    0.000004  -0.000071  -0.000000   0.000000  -0.000000
    19  H   -0.000000   0.000002   0.000000   0.000000   0.000000
    20  H   -0.000000   0.000001   0.000000  -0.000000  -0.000000
    21  H   -0.000000   0.000002   0.000000   0.000000   0.000000
    22  H   -0.001129   0.002824   0.000402  -0.000149  -0.000150
    23  Cl  -0.004205   0.003160   0.004038  -0.018102  -0.018107
    24  C   -0.094663   0.027454   0.120160   0.167867   0.167822
    25  H    0.472629  -0.020225  -0.016569  -0.000236  -0.000235
    26  H   -0.020225   0.526384   0.000033  -0.000134  -0.000134
    27  F   -0.016569   0.000033   9.160227   0.011606   0.011601
    28  F   -0.000236  -0.000134   0.011606   9.060645   0.037381
    29  F   -0.000235  -0.000134   0.011601   0.037381   9.060653
 Mulliken charges:
               1
     1  C   -0.357512
     2  N   -0.425134
     3  C    0.438836
     4  O   -0.448730
     5  O   -0.213533
     6  C    0.097997
     7  C    0.269756
     8  C   -0.445920
     9  C   -0.505276
    10  C    0.524423
    11  C   -0.575435
    12  C   -0.279348
    13  C    0.083038
    14  H    0.225449
    15  H    0.102894
    16  H    0.102902
    17  H    0.047675
    18  H    0.047676
    19  H    0.058421
    20  H    0.090770
    21  H    0.058420
    22  H    0.280951
    23  Cl  -0.224408
    24  C    1.559481
    25  H    0.182008
    26  H    0.128135
    27  F   -0.325365
    28  F   -0.249083
    29  F   -0.249087
 Sum of Mulliken charges =  -0.00000
 Mulliken charges with hydrogens summed into heavy atoms:
               1
     1  C   -0.357512
     2  N   -0.199685
     3  C    0.438836
     4  O   -0.448730
     5  O   -0.213533
     6  C    0.303793
     7  C    0.365106
     8  C   -0.238310
     9  C   -0.224324
    10  C    0.524423
    11  C   -0.575435
    12  C   -0.097340
    13  C    0.211173
    23  Cl  -0.224408
    24  C    1.559481
    27  F   -0.325365
    28  F   -0.249083
    29  F   -0.249087
 Electronic spatial extent (au):  <R**2>=           8539.5976
 Charge=             -0.0000 electrons
 Dipole moment (field-independent basis, Debye):
    X=             -5.7753    Y=             -3.6958    Z=             -0.0001  Tot=              6.8566
 Quadrupole moment (field-independent basis, Debye-Ang):
   XX=           -108.5176   YY=           -107.2265   ZZ=           -112.9149
   XY=              1.1822   XZ=             -0.0005   YZ=             -0.0000
 Traceless Quadrupole moment (field-independent basis, Debye-Ang):
   XX=              1.0354   YY=              2.3265   ZZ=             -3.3619
   XY=              1.1822   XZ=             -0.0005   YZ=             -0.0000
 Octapole moment (field-independent basis, Debye-Ang**2):
  XXX=           -138.0553  YYY=            -18.7128  ZZZ=              0.0027  XYY=             26.7520
  XXY=             -2.0056  XXZ=              0.0008  XZZ=              9.3659  YZZ=              3.6279
  YYZ=             -0.0002  XYZ=              0.0003
 Hexadecapole moment (field-independent basis, Debye-Ang**3):
 XXXX=          -9042.3080 YYYY=           -964.8775 ZZZZ=           -200.1822 XXXY=              8.8057
 XXXZ=             -0.0027 YYYX=             19.0712 YYYZ=              0.0001 ZZZX=              0.0072
 ZZZY=             -0.0018 XXYY=          -1752.7182 XXZZ=          -1609.1026 YYZZ=           -213.1161
 XXYZ=             -0.0016 YYXZ=              0.0062 ZZXY=             -9.9983
 N-N= 1.439034064424D+03 E-N=-6.153733028884D+03  KE= 1.384380941456D+03
 1\1\GINC-R3767\SP\RMP2-FC\Gen\C11H11Cl1F3N1O2\ROOT\09-Dec-2019\0\\# MP
 2/Gen 5D SCF=Tight INT(grid=ultrafine) maxdisk=3489660928\\CP19CA.MP2_
 GTMP2LARGE\\0,1\C,0,-6.298615771,1.2792363771,0.0196052719\N,0,-5.0005
 518645,0.7634560885,0.0439966176\C,0,-3.8183408511,1.4625764263,0.0025
 357782\O,0,-3.6965736178,2.6573374055,-0.0627471432\O,0,-2.7980977059,
 0.5907631029,0.0469194589\C,0,-1.4865965736,1.1760108927,0.0113261378\
 C,0,-0.478379473,0.0490593663,0.0696261333\C,0,0.9476633498,0.59209796
 94,0.0359847812\C,0,-6.5744819764,2.6468797541,-0.0538669888\C,0,-7.89
 53922892,3.0707290688,-0.0731993507\C,0,-8.9578971681,2.1688472615,-0.
 0212777884\C,0,-8.6648023036,0.8099101308,0.0516854555\C,0,-7.35611954
 53,0.3651864962,0.0721827799\H,0,-4.9040983087,-0.2398115233,0.0981706
 318\H,0,-1.3825157253,1.8581318356,0.8585702577\H,0,-1.3876330063,1.76
 22983713,-0.9054173725\H,0,-0.6494076791,-0.6258006714,-0.7734539546\H
 ,0,-0.6443128755,-0.5304384987,0.9818321872\H,0,1.1349757582,1.1591204
 278,-0.8790768785\H,0,1.6760849049,-0.2185130859,0.0779241434\H,0,1.14
 00793239,1.254878052,0.8831188367\H,0,-5.7760323681,3.3716149943,-0.09
 54365743\Cl,0,-8.184342004,4.7811072467,-0.1652429118\C,0,-10.38995471
 29,2.6270679107,-0.0421712659\H,0,-9.4752001997,0.0935962777,0.0928336
 641\H,0,-7.1504007194,-0.6983030214,0.1293471464\F,0,-11.2341333454,1.
 584849866,0.0168168551\F,0,-10.6844115297,3.4221755871,0.9950473943\F,
 0,-10.6904317232,3.3052058912,-1.1577733024\\Version=ES64L-G09RevE.01\
 State=1-A\HF=-1385.3156262\MP2=-1388.6519047\RMSD=5.494e-09\PG=C01 [X(
 C11H11Cl1F3N1O2)]\\@


 ON A TOMBSTONE, "HERE LIES LESTER MOORE,
 FOUR SLUGS FROM A 44, NO LES, NO MORE".
 Job cpu time:       0 days  3 hours 18 minutes 25.2 seconds.
 File lengths (MBytes):  RWF=    295 Int=      0 D2E=      0 Chk=     33 Scr=      1
 Normal termination of Gaussian 09 at Mon Dec  9 11:27:22 2019.
pbs_rusage has been removed.
Please contact help@nci.org.au if you require this functionality.
