 Entering Gaussian System, Link 0=/apps/gaussian/g09e01/g09/g09
 Initial command:
 /apps/gaussian/g09e01/g09/l1.exe "/jobfs/local/3588412.r-man2/Gau-41779.inp" -scrdir="/jobfs/local/3588412.r-man2/"
 Entering Link 1 = /apps/gaussian/g09e01/g09/l1.exe PID=     41780.
  
 Copyright (c) 1988,1990,1992,1993,1995,1998,2003,2009,2015,
            Gaussian, Inc.  All Rights Reserved.
  
 This is part of the Gaussian(R) 09 program.  It is based on
 the Gaussian(R) 03 system (copyright 2003, Gaussian, Inc.),
 the Gaussian(R) 98 system (copyright 1998, Gaussian, Inc.),
 the Gaussian(R) 94 system (copyright 1995, Gaussian, Inc.),
 the Gaussian 92(TM) system (copyright 1992, Gaussian, Inc.),
 the Gaussian 90(TM) system (copyright 1990, Gaussian, Inc.),
 the Gaussian 88(TM) system (copyright 1988, Gaussian, Inc.),
 the Gaussian 86(TM) system (copyright 1986, Carnegie Mellon
 University), and the Gaussian 82(TM) system (copyright 1983,
 Carnegie Mellon University). Gaussian is a federally registered
 trademark of Gaussian, Inc.
  
 This software contains proprietary and confidential information,
 including trade secrets, belonging to Gaussian, Inc.
  
 This software is provided under written license and may be
 used, copied, transmitted, or stored only in accord with that
 written license.
  
 The following legend is applicable only to US Government
 contracts under FAR:
  
                    RESTRICTED RIGHTS LEGEND
  
 Use, reproduction and disclosure by the US Government is
 subject to restrictions as set forth in subparagraphs (a)
 and (c) of the Commercial Computer Software - Restricted
 Rights clause in FAR 52.227-19.
  
 Gaussian, Inc.
 340 Quinnipiac St., Bldg. 40, Wallingford CT 06492
  
  
 ---------------------------------------------------------------
 Warning -- This program may not be used in any manner that
 competes with the business of Gaussian, Inc. or will provide
 assistance to any competitor of Gaussian, Inc.  The licensee
 of this program is prohibited from giving any competitor of
 Gaussian, Inc. access to this program.  By using this program,
 the user acknowledges that Gaussian, Inc. is engaged in the
 business of creating and licensing software in the field of
 computational chemistry and represents and warrants to the
 licensee that it is not a competitor of Gaussian, Inc. and that
 it will not use this program in any manner prohibited above.
 ---------------------------------------------------------------
  

 Cite this work as:
 Gaussian 09, Revision E.01,
 M. J. Frisch, G. W. Trucks, H. B. Schlegel, G. E. Scuseria, 
 M. A. Robb, J. R. Cheeseman, G. Scalmani, V. Barone, B. Mennucci, 
 G. A. Petersson, H. Nakatsuji, M. Caricato, X. Li, H. P. Hratchian, 
 A. F. Izmaylov, J. Bloino, G. Zheng, J. L. Sonnenberg, M. Hada, 
 M. Ehara, K. Toyota, R. Fukuda, J. Hasegawa, M. Ishida, T. Nakajima, 
 Y. Honda, O. Kitao, H. Nakai, T. Vreven, J. A. Montgomery, Jr., 
 J. E. Peralta, F. Ogliaro, M. Bearpark, J. J. Heyd, E. Brothers, 
 K. N. Kudin, V. N. Staroverov, T. Keith, R. Kobayashi, J. Normand, 
 K. Raghavachari, A. Rendell, J. C. Burant, S. S. Iyengar, J. Tomasi, 
 M. Cossi, N. Rega, J. M. Millam, M. Klene, J. E. Knox, J. B. Cross, 
 V. Bakken, C. Adamo, J. Jaramillo, R. Gomperts, R. E. Stratmann, 
 O. Yazyev, A. J. Austin, R. Cammi, C. Pomelli, J. W. Ochterski, 
 R. L. Martin, K. Morokuma, V. G. Zakrzewski, G. A. Voth, 
 P. Salvador, J. J. Dannenberg, S. Dapprich, A. D. Daniels, 
 O. Farkas, J. B. Foresman, J. V. Ortiz, J. Cioslowski, 
 and D. J. Fox, Gaussian, Inc., Wallingford CT, 2013.
 
 ******************************************
 Gaussian 09:  ES64L-G09RevE.01 30-Nov-2015
                14-Nov-2019 
 ******************************************
 %chk=CP19CA_c2.M062X_6-311pGd_opt_Pentadecane_GD3.chk
 %mem=196608000
 %nproc=4
 Will use up to    4 processors via shared memory.
 ----------------------------------------------------------------------
 # M062X/6-311+G* SCF=Tight INT(grid=ultrafine) OPT IOP(2/17=4) Empiric
 alDispersion=GD3 SCRF=(SMD,Solvent=n-Pentadecane) maxdisk=2147483648
 ----------------------------------------------------------------------
 1/14=-1,18=20,19=15,26=4,38=1/1,3;
 2/9=110,12=2,17=4,18=5,40=1/2;
 3/5=4,6=6,7=11,11=2,16=1,25=1,30=1,70=32201,71=1,72=151,74=-55,75=-5,124=31/1,2,3;
 4//1;
 5/5=2,32=2,38=5,53=151/2;
 6/7=2,8=2,9=2,10=2,28=1/1;
 7//1,2,3,16;
 1/14=-1,18=20,19=15,26=4/3(2);
 2/9=110,17=4/2;
 99//99;
 2/9=110,17=4/2;
 3/5=4,6=6,7=11,11=2,16=1,25=1,30=1,70=32205,71=1,72=151,74=-55,75=-5,124=31/1,2,3;
 4/5=5,16=3,69=1/1;
 5/5=2,32=2,38=5,53=151/2;
 7//1,2,3,16;
 1/14=-1,18=20,19=15,26=4/3(-5);
 2/9=110,17=4/2;
 6/7=2,8=2,9=2,10=2,19=2,28=1/1;
 99/9=1/99;
 --------------------------------------------
 CP19CA_c2.M062X_6-311pGd_opt_Pentadecane_GD3
 --------------------------------------------
 Symbolic Z-matrix:
 Charge =  0 Multiplicity = 1
 C                    -6.23879   1.48238   0.03155 
 N                    -4.96688   0.91174   0.08783 
 C                    -3.75669   1.54989  -0.03264 
 O                    -3.58591   2.72916  -0.20999 
 O                    -2.77657   0.64397   0.07924 
 C                    -1.43604   1.15575  -0.02554 
 C                    -0.48564  -0.01158   0.12524 
 C                     0.96355   0.45344   0.02494 
 C                    -7.32666   0.61336   0.18293 
 C                    -8.61875   1.10008   0.13949 
 C                    -8.86723   2.46022  -0.05503 
 C                    -7.77819   3.31176  -0.20387 
 C                    -6.47211   2.84619  -0.16382 
 H                    -4.91425  -0.08689   0.23342 
 H                    -1.28367   1.90446   0.75557 
 H                    -1.32218   1.64701  -0.99487 
 H                    -0.70201  -0.75095  -0.65082 
 H                    -0.66369  -0.49492   1.08984 
 H                     1.16448   0.92347  -0.94118 
 H                     1.65147  -0.38658   0.13337 
 H                     1.20292   1.18039   0.80528 
 H                    -7.16447  -0.44771   0.33539 
 Cl                   -9.92326  -0.03583   0.33485 
 C                    -10.26478   3.00643  -0.10492 
 H                    -7.95188   4.36964  -0.35558 
 H                    -5.64784   3.53163  -0.28251 
 F                    -10.26905   4.33294  -0.29984 
 F                    -10.98892   2.46889  -1.09933 
 F                    -10.94253   2.78222   1.03199 
 

 GradGradGradGradGradGradGradGradGradGradGradGradGradGradGradGradGradGrad
 Berny optimization.
 Initialization pass.
                           ----------------------------
                           !    Initial Parameters    !
                           ! (Angstroms and Degrees)  !
 --------------------------                            --------------------------
 ! Name  Definition              Value          Derivative Info.                !
 --------------------------------------------------------------------------------
 ! R1    R(1,2)                  1.3952         estimate D2E/DX2                !
 ! R2    R(1,9)                  1.4006         estimate D2E/DX2                !
 ! R3    R(1,13)                 1.3973         estimate D2E/DX2                !
 ! R4    R(2,3)                  1.3734         estimate D2E/DX2                !
 ! R5    R(2,14)                 1.0106         estimate D2E/DX2                !
 ! R6    R(3,4)                  1.2047         estimate D2E/DX2                !
 ! R7    R(3,5)                  1.3393         estimate D2E/DX2                !
 ! R8    R(5,6)                  1.4387         estimate D2E/DX2                !
 ! R9    R(6,7)                  1.5128         estimate D2E/DX2                !
 ! R10   R(6,15)                 1.0927         estimate D2E/DX2                !
 ! R11   R(6,16)                 1.0927         estimate D2E/DX2                !
 ! R12   R(7,8)                  1.5253         estimate D2E/DX2                !
 ! R13   R(7,17)                 1.0935         estimate D2E/DX2                !
 ! R14   R(7,18)                 1.0935         estimate D2E/DX2                !
 ! R15   R(8,19)                 1.093          estimate D2E/DX2                !
 ! R16   R(8,20)                 1.0912         estimate D2E/DX2                !
 ! R17   R(8,21)                 1.093          estimate D2E/DX2                !
 ! R18   R(9,10)                 1.3814         estimate D2E/DX2                !
 ! R19   R(9,22)                 1.0842         estimate D2E/DX2                !
 ! R20   R(10,11)                1.3963         estimate D2E/DX2                !
 ! R21   R(10,23)                1.7407         estimate D2E/DX2                !
 ! R22   R(11,12)                1.3904         estimate D2E/DX2                !
 ! R23   R(11,24)                1.5013         estimate D2E/DX2                !
 ! R24   R(12,13)                1.3872         estimate D2E/DX2                !
 ! R25   R(12,25)                1.0827         estimate D2E/DX2                !
 ! R26   R(13,26)                1.0786         estimate D2E/DX2                !
 ! R27   R(24,27)                1.3408         estimate D2E/DX2                !
 ! R28   R(24,28)                1.3425         estimate D2E/DX2                !
 ! R29   R(24,29)                1.3425         estimate D2E/DX2                !
 ! A1    A(2,1,9)              116.7417         estimate D2E/DX2                !
 ! A2    A(2,1,13)             123.8518         estimate D2E/DX2                !
 ! A3    A(9,1,13)             119.4066         estimate D2E/DX2                !
 ! A4    A(1,2,3)              127.5686         estimate D2E/DX2                !
 ! A5    A(1,2,14)             117.2237         estimate D2E/DX2                !
 ! A6    A(3,2,14)             115.2077         estimate D2E/DX2                !
 ! A7    A(2,3,4)              126.3462         estimate D2E/DX2                !
 ! A8    A(2,3,5)              108.8574         estimate D2E/DX2                !
 ! A9    A(4,3,5)              124.7964         estimate D2E/DX2                !
 ! A10   A(3,5,6)              115.7959         estimate D2E/DX2                !
 ! A11   A(5,6,7)              107.6752         estimate D2E/DX2                !
 ! A12   A(5,6,15)             108.7607         estimate D2E/DX2                !
 ! A13   A(5,6,16)             108.7617         estimate D2E/DX2                !
 ! A14   A(7,6,15)             111.7075         estimate D2E/DX2                !
 ! A15   A(7,6,16)             111.708          estimate D2E/DX2                !
 ! A16   A(15,6,16)            108.1537         estimate D2E/DX2                !
 ! A17   A(6,7,8)              110.7989         estimate D2E/DX2                !
 ! A18   A(6,7,17)             109.0677         estimate D2E/DX2                !
 ! A19   A(6,7,18)             109.0676         estimate D2E/DX2                !
 ! A20   A(8,7,17)             110.3329         estimate D2E/DX2                !
 ! A21   A(8,7,18)             110.3328         estimate D2E/DX2                !
 ! A22   A(17,7,18)            107.1546         estimate D2E/DX2                !
 ! A23   A(7,8,19)             111.3393         estimate D2E/DX2                !
 ! A24   A(7,8,20)             110.9623         estimate D2E/DX2                !
 ! A25   A(7,8,21)             111.3396         estimate D2E/DX2                !
 ! A26   A(19,8,20)            107.6377         estimate D2E/DX2                !
 ! A27   A(19,8,21)            107.7454         estimate D2E/DX2                !
 ! A28   A(20,8,21)            107.6379         estimate D2E/DX2                !
 ! A29   A(1,9,10)             120.298          estimate D2E/DX2                !
 ! A30   A(1,9,22)             120.4149         estimate D2E/DX2                !
 ! A31   A(10,9,22)            119.2871         estimate D2E/DX2                !
 ! A32   A(9,10,11)            120.9349         estimate D2E/DX2                !
 ! A33   A(9,10,23)            117.872          estimate D2E/DX2                !
 ! A34   A(11,10,23)           121.1931         estimate D2E/DX2                !
 ! A35   A(10,11,12)           118.1711         estimate D2E/DX2                !
 ! A36   A(10,11,24)           121.6481         estimate D2E/DX2                !
 ! A37   A(12,11,24)           120.1808         estimate D2E/DX2                !
 ! A38   A(11,12,13)           121.926          estimate D2E/DX2                !
 ! A39   A(11,12,25)           119.1912         estimate D2E/DX2                !
 ! A40   A(13,12,25)           118.8828         estimate D2E/DX2                !
 ! A41   A(1,13,12)            119.2635         estimate D2E/DX2                !
 ! A42   A(1,13,26)            120.5327         estimate D2E/DX2                !
 ! A43   A(12,13,26)           120.2038         estimate D2E/DX2                !
 ! A44   A(11,24,27)           111.5766         estimate D2E/DX2                !
 ! A45   A(11,24,28)           112.3993         estimate D2E/DX2                !
 ! A46   A(11,24,29)           112.3989         estimate D2E/DX2                !
 ! A47   A(27,24,28)           106.6641         estimate D2E/DX2                !
 ! A48   A(27,24,29)           106.6641         estimate D2E/DX2                !
 ! A49   A(28,24,29)           106.7456         estimate D2E/DX2                !
 ! D1    D(9,1,2,3)            179.9803         estimate D2E/DX2                !
 ! D2    D(9,1,2,14)             0.0061         estimate D2E/DX2                !
 ! D3    D(13,1,2,3)            -0.0236         estimate D2E/DX2                !
 ! D4    D(13,1,2,14)         -179.9978         estimate D2E/DX2                !
 ! D5    D(2,1,9,10)           179.9969         estimate D2E/DX2                !
 ! D6    D(2,1,9,22)            -0.0018         estimate D2E/DX2                !
 ! D7    D(13,1,9,10)            0.0006         estimate D2E/DX2                !
 ! D8    D(13,1,9,22)         -179.9981         estimate D2E/DX2                !
 ! D9    D(2,1,13,12)         -179.9972         estimate D2E/DX2                !
 ! D10   D(2,1,13,26)            0.0048         estimate D2E/DX2                !
 ! D11   D(9,1,13,12)           -0.0011         estimate D2E/DX2                !
 ! D12   D(9,1,13,26)         -179.9992         estimate D2E/DX2                !
 ! D13   D(1,2,3,4)              0.0083         estimate D2E/DX2                !
 ! D14   D(1,2,3,5)           -179.9919         estimate D2E/DX2                !
 ! D15   D(14,2,3,4)           179.9829         estimate D2E/DX2                !
 ! D16   D(14,2,3,5)            -0.0172         estimate D2E/DX2                !
 ! D17   D(2,3,5,6)            179.9979         estimate D2E/DX2                !
 ! D18   D(4,3,5,6)             -0.0022         estimate D2E/DX2                !
 ! D19   D(3,5,6,7)           -179.9904         estimate D2E/DX2                !
 ! D20   D(3,5,6,15)            58.7971         estimate D2E/DX2                !
 ! D21   D(3,5,6,16)           -58.7768         estimate D2E/DX2                !
 ! D22   D(5,6,7,8)            179.9996         estimate D2E/DX2                !
 ! D23   D(5,6,7,17)            58.3605         estimate D2E/DX2                !
 ! D24   D(5,6,7,18)           -58.3615         estimate D2E/DX2                !
 ! D25   D(15,6,7,8)           -60.6483         estimate D2E/DX2                !
 ! D26   D(15,6,7,17)          177.7126         estimate D2E/DX2                !
 ! D27   D(15,6,7,18)           60.9906         estimate D2E/DX2                !
 ! D28   D(16,6,7,8)            60.646          estimate D2E/DX2                !
 ! D29   D(16,6,7,17)          -60.9931         estimate D2E/DX2                !
 ! D30   D(16,6,7,18)         -177.7151         estimate D2E/DX2                !
 ! D31   D(6,7,8,19)           -60.1315         estimate D2E/DX2                !
 ! D32   D(6,7,8,20)           179.9991         estimate D2E/DX2                !
 ! D33   D(6,7,8,21)            60.1292         estimate D2E/DX2                !
 ! D34   D(17,7,8,19)           60.7616         estimate D2E/DX2                !
 ! D35   D(17,7,8,20)          -59.1079         estimate D2E/DX2                !
 ! D36   D(17,7,8,21)         -178.9778         estimate D2E/DX2                !
 ! D37   D(18,7,8,19)          178.9758         estimate D2E/DX2                !
 ! D38   D(18,7,8,20)           59.1063         estimate D2E/DX2                !
 ! D39   D(18,7,8,21)          -60.7636         estimate D2E/DX2                !
 ! D40   D(1,9,10,11)            0.0003         estimate D2E/DX2                !
 ! D41   D(1,9,10,23)         -179.9988         estimate D2E/DX2                !
 ! D42   D(22,9,10,11)         179.999          estimate D2E/DX2                !
 ! D43   D(22,9,10,23)          -0.0001         estimate D2E/DX2                !
 ! D44   D(9,10,11,12)          -0.0007         estimate D2E/DX2                !
 ! D45   D(9,10,11,24)        -179.9997         estimate D2E/DX2                !
 ! D46   D(23,10,11,12)        179.9984         estimate D2E/DX2                !
 ! D47   D(23,10,11,24)         -0.0006         estimate D2E/DX2                !
 ! D48   D(10,11,12,13)          0.0001         estimate D2E/DX2                !
 ! D49   D(10,11,12,25)       -179.9995         estimate D2E/DX2                !
 ! D50   D(24,11,12,13)        179.9992         estimate D2E/DX2                !
 ! D51   D(24,11,12,25)         -0.0005         estimate D2E/DX2                !
 ! D52   D(10,11,24,27)       -179.9986         estimate D2E/DX2                !
 ! D53   D(10,11,24,28)        -60.2284         estimate D2E/DX2                !
 ! D54   D(10,11,24,29)         60.2315         estimate D2E/DX2                !
 ! D55   D(12,11,24,27)          0.0024         estimate D2E/DX2                !
 ! D56   D(12,11,24,28)        119.7726         estimate D2E/DX2                !
 ! D57   D(12,11,24,29)       -119.7675         estimate D2E/DX2                !
 ! D58   D(11,12,13,1)           0.0008         estimate D2E/DX2                !
 ! D59   D(11,12,13,26)        179.9988         estimate D2E/DX2                !
 ! D60   D(25,12,13,1)        -179.9996         estimate D2E/DX2                !
 ! D61   D(25,12,13,26)         -0.0015         estimate D2E/DX2                !
 --------------------------------------------------------------------------------
 Trust Radius=3.00D-01 FncErr=1.00D-07 GrdErr=1.00D-06
 Number of steps in this run=    149 maximum allowed number of steps=    174.
 GradGradGradGradGradGradGradGradGradGradGradGradGradGradGradGradGradGrad

                          Input orientation:                          
 ---------------------------------------------------------------------
 Center     Atomic      Atomic             Coordinates (Angstroms)
 Number     Number       Type             X           Y           Z
 ---------------------------------------------------------------------
      1          6           0       -6.238791    1.482380    0.031548
      2          7           0       -4.966878    0.911744    0.087833
      3          6           0       -3.756693    1.549891   -0.032643
      4          8           0       -3.585907    2.729156   -0.209995
      5          8           0       -2.776565    0.643975    0.079239
      6          6           0       -1.436040    1.155747   -0.025538
      7          6           0       -0.485635   -0.011580    0.125244
      8          6           0        0.963553    0.453441    0.024942
      9          6           0       -7.326663    0.613358    0.182935
     10          6           0       -8.618748    1.100081    0.139490
     11          6           0       -8.867235    2.460216   -0.055031
     12          6           0       -7.778188    3.311757   -0.203867
     13          6           0       -6.472113    2.846186   -0.163823
     14          1           0       -4.914246   -0.086894    0.233420
     15          1           0       -1.283666    1.904461    0.755570
     16          1           0       -1.322177    1.647014   -0.994873
     17          1           0       -0.702009   -0.750955   -0.650816
     18          1           0       -0.663691   -0.494916    1.089839
     19          1           0        1.164480    0.923466   -0.941179
     20          1           0        1.651468   -0.386584    0.133375
     21          1           0        1.202921    1.180390    0.805284
     22          1           0       -7.164470   -0.447711    0.335390
     23         17           0       -9.923259   -0.035828    0.334848
     24          6           0      -10.264784    3.006432   -0.104921
     25          1           0       -7.951882    4.369637   -0.355578
     26          1           0       -5.647837    3.531633   -0.282510
     27          9           0      -10.269046    4.332937   -0.299842
     28          9           0      -10.988919    2.468886   -1.099329
     29          9           0      -10.942530    2.782219    1.031988
 ---------------------------------------------------------------------
                    Distance matrix (angstroms):
                    1          2          3          4          5
     1  C    0.000000
     2  N    1.395191   0.000000
     3  C    2.483846   1.373424   0.000000
     4  O    2.941189   2.301906   1.204694   0.000000
     5  O    3.562612   2.206636   1.339347   2.255365   0.000000
     6  C    4.814184   3.541074   2.353896   2.670500   1.438714
     7  C    5.944704   4.575529   3.628076   4.151591   2.383323
     8  C    7.275474   5.948446   4.846260   5.092314   3.745362
     9  C    1.400565   2.380476   3.697061   4.315583   4.551383
    10  C    2.412882   3.657089   4.885851   5.301464   5.860270
    11  C    2.805775   4.198924   5.191034   5.290441   6.357123
    12  C    2.402454   3.707913   4.393850   4.232574   5.675689
    13  C    1.397346   2.463966   3.011825   2.888946   4.308814
    14  H    2.063442   1.010565   2.022321   3.145034   2.264424
    15  H    5.025498   3.872649   2.619707   2.629212   2.067607
    16  H    5.025310   3.872559   2.619577   2.628980   2.067619
    17  H    6.009106   4.636731   3.873902   4.541185   2.604341
    18  H    6.009278   4.636823   3.873998   4.541316   2.604347
    19  H    7.487791   6.217118   5.043391   5.134328   4.080589
    20  H    8.109228   6.744644   5.746799   6.103756   4.546698
    21  H    7.487920   6.217180   5.043453   5.134427   4.080587
    22  H    2.162048   2.595922   3.967216   4.816227   4.528918
    23  Cl   3.996529   5.052190   6.377781   6.935706   7.183502
    24  C    4.306968   5.700235   6.669482   6.685456   7.854205
    25  H    3.379467   4.589541   5.065063   4.666273   6.391676
    26  H    2.155759   2.732156   2.750666   2.213771   4.088231
    27  F    4.947570   6.322013   7.087135   6.873466   8.359989
    28  F    4.981545   6.332379   7.368003   7.460780   8.494826
    29  F    4.981528   6.332340   7.368062   7.460915   8.494869
                    6          7          8          9         10
     6  C    0.000000
     7  C    1.512831   0.000000
     8  C    2.500766   1.525271   0.000000
     9  C    5.919214   6.869756   8.293264   0.000000
    10  C    7.184819   8.208747   9.604778   1.381402   0.000000
    11  C    7.544877   8.740337  10.033839   2.416790   1.396264
    12  C    6.700972   8.020861   9.200020   2.763123   2.390805
    13  C    5.314013   6.639902   7.813449   2.415785   2.783689
    14  H    3.702584   4.430572   5.906263   2.512501   3.891153
    15  H    1.092667   2.169188   2.772953   6.205859   7.404730
    16  H    1.092665   2.169193   2.772941   6.205605   7.404449
    17  H    2.136653   1.093509   2.163635   6.814876   8.168578
    18  H    2.136650   1.093508   2.163633   6.815126   8.168850
    19  H    2.766778   2.175879   1.093016   8.570841   9.844318
    20  H    3.454959   2.169770   1.091158   9.033780  10.377261
    21  H    2.766765   2.175883   1.093016   8.571036   9.844538
    22  H    5.959552   6.696358   8.183716   1.084166   2.132829
    23  Cl   8.578031   9.439982  10.902206   2.680826   1.740747
    24  C    9.020979  10.236851  11.515649   3.800292   2.530483
    25  H    7.272840   8.670126   9.745068   3.845845   3.373396
    26  H    4.842531   6.274468   7.299334   3.398739   3.862233
    27  F    9.391048  10.713107  11.888114   4.767175   3.656208
    28  F    9.702312  10.861458  12.173232   4.301081   3.004332
    29  F    9.702429  10.861591  12.173421   4.301086   3.004348
                   11         12         13         14         15
    11  C    0.000000
    12  C    1.390431   0.000000
    13  C    2.428460   1.387153   0.000000
    14  H    4.711379   4.465895   3.344803   0.000000
    15  H    7.646990   6.714151   5.352767   4.173637   0.000000
    16  H    7.646731   6.713951   5.352615   4.173499   1.769693
    17  H    8.794173   8.171762   6.816940   4.354972   3.060634
    18  H    8.794411   8.171934   6.817066   4.355129   2.500623
    19  H   10.187353   9.285412   7.913197   6.273071   3.136037
    20  H   10.898756  10.134588   8.748239   6.573311   3.775053
    21  H   10.187548   9.285550   7.913292   6.273178   2.590341
    22  H    3.392326   3.847213   3.402694   2.281249   6.347687
    23  Cl   2.738143   4.012215   4.523836   5.010300   8.864779
    24  C    1.501328   2.507224   3.796512   6.189620   9.089295
    25  H    2.138712   1.082726   2.132461   5.425386   7.195613
    26  H    3.400618   2.143111   1.078589   3.728012   4.771927
    27  F    2.352040   2.693769   4.079906   6.963703   9.367415
    28  F    2.364778   3.438179   4.628073   6.723830   9.897028
    29  F    2.364772   3.438140   4.628033   6.723819   9.702605
                   16         17         18         19         20
    16  H    0.000000
    17  H    2.500647   0.000000
    18  H    3.060635   1.759802   0.000000
    19  H    2.590342   2.524238   3.078806   0.000000
    20  H    3.775053   2.507305   2.507293   1.762967   0.000000
    21  H    3.135988   3.078811   2.524254   1.765678   1.762970
    22  H    6.347429   6.544307   6.544582   8.537047   8.818464
    23  Cl   8.864464   9.301311   9.301633  11.202074  11.581793
    24  C    9.089018  10.288956  10.289212  11.647582  12.392191
    25  H    7.195440   8.880781   8.880925   9.763559  10.727769
    26  H    4.771853   6.552665   6.552721   7.324210   8.294892
    27  F    9.367162  10.839619  10.839845  11.948278  12.828102
    28  F    9.702179  10.788376  10.962979  12.252283  13.017398
    29  F    9.896871  10.962820  10.788767  12.406775  13.017588
                   21         22         23         24         25
    21  H    0.000000
    22  H    8.537256   0.000000
    23  Cl  11.202338   2.789366   0.000000
    24  C   11.647797   4.662287   3.092795   0.000000
    25  H    9.763673   4.929938   4.875566   2.696419   0.000000
    26  H    7.324242   4.303156   5.602423   4.650115   2.452796
    27  F   11.948468   5.735548   4.428150   1.340757   2.318125
    28  F   12.406802   5.019100   3.076701   1.342450   3.659182
    29  F   12.252724   5.019107   3.076737   1.342450   3.659128
                   26         27         28         29
    26  H    0.000000
    27  F    4.690199   0.000000
    28  F    5.506703   2.152227   0.000000
    29  F    5.506660   2.152227   2.154725   0.000000
 Stoichiometry    C11H11ClF3NO2
 Framework group  C1[X(C11H11ClF3NO2)]
 Deg. of freedom    81
 Full point group                 C1      NOp   1
 Largest Abelian subgroup         C1      NOp   1
 Largest concise Abelian subgroup C1      NOp   1
                         Standard orientation:                         
 ---------------------------------------------------------------------
 Center     Atomic      Atomic             Coordinates (Angstroms)
 Number     Number       Type             X           Y           Z
 ---------------------------------------------------------------------
      1          6           0        0.254776    0.133739   -0.000226
      2          7           0        1.602606    0.494170   -0.000392
      3          6           0        2.692801   -0.341156   -0.000151
      4          8           0        2.669384   -1.545623    0.000110
      5          8           0        3.807301    0.401636   -0.000256
      6          6           0        5.046666   -0.329029    0.000017
      7          6           0        6.174384    0.679389    0.000088
      8          6           0        7.528572   -0.022484    0.000386
      9          6           0       -0.677162    1.179241   -0.000111
     10          6           0       -2.031238    0.905839   -0.000009
     11          6           0       -2.497774   -0.410176   -0.000010
     12          6           0       -1.561832   -1.438431   -0.000132
     13          6           0       -0.197395   -1.188425   -0.000248
     14          1           0        1.817065    1.481717   -0.000323
     15          1           0        5.077242   -0.969456   -0.884766
     16          1           0        5.076971   -0.969290    0.884927
     17          1           0        6.079153    1.321746    0.879901
     18          1           0        6.079439    1.321546   -0.879901
     19          1           0        7.648243   -0.655557    0.883325
     20          1           0        8.344031    0.702535    0.000422
     21          1           0        7.648520   -0.655786   -0.882352
     22          1           0       -0.344442    2.211090   -0.000124
     23         17           0       -3.133491    2.253148    0.000098
     24          6           0       -3.965592   -0.725609    0.000094
     25          1           0       -1.905380   -2.465208   -0.000143
     26          1           0        0.504337   -2.007526   -0.000321
     27          9           0       -4.185685   -2.048177    0.000105
     28          9           0       -4.595128   -0.230581    1.077500
     29          9           0       -4.595273   -0.230575   -1.077225
 ---------------------------------------------------------------------
 Rotational constants (GHZ):      1.0951435      0.1233623      0.1132997
 Standard basis: 6-311+G(d) (5D, 7F)
 There are   455 symmetry adapted cartesian basis functions of A   symmetry.
 There are   437 symmetry adapted basis functions of A   symmetry.
   437 basis functions,   720 primitive gaussians,   455 cartesian basis functions
    72 alpha electrons       72 beta electrons
       nuclear repulsion energy      1431.2491625656 Hartrees.
 NAtoms=   29 NActive=   29 NUniq=   29 SFac= 1.00D+00 NAtFMM=   60 NAOKFM=F Big=F
 Integral buffers will be    131072 words long.
 Raffenetti 2 integral format.
 Two-electron integral symmetry is turned on.
 Nuclear repulsion after empirical dispersion term =     1431.2479405117 Hartrees.
 ------------------------------------------------------------------------------
 Polarizable Continuum Model (PCM)
 =================================
 Model                : PCM (using non-symmetric T matrix).
 Atomic radii         : SMD-Coulomb.
 Polarization charges : Total charges.
 Charge compensation  : None.
 Solution method      : On-the-fly selection.
 Cavity type          : VdW (van der Waals Surface) (Alpha=1.000).
 Cavity algorithm     : GePol (No added spheres)
                        Default sphere list used, NSphG=   29.
                        Lebedev-Laikov grids with approx.  5.0 points / Ang**2.
                        Smoothing algorithm: York/Karplus (Gamma=1.0000).
                        Polarization charges: spherical gaussians, with
                                              point-specific exponents (IZeta= 3).
                        Self-potential: point-specific (ISelfS= 7).
                        Self-field    : sphere-specific E.n sum rule (ISelfD= 2).
 1st derivatives      : Analytical E(r).r(x)/FMM algorithm (CHGder, D1EAlg=3).
                        Cavity 1st derivative terms included.
 Solvent              : n-Pentadecane, Eps=   2.033300 Eps(inf)=   2.049192
 ------------------------------------------------------------------------------
 ------------------------------------------------------------------------------
 Atomic radii for non-electrostatic terms: SMD-CDS.
 ------------------------------------------------------------------------------
 Nuclear repulsion after PCM non-electrostatic terms =     1431.2425571356 Hartrees.
 One-electron integrals computed using PRISM.
 NBasis=   437 RedAO= T EigKep=  1.48D-06  NBF=   437
 NBsUse=   435 1.00D-06 EigRej=  6.57D-07 NBFU=   435
 ExpMin= 4.38D-02 ExpMax= 1.06D+05 ExpMxC= 3.62D+03 IAcc=3 IRadAn=         5 AccDes= 0.00D+00
 Harris functional with IExCor= 1009 and IRadAn=       5 diagonalized for initial guess.
 HarFok:  IExCor= 1009 AccDes= 0.00D+00 IRadAn=         5 IDoV= 1 UseB2=F ITyADJ=14
 ICtDFT=  3500011 ScaDFX=  1.000000  1.000000  1.000000  1.000000
 FoFCou: FMM=F IPFlag=           0 FMFlag=      100000 FMFlg1=           0
         NFxFlg=           0 DoJE=T BraDBF=F KetDBF=T FulRan=T
         wScrn=  0.000000 ICntrl=     500 IOpCl=  0 I1Cent=   200000004 NGrid=           0
         NMat0=    1 NMatS0=      1 NMatT0=    0 NMatD0=    1 NMtDS0=    0 NMtDT0=    0
 Petite list used in FoFCou.
 Requested convergence on RMS density matrix=1.00D-08 within 128 cycles.
 Requested convergence on MAX density matrix=1.00D-06.
 Requested convergence on             energy=1.00D-06.
 No special actions if energy rises.
 Inv3:  Mode=1 IEnd=    17482188.
 Iteration    1 A*A^-1 deviation from unit magnitude is 5.00D-15 for   2387.
 Iteration    1 A*A^-1 deviation from orthogonality  is 2.15D-15 for    752    489.
 Iteration    1 A^-1*A deviation from unit magnitude is 5.00D-15 for   2387.
 Iteration    1 A^-1*A deviation from orthogonality  is 1.10D-15 for   2402   2400.
 Error on total polarization charges =  0.01782
 SCF Done:  E(RM062X) =  -1390.68437490     A.U. after   16 cycles
            NFock= 16  Conv=0.33D-08     -V/T= 2.0028
 SMD-CDS (non-electrostatic) energy       (kcal/mol) =      -3.38
 (included in total energy above)

 **********************************************************************

            Population analysis using the SCF density.

 **********************************************************************

 Orbital symmetries:
       Occupied  (A) (A) (A) (A) (A) (A) (A) (A) (A) (A) (A) (A)
                 (A) (A) (A) (A) (A) (A) (A) (A) (A) (A) (A) (A)
                 (A) (A) (A) (A) (A) (A) (A) (A) (A) (A) (A) (A)
                 (A) (A) (A) (A) (A) (A) (A) (A) (A) (A) (A) (A)
                 (A) (A) (A) (A) (A) (A) (A) (A) (A) (A) (A) (A)
                 (A) (A) (A) (A) (A) (A) (A) (A) (A) (A) (A) (A)
       Virtual   (A) (A) (A) (A) (A) (A) (A) (A) (A) (A) (A) (A)
                 (A) (A) (A) (A) (A) (A) (A) (A) (A) (A) (A) (A)
                 (A) (A) (A) (A) (A) (A) (A) (A) (A) (A) (A) (A)
                 (A) (A) (A) (A) (A) (A) (A) (A) (A) (A) (A) (A)
                 (A) (A) (A) (A) (A) (A) (A) (A) (A) (A) (A) (A)
                 (A) (A) (A) (A) (A) (A) (A) (A) (A) (A) (A) (A)
                 (A) (A) (A) (A) (A) (A) (A) (A) (A) (A) (A) (A)
                 (A) (A) (A) (A) (A) (A) (A) (A) (A) (A) (A) (A)
                 (A) (A) (A) (A) (A) (A) (A) (A) (A) (A) (A) (A)
                 (A) (A) (A) (A) (A) (A) (A) (A) (A) (A) (A) (A)
                 (A) (A) (A) (A) (A) (A) (A) (A) (A) (A) (A) (A)
                 (A) (A) (A) (A) (A) (A) (A) (A) (A) (A) (A) (A)
                 (A) (A) (A) (A) (A) (A) (A) (A) (A) (A) (A) (A)
                 (A) (A) (A) (A) (A) (A) (A) (A) (A) (A) (A) (A)
                 (A) (A) (A) (A) (A) (A) (A) (A) (A) (A) (A) (A)
                 (A) (A) (A) (A) (A) (A) (A) (A) (A) (A) (A) (A)
                 (A) (A) (A) (A) (A) (A) (A) (A) (A) (A) (A) (A)
                 (A) (A) (A) (A) (A) (A) (A) (A) (A) (A) (A) (A)
                 (A) (A) (A) (A) (A) (A) (A) (A) (A) (A) (A) (A)
                 (A) (A) (A) (A) (A) (A) (A) (A) (A) (A) (A) (A)
                 (A) (A) (A) (A) (A) (A) (A) (A) (A) (A) (A) (A)
                 (A) (A) (A) (A) (A) (A) (A) (A) (A) (A) (A) (A)
                 (A) (A) (A) (A) (A) (A) (A) (A) (A) (A) (A) (A)
                 (A) (A) (A) (A) (A) (A) (A) (A) (A) (A) (A) (A)
                 (A) (A) (A) (A) (A) (A) (A) (A) (A) (A) (A) (A)
                 (A) (A) (A) (A) (A) (A) (A) (A) (A) (A) (A) (A)
                 (A) (A) (A) (A) (A) (A) (A) (A) (A) (A) (A) (A)
                 (A) (A) (A) (A) (A) (A) (A) (A) (A) (A) (A) (A)
                 (A) (A) (A) (A) (A) (A) (A) (A) (A) (A) (A) (A)
                 (A) (A) (A) (A) (A) (A) (A) (A) (A) (A) (A) (A)
                 (A) (A) (A)
 The electronic state is 1-A.
 Alpha  occ. eigenvalues -- -102.69064 -25.28213 -25.27691 -25.27690 -19.67925
 Alpha  occ. eigenvalues --  -19.62031 -14.80809 -10.80870 -10.71622 -10.63478
 Alpha  occ. eigenvalues --  -10.62569 -10.59975 -10.58494 -10.57515 -10.57413
 Alpha  occ. eigenvalues --  -10.56050 -10.54210 -10.53097  -9.83345  -7.55865
 Alpha  occ. eigenvalues --   -7.55175  -7.55160  -1.47377  -1.38007  -1.37604
 Alpha  occ. eigenvalues --   -1.26074  -1.16140  -1.08473  -1.02082  -0.95684
 Alpha  occ. eigenvalues --   -0.91329  -0.89374  -0.85773  -0.82569  -0.79625
 Alpha  occ. eigenvalues --   -0.74711  -0.73766  -0.70065  -0.69664  -0.69202
 Alpha  occ. eigenvalues --   -0.68020  -0.66316  -0.65309  -0.61832  -0.59857
 Alpha  occ. eigenvalues --   -0.58045  -0.57899  -0.56885  -0.56038  -0.54769
 Alpha  occ. eigenvalues --   -0.54353  -0.53647  -0.53383  -0.52117  -0.51538
 Alpha  occ. eigenvalues --   -0.51302  -0.50739  -0.49935  -0.47538  -0.46407
 Alpha  occ. eigenvalues --   -0.45784  -0.44435  -0.43775  -0.43477  -0.41136
 Alpha  occ. eigenvalues --   -0.40962  -0.39435  -0.39306  -0.38606  -0.37701
 Alpha  occ. eigenvalues --   -0.32365  -0.30035
 Alpha virt. eigenvalues --   -0.01258  -0.00721   0.00314   0.01890   0.02145
 Alpha virt. eigenvalues --    0.02647   0.03350   0.03355   0.03911   0.05028
 Alpha virt. eigenvalues --    0.05047   0.05349   0.06228   0.06349   0.06726
 Alpha virt. eigenvalues --    0.07147   0.07640   0.07782   0.07898   0.08365
 Alpha virt. eigenvalues --    0.09480   0.09506   0.09547   0.10244   0.11012
 Alpha virt. eigenvalues --    0.11642   0.12322   0.12339   0.12718   0.13255
 Alpha virt. eigenvalues --    0.13452   0.14500   0.14900   0.15060   0.15840
 Alpha virt. eigenvalues --    0.16701   0.17418   0.17590   0.18343   0.18490
 Alpha virt. eigenvalues --    0.18979   0.19341   0.19719   0.20302   0.20507
 Alpha virt. eigenvalues --    0.20550   0.20912   0.21111   0.21419   0.22126
 Alpha virt. eigenvalues --    0.22706   0.23622   0.23868   0.24024   0.24237
 Alpha virt. eigenvalues --    0.24707   0.24751   0.25326   0.25627   0.25854
 Alpha virt. eigenvalues --    0.25885   0.26746   0.27372   0.27668   0.27953
 Alpha virt. eigenvalues --    0.28502   0.29362   0.29700   0.30034   0.30099
 Alpha virt. eigenvalues --    0.30233   0.31153   0.31333   0.31847   0.32159
 Alpha virt. eigenvalues --    0.32367   0.32890   0.34452   0.34596   0.34901
 Alpha virt. eigenvalues --    0.35237   0.36907   0.37074   0.37556   0.38479
 Alpha virt. eigenvalues --    0.39391   0.39550   0.40013   0.40589   0.41856
 Alpha virt. eigenvalues --    0.42173   0.43142   0.43478   0.43488   0.44951
 Alpha virt. eigenvalues --    0.45806   0.46243   0.47283   0.48408   0.48613
 Alpha virt. eigenvalues --    0.49536   0.50065   0.50427   0.51645   0.52656
 Alpha virt. eigenvalues --    0.54441   0.54671   0.55922   0.56101   0.57230
 Alpha virt. eigenvalues --    0.58711   0.59634   0.60001   0.60810   0.61478
 Alpha virt. eigenvalues --    0.61858   0.63206   0.63558   0.63568   0.65059
 Alpha virt. eigenvalues --    0.65219   0.67567   0.67802   0.67858   0.69561
 Alpha virt. eigenvalues --    0.69964   0.70311   0.71392   0.72151   0.72493
 Alpha virt. eigenvalues --    0.72955   0.73187   0.73674   0.74159   0.74848
 Alpha virt. eigenvalues --    0.76510   0.77098   0.77835   0.78140   0.80546
 Alpha virt. eigenvalues --    0.80943   0.82110   0.83089   0.84570   0.88196
 Alpha virt. eigenvalues --    0.88886   0.91307   0.91373   0.91714   0.93388
 Alpha virt. eigenvalues --    0.94200   0.94264   0.96091   0.96197   0.97676
 Alpha virt. eigenvalues --    0.98027   0.99605   1.01600   1.03074   1.04237
 Alpha virt. eigenvalues --    1.04397   1.05407   1.06619   1.08850   1.10238
 Alpha virt. eigenvalues --    1.10866   1.11216   1.11697   1.13660   1.14816
 Alpha virt. eigenvalues --    1.18469   1.19491   1.21256   1.21869   1.22908
 Alpha virt. eigenvalues --    1.23325   1.24952   1.28934   1.30140   1.31286
 Alpha virt. eigenvalues --    1.32101   1.33542   1.36080   1.38370   1.39098
 Alpha virt. eigenvalues --    1.40384   1.43438   1.44042   1.45554   1.47320
 Alpha virt. eigenvalues --    1.48519   1.49615   1.49828   1.50162   1.53361
 Alpha virt. eigenvalues --    1.53435   1.53540   1.56266   1.57276   1.57685
 Alpha virt. eigenvalues --    1.58294   1.58849   1.60329   1.60977   1.62223
 Alpha virt. eigenvalues --    1.62666   1.63953   1.64631   1.67463   1.70618
 Alpha virt. eigenvalues --    1.73271   1.74897   1.77242   1.78432   1.79142
 Alpha virt. eigenvalues --    1.79333   1.81488   1.82543   1.83990   1.84470
 Alpha virt. eigenvalues --    1.84642   1.86150   1.87486   1.91637   1.91642
 Alpha virt. eigenvalues --    1.92669   1.94278   1.97569   1.98819   1.99104
 Alpha virt. eigenvalues --    2.02182   2.06431   2.08655   2.08949   2.09194
 Alpha virt. eigenvalues --    2.10877   2.17310   2.18398   2.21279   2.22255
 Alpha virt. eigenvalues --    2.26417   2.30999   2.31327   2.35043   2.36377
 Alpha virt. eigenvalues --    2.40710   2.41337   2.43039   2.47332   2.50432
 Alpha virt. eigenvalues --    2.51951   2.54750   2.55423   2.56156   2.58044
 Alpha virt. eigenvalues --    2.59867   2.61400   2.62178   2.65081   2.68828
 Alpha virt. eigenvalues --    2.70064   2.73272   2.73399   2.79149   2.81438
 Alpha virt. eigenvalues --    2.85286   2.85685   2.91883   2.92585   2.92692
 Alpha virt. eigenvalues --    2.96477   3.01097   3.01397   3.02398   3.04198
 Alpha virt. eigenvalues --    3.04809   3.07030   3.09960   3.11660   3.11890
 Alpha virt. eigenvalues --    3.18080   3.18520   3.21187   3.24001   3.24674
 Alpha virt. eigenvalues --    3.29047   3.29439   3.29757   3.33837   3.37587
 Alpha virt. eigenvalues --    3.39550   3.41330   3.44132   3.44405   3.52114
 Alpha virt. eigenvalues --    3.55601   3.66823   3.70717   3.73790   3.78245
 Alpha virt. eigenvalues --    3.80336   3.82433   3.84087   3.84459   3.86651
 Alpha virt. eigenvalues --    3.87130   3.88276   3.90592   3.96331   3.97055
 Alpha virt. eigenvalues --    4.01063   4.01308   4.02177   4.05417   4.10614
 Alpha virt. eigenvalues --    4.12706   4.18675   4.23007   4.27505   4.32060
 Alpha virt. eigenvalues --    4.55913   4.76871   4.80901   4.98239   5.01885
 Alpha virt. eigenvalues --    5.08567   5.09860   5.15791   5.36897   5.50221
 Alpha virt. eigenvalues --    5.80333   5.95981   6.44385   6.48376   6.49710
 Alpha virt. eigenvalues --    6.52476   6.55393   6.57676   6.63279   6.87223
 Alpha virt. eigenvalues --    6.90932   9.99511  23.44251  23.57210  23.65731
 Alpha virt. eigenvalues --   23.72075  23.81621  23.90351  23.92653  23.97068
 Alpha virt. eigenvalues --   24.08181  24.11510  24.19621  25.95305  26.31419
 Alpha virt. eigenvalues --   26.82668  35.65348  50.01724  50.13649  66.88750
 Alpha virt. eigenvalues --   66.91408  66.97197 216.10351
          Condensed to atoms (all electrons):
               1          2          3          4          5          6
     1  C   20.245234  -0.195034  -1.020278  -0.388769  -0.326515  -0.554164
     2  N   -0.195034   7.625309   0.241962   0.005157  -0.227115  -0.270942
     3  C   -1.020278   0.241962   8.230976   0.470063   0.286483  -0.552143
     4  O   -0.388769   0.005157   0.470063   8.055899  -0.196724  -0.190379
     5  O   -0.326515  -0.227115   0.286483  -0.196724   8.345660   0.332824
     6  C   -0.554164  -0.270942  -0.552143  -0.190379   0.332824   8.035597
     7  C   -0.045343   0.033908   0.107025   0.028920  -0.164935  -0.912879
     8  C   -0.010755  -0.004600  -0.233231   0.000946   0.031743   0.301827
     9  C    2.291388  -0.214947  -0.154194  -0.097542  -0.029362  -0.007982
    10  C   -1.602936   0.036338  -1.534926  -0.009813  -0.004657  -0.119005
    11  C   -5.377264   0.100598   0.007766   0.025370   0.021028  -0.011264
    12  C   -4.673126   0.214124   0.031902   0.180638   0.007872  -0.055309
    13  C   -0.332489  -0.112814  -0.033758   0.420102   0.041194  -0.227238
    14  H   -0.054326   0.262513  -0.005046   0.000691   0.022643  -0.006268
    15  H    0.008716   0.004764   0.037520  -0.001613  -0.043449   0.356365
    16  H    0.008726   0.004775   0.037441  -0.001612  -0.043452   0.356431
    17  H   -0.000029  -0.000841   0.006080  -0.000287   0.000947  -0.063887
    18  H   -0.000030  -0.000840   0.006033  -0.000287   0.000946  -0.063845
    19  H   -0.000126  -0.000039  -0.001502  -0.000073  -0.000397  -0.048412
    20  H    0.000108   0.000034   0.007920   0.000031  -0.000680   0.091058
    21  H   -0.000126  -0.000039  -0.001495  -0.000072  -0.000397  -0.048391
    22  H    0.022294  -0.018858  -0.021485   0.000094  -0.000550  -0.001687
    23  Cl  -0.160524  -0.012589  -0.048886   0.000194  -0.000149  -0.002254
    24  C   -1.249461   0.040211  -0.004251  -0.000388   0.002902  -0.000146
    25  H    0.039325  -0.001777   0.005904  -0.000030   0.000008   0.000104
    26  H    0.047424  -0.025975   0.083215   0.003998   0.002200   0.010368
    27  F    0.029861   0.000028   0.000320  -0.000001   0.000001   0.000003
    28  F    0.017277  -0.000089  -0.000088  -0.000000   0.000000  -0.000001
    29  F    0.017261  -0.000089  -0.000089  -0.000000   0.000000  -0.000001
               7          8          9         10         11         12
     1  C   -0.045343  -0.010755   2.291388  -1.602936  -5.377264  -4.673126
     2  N    0.033908  -0.004600  -0.214947   0.036338   0.100598   0.214124
     3  C    0.107025  -0.233231  -0.154194  -1.534926   0.007766   0.031902
     4  O    0.028920   0.000946  -0.097542  -0.009813   0.025370   0.180638
     5  O   -0.164935   0.031743  -0.029362  -0.004657   0.021028   0.007872
     6  C   -0.912879   0.301827  -0.007982  -0.119005  -0.011264  -0.055309
     7  C    6.515953  -0.144078   0.014570  -0.001798  -0.004081  -0.003204
     8  C   -0.144078   6.089059   0.001779  -0.000546  -0.000411  -0.001913
     9  C    0.014570   0.001779  11.595858   0.997848  -2.661199  -2.405304
    10  C   -0.001798  -0.000546   0.997848  32.777134 -12.557840  -4.994877
    11  C   -0.004081  -0.000411  -2.661199 -12.557840  31.672355   2.350763
    12  C   -0.003204  -0.001913  -2.405304  -4.994877   2.350763  15.711779
    13  C   -0.012647  -0.012909  -1.486374  -6.172619  -3.590620   0.070658
    14  H   -0.001684  -0.000564  -0.033056  -0.014412   0.023445   0.014285
    15  H   -0.022466  -0.014186   0.001231   0.000227  -0.000145  -0.000528
    16  H   -0.022476  -0.014160   0.001235   0.000228  -0.000145  -0.000532
    17  H    0.443796  -0.045218   0.000086   0.000020   0.000002   0.000019
    18  H    0.443773  -0.045186   0.000085   0.000020   0.000002   0.000019
    19  H    0.013815   0.380770   0.000008  -0.000000  -0.000000  -0.000000
    20  H   -0.135535   0.388496  -0.000026  -0.000001   0.000000   0.000003
    21  H    0.013816   0.380742   0.000008  -0.000000  -0.000000  -0.000000
    22  H   -0.000023  -0.000002   0.303543   0.015685   0.052548  -0.027729
    23  Cl   0.000003   0.000000   0.425901  -1.158214  -0.649255   0.372534
    24  C   -0.000501  -0.000005  -1.998020   0.093540  -2.660660  -1.215275
    25  H    0.000002  -0.000000  -0.005622  -0.057508   0.013447   0.337254
    26  H   -0.000428   0.000065  -0.002170  -0.009735   0.016596  -0.122509
    27  F   -0.000000   0.000000  -0.014675  -0.193860  -0.217847   0.183246
    28  F   -0.000000  -0.000000   0.021397  -0.236635   0.278155   0.046188
    29  F   -0.000000  -0.000000   0.021380  -0.236692   0.278204   0.046234
              13         14         15         16         17         18
     1  C   -0.332489  -0.054326   0.008716   0.008726  -0.000029  -0.000030
     2  N   -0.112814   0.262513   0.004764   0.004775  -0.000841  -0.000840
     3  C   -0.033758  -0.005046   0.037520   0.037441   0.006080   0.006033
     4  O    0.420102   0.000691  -0.001613  -0.001612  -0.000287  -0.000287
     5  O    0.041194   0.022643  -0.043449  -0.043452   0.000947   0.000946
     6  C   -0.227238  -0.006268   0.356365   0.356431  -0.063887  -0.063845
     7  C   -0.012647  -0.001684  -0.022466  -0.022476   0.443796   0.443773
     8  C   -0.012909  -0.000564  -0.014186  -0.014160  -0.045218  -0.045186
     9  C   -1.486374  -0.033056   0.001231   0.001235   0.000086   0.000085
    10  C   -6.172619  -0.014412   0.000227   0.000228   0.000020   0.000020
    11  C   -3.590620   0.023445  -0.000145  -0.000145   0.000002   0.000002
    12  C    0.070658   0.014285  -0.000528  -0.000532   0.000019   0.000019
    13  C   16.862364   0.058412  -0.004205  -0.004222   0.000078   0.000078
    14  H    0.058412   0.296393  -0.000012  -0.000012   0.000004   0.000004
    15  H   -0.004205  -0.000012   0.441648  -0.039688   0.005252  -0.007731
    16  H   -0.004222  -0.000012  -0.039688   0.441646  -0.007730   0.005251
    17  H    0.000078   0.000004   0.005252  -0.007730   0.440247  -0.036670
    18  H    0.000078   0.000004  -0.007731   0.005251  -0.036670   0.440244
    19  H   -0.000009  -0.000000  -0.000463   0.003520  -0.007931   0.005979
    20  H    0.000069   0.000000  -0.000188  -0.000188  -0.003181  -0.003181
    21  H   -0.000009  -0.000000   0.003520  -0.000463   0.005979  -0.007931
    22  H   -0.018551   0.005893  -0.000000  -0.000000  -0.000000  -0.000000
    23  Cl   0.332677   0.000461   0.000001   0.000001   0.000000   0.000000
    24  C   -0.183636   0.002763  -0.000006  -0.000006   0.000000   0.000000
    25  H   -0.039055  -0.000006   0.000000   0.000000  -0.000000  -0.000000
    26  H    0.315612  -0.000080  -0.000025  -0.000025  -0.000000  -0.000000
    27  F    0.198378   0.000001  -0.000000  -0.000000  -0.000000  -0.000000
    28  F    0.004635   0.000000   0.000000  -0.000000   0.000000  -0.000000
    29  F    0.004670   0.000000  -0.000000   0.000000  -0.000000   0.000000
              19         20         21         22         23         24
     1  C   -0.000126   0.000108  -0.000126   0.022294  -0.160524  -1.249461
     2  N   -0.000039   0.000034  -0.000039  -0.018858  -0.012589   0.040211
     3  C   -0.001502   0.007920  -0.001495  -0.021485  -0.048886  -0.004251
     4  O   -0.000073   0.000031  -0.000072   0.000094   0.000194  -0.000388
     5  O   -0.000397  -0.000680  -0.000397  -0.000550  -0.000149   0.002902
     6  C   -0.048412   0.091058  -0.048391  -0.001687  -0.002254  -0.000146
     7  C    0.013815  -0.135535   0.013816  -0.000023   0.000003  -0.000501
     8  C    0.380770   0.388496   0.380742  -0.000002   0.000000  -0.000005
     9  C    0.000008  -0.000026   0.000008   0.303543   0.425901  -1.998020
    10  C   -0.000000  -0.000001  -0.000000   0.015685  -1.158214   0.093540
    11  C   -0.000000   0.000000  -0.000000   0.052548  -0.649255  -2.660660
    12  C   -0.000000   0.000003  -0.000000  -0.027729   0.372534  -1.215275
    13  C   -0.000009   0.000069  -0.000009  -0.018551   0.332677  -0.183636
    14  H   -0.000000   0.000000  -0.000000   0.005893   0.000461   0.002763
    15  H   -0.000463  -0.000188   0.003520  -0.000000   0.000001  -0.000006
    16  H    0.003520  -0.000188  -0.000463  -0.000000   0.000001  -0.000006
    17  H   -0.007931  -0.003181   0.005979  -0.000000   0.000000   0.000000
    18  H    0.005979  -0.003181  -0.007931  -0.000000   0.000000   0.000000
    19  H    0.452116  -0.024585  -0.037271  -0.000000  -0.000000  -0.000000
    20  H   -0.024585   0.425607  -0.024586   0.000000  -0.000000   0.000000
    21  H   -0.037271  -0.024586   0.452117  -0.000000  -0.000000  -0.000000
    22  H   -0.000000   0.000000  -0.000000   0.392984  -0.011292   0.027261
    23  Cl  -0.000000  -0.000000  -0.000000  -0.011292  17.648551  -0.172693
    24  C   -0.000000   0.000000  -0.000000   0.027261  -0.172693  12.581734
    25  H    0.000000  -0.000000   0.000000   0.000037  -0.000231   0.025243
    26  H   -0.000000   0.000000  -0.000000  -0.000042   0.000111   0.011386
    27  F   -0.000000  -0.000000  -0.000000   0.000027   0.011659   0.145487
    28  F   -0.000000   0.000000  -0.000000   0.000002  -0.007646   0.023119
    29  F   -0.000000   0.000000  -0.000000   0.000002  -0.007643   0.023080
              25         26         27         28         29
     1  C    0.039325   0.047424   0.029861   0.017277   0.017261
     2  N   -0.001777  -0.025975   0.000028  -0.000089  -0.000089
     3  C    0.005904   0.083215   0.000320  -0.000088  -0.000089
     4  O   -0.000030   0.003998  -0.000001  -0.000000  -0.000000
     5  O    0.000008   0.002200   0.000001   0.000000   0.000000
     6  C    0.000104   0.010368   0.000003  -0.000001  -0.000001
     7  C    0.000002  -0.000428  -0.000000  -0.000000  -0.000000
     8  C   -0.000000   0.000065   0.000000  -0.000000  -0.000000
     9  C   -0.005622  -0.002170  -0.014675   0.021397   0.021380
    10  C   -0.057508  -0.009735  -0.193860  -0.236635  -0.236692
    11  C    0.013447   0.016596  -0.217847   0.278155   0.278204
    12  C    0.337254  -0.122509   0.183246   0.046188   0.046234
    13  C   -0.039055   0.315612   0.198378   0.004635   0.004670
    14  H   -0.000006  -0.000080   0.000001   0.000000   0.000000
    15  H    0.000000  -0.000025  -0.000000   0.000000  -0.000000
    16  H    0.000000  -0.000025  -0.000000  -0.000000   0.000000
    17  H   -0.000000  -0.000000  -0.000000   0.000000  -0.000000
    18  H   -0.000000  -0.000000  -0.000000  -0.000000   0.000000
    19  H    0.000000  -0.000000  -0.000000  -0.000000  -0.000000
    20  H   -0.000000   0.000000  -0.000000   0.000000   0.000000
    21  H    0.000000  -0.000000  -0.000000  -0.000000  -0.000000
    22  H    0.000037  -0.000042   0.000027   0.000002   0.000002
    23  Cl  -0.000231   0.000111   0.011659  -0.007646  -0.007643
    24  C    0.025243   0.011386   0.145487   0.023119   0.023080
    25  H    0.375560  -0.001810   0.011815   0.000242   0.000243
    26  H   -0.001810   0.360875   0.000015   0.000029   0.000029
    27  F    0.011815   0.000015   9.062389  -0.036069  -0.036068
    28  F    0.000242   0.000029  -0.036069   8.989797  -0.051434
    29  F    0.000243   0.000029  -0.036068  -0.051434   8.989792
 Mulliken charges:
               1
     1  C   -0.736319
     2  N   -0.483134
     3  C    0.050765
     4  O   -0.304514
     5  O   -0.058067
     6  C   -0.348379
     7  C   -0.143505
     8  C   -1.047663
     9  C   -0.565843
    10  C    0.985035
    11  C   -1.109546
    12  C   -0.067208
    13  C   -0.077774
    14  H    0.427957
    15  H    0.275462
    16  H    0.275458
    17  H    0.263266
    18  H    0.263265
    19  H    0.264602
    20  H    0.278823
    21  H    0.264601
    22  H    0.279850
    23  Cl   0.439282
    24  C    0.508321
    25  H    0.296855
    26  H    0.310878
    27  F   -0.144710
    28  F   -0.048879
    29  F   -0.048877
 Sum of Mulliken charges =  -0.00000
 Mulliken charges with hydrogens summed into heavy atoms:
               1
     1  C   -0.736319
     2  N   -0.055177
     3  C    0.050765
     4  O   -0.304514
     5  O   -0.058067
     6  C    0.202541
     7  C    0.383026
     8  C   -0.239637
     9  C   -0.285993
    10  C    0.985035
    11  C   -1.109546
    12  C    0.229647
    13  C    0.233104
    23  Cl   0.439282
    24  C    0.508321
    27  F   -0.144710
    28  F   -0.048879
    29  F   -0.048877
 Electronic spatial extent (au):  <R**2>=           8796.2861
 Charge=             -0.0000 electrons
 Dipole moment (field-independent basis, Debye):
    X=              6.3802    Y=              1.9103    Z=             -0.0003  Tot=              6.6600
 Quadrupole moment (field-independent basis, Debye-Ang):
   XX=           -110.2193   YY=           -109.3801   ZZ=           -113.4229
   XY=              5.5700   XZ=              0.0009   YZ=              0.0013
 Traceless Quadrupole moment (field-independent basis, Debye-Ang):
   XX=              0.7882   YY=              1.6273   ZZ=             -2.4155
   XY=              5.5700   XZ=              0.0009   YZ=              0.0013
 Octapole moment (field-independent basis, Debye-Ang**2):
  XXX=            160.0199  YYY=              1.2285  ZZZ=              0.0036  XYY=            -26.3138
  XXY=             12.0644  XXZ=              0.0019  XZZ=             -8.2566  YZZ=             -4.4409
  YYZ=             -0.0025  XYZ=              0.0029
 Hexadecapole moment (field-independent basis, Debye-Ang**3):
 XXXX=          -9299.5809 YYYY=          -1011.3756 ZZZZ=           -203.8629 XXXY=             25.8965
 XXXZ=             -0.0031 YYYX=             60.8705 YYYZ=              0.0022 ZZZX=             -0.0106
 ZZZY=             -0.0032 XXYY=          -1840.3056 XXZZ=          -1674.1071 YYZZ=           -211.7383
 XXYZ=              0.0179 YYXZ=             -0.0094 ZZXY=              8.6296
 N-N= 1.431242557136D+03 E-N=-6.141206095522D+03  KE= 1.386766514123D+03
 D1PCM: PCM CHGder 1st derivatives, ID1Alg=3 FixD1E=F DoIter=F DoCFld=F I1PDM=0.
 Calling FoFJK, ICntrl=      2127 FMM=F ISym2X=0 I1Cent= 0 IOpClX= 0 NMat=1 NMatS=1 NMatT=0.
 ***** Axes restored to original set *****
 -------------------------------------------------------------------
 Center     Atomic                   Forces (Hartrees/Bohr)
 Number     Number              X              Y              Z
 -------------------------------------------------------------------
      1        6          -0.000002931   -0.000002778    0.000004206
      2        7           0.000003282    0.000008109   -0.000008387
      3        6          -0.000002890   -0.000012394    0.000001561
      4        8           0.000005040   -0.000001558    0.000002351
      5        8           0.000002937    0.000004696   -0.000003034
      6        6           0.000001110    0.000008163    0.000000472
      7        6           0.000000328    0.000006602   -0.000000352
      8        6           0.000002459    0.000008110   -0.000001956
      9        6           0.000001676   -0.000003621    0.000001440
     10        6           0.000000835   -0.000005303    0.000001412
     11        6          -0.000001565   -0.000005546    0.000000802
     12        6          -0.000004058   -0.000003266    0.000000390
     13        6          -0.000003076   -0.000001035   -0.000002331
     14        1           0.000001225    0.000002087    0.000003708
     15        1           0.000001712    0.000004874   -0.000000053
     16        1           0.000001339    0.000003798   -0.000002301
     17        1           0.000003577    0.000005564   -0.000002403
     18        1           0.000003489    0.000005548    0.000000719
     19        1          -0.000000013    0.000007730   -0.000002014
     20        1           0.000002215    0.000007094   -0.000000871
     21        1          -0.000000111    0.000007708   -0.000000057
     22        1          -0.000000230   -0.000002826   -0.000000406
     23       17           0.000000622   -0.000007267    0.000000585
     24        6          -0.000006813   -0.000003748    0.000000692
     25        1          -0.000003046   -0.000003929    0.000000562
     26        1          -0.000005695   -0.000000934    0.000001300
     27        9          -0.000005108   -0.000014660    0.000002102
     28        9           0.000002393   -0.000004613    0.000007609
     29        9           0.000001296   -0.000006603   -0.000005746
 -------------------------------------------------------------------
 Cartesian Forces:  Max     0.000014660 RMS     0.000004373

 GradGradGradGradGradGradGradGradGradGradGradGradGradGradGradGradGradGrad
 Berny optimization.
 FormGI is forming the generalized inverse of G from B-inverse, IUseBI=4.
 GSVD:  received Info=                   1 from GESDD.
 Internal  Forces:  Max     0.000016260 RMS     0.000003153
 Search for a local minimum.
 Step number   1 out of a maximum of  149
 All quantities printed in internal units (Hartrees-Bohrs-Radians)
 Mixed Optimization -- En-DIIS/RFO-DIIS
 Second derivative matrix not updated -- first step.
 ITU=  0
     Eigenvalues ---    0.00432   0.00596   0.00748   0.01180   0.01592
     Eigenvalues ---    0.01755   0.01897   0.02006   0.02043   0.02121
     Eigenvalues ---    0.02180   0.02189   0.02190   0.02217   0.02223
     Eigenvalues ---    0.02239   0.02258   0.02494   0.03836   0.04984
     Eigenvalues ---    0.05403   0.05504   0.05552   0.05729   0.08102
     Eigenvalues ---    0.10608   0.10781   0.11275   0.12004   0.13608
     Eigenvalues ---    0.16000   0.16000   0.16000   0.16000   0.16000
     Eigenvalues ---    0.16000   0.16000   0.21886   0.21953   0.22000
     Eigenvalues ---    0.22375   0.23486   0.24609   0.25000   0.25000
     Eigenvalues ---    0.25000   0.25000   0.25000   0.25000   0.25000
     Eigenvalues ---    0.25000   0.25000   0.29865   0.31068   0.31401
     Eigenvalues ---    0.32238   0.34410   0.34410   0.34466   0.34466
     Eigenvalues ---    0.34506   0.34506   0.34679   0.35496   0.35667
     Eigenvalues ---    0.36165   0.39762   0.42329   0.42896   0.45878
     Eigenvalues ---    0.46149   0.46285   0.46427   0.47284   0.48463
     Eigenvalues ---    0.50324   0.56659   0.56659   0.57036   0.57351
     Eigenvalues ---    1.02499
 RFO step:  Lambda= 0.00000000D+00 EMin= 4.31663789D-03
 Linear search not attempted -- first point.
 Iteration  1 RMS(Cart)=  0.00007716 RMS(Int)=  0.00000000
 Iteration  2 RMS(Cart)=  0.00000000 RMS(Int)=  0.00000000
 Variable       Old X    -DE/DX   Delta X   Delta X   Delta X     New X
                                 (Linear)    (Quad)   (Total)
    R1        2.63653   0.00001   0.00000   0.00002   0.00002   2.63655
    R2        2.64668   0.00000   0.00000   0.00001   0.00001   2.64669
    R3        2.64060   0.00000   0.00000   0.00001   0.00001   2.64061
    R4        2.59540   0.00000   0.00000   0.00001   0.00001   2.59540
    R5        1.90969  -0.00000   0.00000  -0.00000  -0.00000   1.90969
    R6        2.27654  -0.00000   0.00000  -0.00000  -0.00000   2.27654
    R7        2.53100  -0.00000   0.00000  -0.00000  -0.00000   2.53100
    R8        2.71877   0.00001   0.00000   0.00001   0.00001   2.71879
    R9        2.85884  -0.00000   0.00000  -0.00000  -0.00000   2.85883
   R10        2.06484   0.00000   0.00000   0.00000   0.00000   2.06484
   R11        2.06484   0.00000   0.00000   0.00000   0.00000   2.06484
   R12        2.88234  -0.00000   0.00000  -0.00000  -0.00000   2.88234
   R13        2.06643   0.00000   0.00000   0.00000   0.00000   2.06643
   R14        2.06643   0.00000   0.00000   0.00000   0.00000   2.06643
   R15        2.06550   0.00000   0.00000   0.00000   0.00000   2.06550
   R16        2.06199   0.00000   0.00000   0.00000   0.00000   2.06199
   R17        2.06550   0.00000   0.00000   0.00000   0.00000   2.06550
   R18        2.61047   0.00000   0.00000   0.00000   0.00000   2.61047
   R19        2.04878  -0.00000   0.00000  -0.00000  -0.00000   2.04877
   R20        2.63856  -0.00000   0.00000  -0.00000  -0.00000   2.63855
   R21        3.28954   0.00000   0.00000   0.00000   0.00000   3.28954
   R22        2.62753  -0.00000   0.00000  -0.00000  -0.00000   2.62753
   R23        2.83710  -0.00000   0.00000  -0.00000  -0.00000   2.83710
   R24        2.62134   0.00000   0.00000   0.00000   0.00000   2.62134
   R25        2.04606  -0.00000   0.00000  -0.00000  -0.00000   2.04606
   R26        2.03824  -0.00000   0.00000  -0.00001  -0.00001   2.03823
   R27        2.53366  -0.00001   0.00000  -0.00001  -0.00001   2.53365
   R28        2.53686  -0.00001   0.00000  -0.00001  -0.00001   2.53685
   R29        2.53686  -0.00001   0.00000  -0.00001  -0.00001   2.53685
    A1        2.03753  -0.00000   0.00000  -0.00001  -0.00001   2.03751
    A2        2.16162   0.00001   0.00000   0.00003   0.00003   2.16165
    A3        2.08404  -0.00000   0.00000  -0.00002  -0.00002   2.08402
    A4        2.22649   0.00002   0.00000   0.00007   0.00007   2.22657
    A5        2.04594  -0.00001   0.00000  -0.00004  -0.00004   2.04590
    A6        2.01075  -0.00001   0.00000  -0.00003  -0.00003   2.01072
    A7        2.20516   0.00000   0.00000   0.00001   0.00001   2.20516
    A8        1.89992   0.00001   0.00000   0.00005   0.00005   1.89997
    A9        2.17811  -0.00001   0.00000  -0.00006  -0.00006   2.17805
   A10        2.02102  -0.00000   0.00000  -0.00002  -0.00002   2.02100
   A11        1.87929  -0.00000   0.00000  -0.00000  -0.00000   1.87928
   A12        1.89823   0.00000   0.00000   0.00002   0.00002   1.89825
   A13        1.89825   0.00000   0.00000   0.00001   0.00001   1.89826
   A14        1.94966  -0.00000   0.00000  -0.00001  -0.00001   1.94965
   A15        1.94967  -0.00000   0.00000  -0.00001  -0.00001   1.94966
   A16        1.88764   0.00000   0.00000   0.00000   0.00000   1.88764
   A17        1.93381   0.00000   0.00000   0.00000   0.00000   1.93381
   A18        1.90359  -0.00000   0.00000  -0.00000  -0.00000   1.90359
   A19        1.90359   0.00000   0.00000   0.00000   0.00000   1.90359
   A20        1.92567  -0.00000   0.00000  -0.00001  -0.00001   1.92566
   A21        1.92567  -0.00000   0.00000  -0.00001  -0.00001   1.92566
   A22        1.87020   0.00000   0.00000   0.00001   0.00001   1.87021
   A23        1.94324  -0.00000   0.00000  -0.00000  -0.00000   1.94323
   A24        1.93666  -0.00000   0.00000  -0.00001  -0.00001   1.93665
   A25        1.94324  -0.00000   0.00000  -0.00001  -0.00001   1.94324
   A26        1.87863   0.00000   0.00000   0.00001   0.00001   1.87864
   A27        1.88051   0.00000   0.00000   0.00001   0.00001   1.88052
   A28        1.87864   0.00000   0.00000   0.00000   0.00000   1.87864
   A29        2.09960   0.00000   0.00000   0.00001   0.00001   2.09961
   A30        2.10164   0.00000   0.00000   0.00001   0.00001   2.10165
   A31        2.08195  -0.00000   0.00000  -0.00002  -0.00002   2.08193
   A32        2.11071   0.00000   0.00000   0.00000   0.00000   2.11071
   A33        2.05725   0.00000   0.00000   0.00000   0.00000   2.05726
   A34        2.11522  -0.00000   0.00000  -0.00000  -0.00000   2.11522
   A35        2.06247  -0.00000   0.00000  -0.00000  -0.00000   2.06247
   A36        2.12316  -0.00000   0.00000  -0.00000  -0.00000   2.12316
   A37        2.09755   0.00000   0.00000   0.00000   0.00000   2.09756
   A38        2.12801   0.00000   0.00000   0.00000   0.00000   2.12801
   A39        2.08028   0.00000   0.00000   0.00000   0.00000   2.08028
   A40        2.07490  -0.00000   0.00000  -0.00001  -0.00001   2.07489
   A41        2.08154   0.00000   0.00000   0.00001   0.00001   2.08155
   A42        2.10369   0.00000   0.00000   0.00001   0.00001   2.10370
   A43        2.09795  -0.00000   0.00000  -0.00002  -0.00002   2.09794
   A44        1.94738   0.00000   0.00000   0.00001   0.00001   1.94739
   A45        1.96174  -0.00000   0.00000  -0.00000  -0.00000   1.96174
   A46        1.96173   0.00000   0.00000   0.00000   0.00000   1.96174
   A47        1.86164  -0.00000   0.00000  -0.00000  -0.00000   1.86164
   A48        1.86164  -0.00000   0.00000  -0.00000  -0.00000   1.86164
   A49        1.86306  -0.00000   0.00000  -0.00001  -0.00001   1.86305
    D1        3.14125   0.00000   0.00000   0.00004   0.00004   3.14129
    D2        0.00011  -0.00000   0.00000  -0.00008  -0.00008   0.00003
    D3       -0.00041   0.00000   0.00000   0.00008   0.00008  -0.00033
    D4       -3.14155  -0.00000   0.00000  -0.00004  -0.00004   3.14159
    D5        3.14154   0.00000   0.00000   0.00003   0.00003   3.14157
    D6       -0.00003  -0.00000   0.00000   0.00000   0.00000  -0.00003
    D7        0.00001  -0.00000   0.00000  -0.00001  -0.00001   0.00001
    D8       -3.14156  -0.00000   0.00000  -0.00003  -0.00003  -3.14159
    D9       -3.14154  -0.00000   0.00000  -0.00003  -0.00003  -3.14157
   D10        0.00008  -0.00000   0.00000  -0.00005  -0.00005   0.00004
   D11       -0.00002   0.00000   0.00000   0.00001   0.00001  -0.00001
   D12       -3.14158  -0.00000   0.00000  -0.00001  -0.00001  -3.14159
   D13        0.00014   0.00000   0.00000   0.00003   0.00003   0.00017
   D14       -3.14145  -0.00000   0.00000  -0.00004  -0.00004  -3.14149
   D15        3.14129   0.00000   0.00000   0.00015   0.00015   3.14144
   D16       -0.00030   0.00000   0.00000   0.00008   0.00008  -0.00022
   D17        3.14156   0.00000   0.00000   0.00004   0.00004  -3.14159
   D18       -0.00004  -0.00000   0.00000  -0.00002  -0.00002  -0.00006
   D19       -3.14142  -0.00000   0.00000  -0.00006  -0.00006  -3.14149
   D20        1.02620   0.00000   0.00000  -0.00005  -0.00005   1.02615
   D21       -1.02585  -0.00000   0.00000  -0.00007  -0.00007  -1.02592
   D22        3.14159  -0.00000   0.00000   0.00000   0.00000   3.14159
   D23        1.01858   0.00000   0.00000   0.00001   0.00001   1.01860
   D24       -1.01860  -0.00000   0.00000  -0.00000  -0.00000  -1.01860
   D25       -1.05851   0.00000   0.00000   0.00001   0.00001  -1.05850
   D26        3.10167   0.00000   0.00000   0.00003   0.00003   3.10170
   D27        1.06449   0.00000   0.00000   0.00001   0.00001   1.06450
   D28        1.05847  -0.00000   0.00000   0.00000   0.00000   1.05847
   D29       -1.06453   0.00000   0.00000   0.00001   0.00001  -1.06452
   D30       -3.10171  -0.00000   0.00000  -0.00000  -0.00000  -3.10172
   D31       -1.04949   0.00000   0.00000   0.00001   0.00001  -1.04949
   D32        3.14158  -0.00000   0.00000   0.00000   0.00000   3.14158
   D33        1.04945   0.00000   0.00000   0.00001   0.00001   1.04946
   D34        1.06049  -0.00000   0.00000  -0.00000  -0.00000   1.06049
   D35       -1.03163  -0.00000   0.00000  -0.00000  -0.00000  -1.03163
   D36       -3.12375   0.00000   0.00000   0.00000   0.00000  -3.12375
   D37        3.12372  -0.00000   0.00000   0.00001   0.00001   3.12372
   D38        1.03160  -0.00000   0.00000   0.00000   0.00000   1.03160
   D39       -1.06052   0.00000   0.00000   0.00001   0.00001  -1.06051
   D40        0.00001   0.00000   0.00000   0.00000   0.00000   0.00001
   D41       -3.14157  -0.00000   0.00000  -0.00002  -0.00002   3.14159
   D42        3.14158   0.00000   0.00000   0.00003   0.00003  -3.14158
   D43       -0.00000   0.00000   0.00000   0.00000   0.00000   0.00000
   D44       -0.00001  -0.00000   0.00000   0.00000   0.00000  -0.00001
   D45       -3.14159  -0.00000   0.00000  -0.00001  -0.00001   3.14159
   D46        3.14156   0.00000   0.00000   0.00003   0.00003   3.14159
   D47       -0.00001   0.00000   0.00000   0.00001   0.00001   0.00000
   D48        0.00000   0.00000   0.00000   0.00000   0.00000   0.00000
   D49       -3.14158  -0.00000   0.00000  -0.00000  -0.00000  -3.14159
   D50        3.14158   0.00000   0.00000   0.00002   0.00002  -3.14159
   D51       -0.00001   0.00000   0.00000   0.00001   0.00001   0.00000
   D52       -3.14157   0.00000   0.00000   0.00001   0.00001  -3.14156
   D53       -1.05118   0.00000   0.00000   0.00001   0.00001  -1.05117
   D54        1.05124  -0.00000   0.00000   0.00000   0.00000   1.05124
   D55        0.00004   0.00000   0.00000  -0.00000  -0.00000   0.00004
   D56        2.09043   0.00000   0.00000  -0.00000  -0.00000   2.09042
   D57       -2.09034  -0.00000   0.00000  -0.00001  -0.00001  -2.09035
   D58        0.00001  -0.00000   0.00000  -0.00001  -0.00001   0.00001
   D59        3.14157   0.00000   0.00000   0.00001   0.00001   3.14158
   D60       -3.14159  -0.00000   0.00000  -0.00000  -0.00000  -3.14159
   D61       -0.00003   0.00000   0.00000   0.00002   0.00002  -0.00001
         Item               Value     Threshold  Converged?
 Maximum Force            0.000016     0.000450     YES
 RMS     Force            0.000003     0.000300     YES
 Maximum Displacement     0.000270     0.001800     YES
 RMS     Displacement     0.000077     0.001200     YES
 Predicted change in Energy=-3.182962D-09
 Optimization completed.
    -- Stationary point found.
                           ----------------------------
                           !   Optimized Parameters   !
                           ! (Angstroms and Degrees)  !
 --------------------------                            --------------------------
 ! Name  Definition              Value          Derivative Info.                !
 --------------------------------------------------------------------------------
 ! R1    R(1,2)                  1.3952         -DE/DX =    0.0                 !
 ! R2    R(1,9)                  1.4006         -DE/DX =    0.0                 !
 ! R3    R(1,13)                 1.3973         -DE/DX =    0.0                 !
 ! R4    R(2,3)                  1.3734         -DE/DX =    0.0                 !
 ! R5    R(2,14)                 1.0106         -DE/DX =    0.0                 !
 ! R6    R(3,4)                  1.2047         -DE/DX =    0.0                 !
 ! R7    R(3,5)                  1.3393         -DE/DX =    0.0                 !
 ! R8    R(5,6)                  1.4387         -DE/DX =    0.0                 !
 ! R9    R(6,7)                  1.5128         -DE/DX =    0.0                 !
 ! R10   R(6,15)                 1.0927         -DE/DX =    0.0                 !
 ! R11   R(6,16)                 1.0927         -DE/DX =    0.0                 !
 ! R12   R(7,8)                  1.5253         -DE/DX =    0.0                 !
 ! R13   R(7,17)                 1.0935         -DE/DX =    0.0                 !
 ! R14   R(7,18)                 1.0935         -DE/DX =    0.0                 !
 ! R15   R(8,19)                 1.093          -DE/DX =    0.0                 !
 ! R16   R(8,20)                 1.0912         -DE/DX =    0.0                 !
 ! R17   R(8,21)                 1.093          -DE/DX =    0.0                 !
 ! R18   R(9,10)                 1.3814         -DE/DX =    0.0                 !
 ! R19   R(9,22)                 1.0842         -DE/DX =    0.0                 !
 ! R20   R(10,11)                1.3963         -DE/DX =    0.0                 !
 ! R21   R(10,23)                1.7407         -DE/DX =    0.0                 !
 ! R22   R(11,12)                1.3904         -DE/DX =    0.0                 !
 ! R23   R(11,24)                1.5013         -DE/DX =    0.0                 !
 ! R24   R(12,13)                1.3872         -DE/DX =    0.0                 !
 ! R25   R(12,25)                1.0827         -DE/DX =    0.0                 !
 ! R26   R(13,26)                1.0786         -DE/DX =    0.0                 !
 ! R27   R(24,27)                1.3408         -DE/DX =    0.0                 !
 ! R28   R(24,28)                1.3425         -DE/DX =    0.0                 !
 ! R29   R(24,29)                1.3425         -DE/DX =    0.0                 !
 ! A1    A(2,1,9)              116.7417         -DE/DX =    0.0                 !
 ! A2    A(2,1,13)             123.8518         -DE/DX =    0.0                 !
 ! A3    A(9,1,13)             119.4066         -DE/DX =    0.0                 !
 ! A4    A(1,2,3)              127.5686         -DE/DX =    0.0                 !
 ! A5    A(1,2,14)             117.2237         -DE/DX =    0.0                 !
 ! A6    A(3,2,14)             115.2077         -DE/DX =    0.0                 !
 ! A7    A(2,3,4)              126.3462         -DE/DX =    0.0                 !
 ! A8    A(2,3,5)              108.8574         -DE/DX =    0.0                 !
 ! A9    A(4,3,5)              124.7964         -DE/DX =    0.0                 !
 ! A10   A(3,5,6)              115.7959         -DE/DX =    0.0                 !
 ! A11   A(5,6,7)              107.6752         -DE/DX =    0.0                 !
 ! A12   A(5,6,15)             108.7607         -DE/DX =    0.0                 !
 ! A13   A(5,6,16)             108.7617         -DE/DX =    0.0                 !
 ! A14   A(7,6,15)             111.7075         -DE/DX =    0.0                 !
 ! A15   A(7,6,16)             111.708          -DE/DX =    0.0                 !
 ! A16   A(15,6,16)            108.1537         -DE/DX =    0.0                 !
 ! A17   A(6,7,8)              110.7989         -DE/DX =    0.0                 !
 ! A18   A(6,7,17)             109.0677         -DE/DX =    0.0                 !
 ! A19   A(6,7,18)             109.0676         -DE/DX =    0.0                 !
 ! A20   A(8,7,17)             110.3329         -DE/DX =    0.0                 !
 ! A21   A(8,7,18)             110.3328         -DE/DX =    0.0                 !
 ! A22   A(17,7,18)            107.1546         -DE/DX =    0.0                 !
 ! A23   A(7,8,19)             111.3393         -DE/DX =    0.0                 !
 ! A24   A(7,8,20)             110.9623         -DE/DX =    0.0                 !
 ! A25   A(7,8,21)             111.3396         -DE/DX =    0.0                 !
 ! A26   A(19,8,20)            107.6377         -DE/DX =    0.0                 !
 ! A27   A(19,8,21)            107.7454         -DE/DX =    0.0                 !
 ! A28   A(20,8,21)            107.6379         -DE/DX =    0.0                 !
 ! A29   A(1,9,10)             120.298          -DE/DX =    0.0                 !
 ! A30   A(1,9,22)             120.4149         -DE/DX =    0.0                 !
 ! A31   A(10,9,22)            119.2871         -DE/DX =    0.0                 !
 ! A32   A(9,10,11)            120.9349         -DE/DX =    0.0                 !
 ! A33   A(9,10,23)            117.872          -DE/DX =    0.0                 !
 ! A34   A(11,10,23)           121.1931         -DE/DX =    0.0                 !
 ! A35   A(10,11,12)           118.1711         -DE/DX =    0.0                 !
 ! A36   A(10,11,24)           121.6481         -DE/DX =    0.0                 !
 ! A37   A(12,11,24)           120.1808         -DE/DX =    0.0                 !
 ! A38   A(11,12,13)           121.926          -DE/DX =    0.0                 !
 ! A39   A(11,12,25)           119.1912         -DE/DX =    0.0                 !
 ! A40   A(13,12,25)           118.8828         -DE/DX =    0.0                 !
 ! A41   A(1,13,12)            119.2635         -DE/DX =    0.0                 !
 ! A42   A(1,13,26)            120.5327         -DE/DX =    0.0                 !
 ! A43   A(12,13,26)           120.2038         -DE/DX =    0.0                 !
 ! A44   A(11,24,27)           111.5766         -DE/DX =    0.0                 !
 ! A45   A(11,24,28)           112.3993         -DE/DX =    0.0                 !
 ! A46   A(11,24,29)           112.3989         -DE/DX =    0.0                 !
 ! A47   A(27,24,28)           106.6641         -DE/DX =    0.0                 !
 ! A48   A(27,24,29)           106.6641         -DE/DX =    0.0                 !
 ! A49   A(28,24,29)           106.7456         -DE/DX =    0.0                 !
 ! D1    D(9,1,2,3)            179.9803         -DE/DX =    0.0                 !
 ! D2    D(9,1,2,14)             0.0061         -DE/DX =    0.0                 !
 ! D3    D(13,1,2,3)            -0.0236         -DE/DX =    0.0                 !
 ! D4    D(13,1,2,14)          180.0022         -DE/DX =    0.0                 !
 ! D5    D(2,1,9,10)           179.9969         -DE/DX =    0.0                 !
 ! D6    D(2,1,9,22)            -0.0018         -DE/DX =    0.0                 !
[...]
 00522,0.00000874,0.00000498,0.00000495,0.00000687,-0.00000747,0.000004
 30,-0.00001002,0.00000232,-0.00004016,0.00000615,-0.00000003,0.0000042
 7,-0.00001028,0.00000048,-0.00013287,-0.00132053,0.00013318,0.16404354
 ,0.00282813,0.00145253,0.00059124,-0.00143386,-0.00018020,0.00005689,0
 .00162690,-0.00003730,-0.00006353,-0.00060808,-0.00000696,0.00002246,-
 0.00103054,0.00041296,-0.00003956,0.00038179,0.00010880,-0.00002238,-0
 .00002809,-0.00006059,0.00000993,-0.00000747,0.00004683,-0.00000681,-0
 .00714049,-0.00039562,0.00085428,-0.06630778,-0.09755182,0.01240349,-0
 .03182108,-0.02192534,0.00441302,0.00556316,-0.00434037,0.00112505,-0.
 00154152,-0.00059641,-0.00002944,0.00000873,-0.00016545,0.00002927,-0.
 00003576,-0.00001973,0.00000945,-0.00003699,-0.00002118,-0.00000181,0.
 00000221,0.00000801,0.00000606,0.00000196,0.00000571,-0.00000799,0.000
 00411,-0.00000756,0.00000008,-0.00002946,0.00000566,-0.00000025,0.0000
 0426,-0.00000719,0.00000197,0.00068845,0.00091397,-0.00057914,0.100336
 53,0.12897946,-0.00030208,0.00049406,0.00582778,0.00027098,0.00006705,
 -0.00002147,-0.00029082,-0.00004312,-0.00021441,0.00010734,0.00001603,
 0.00004985,0.00018417,-0.00007027,-0.00000302,-0.00006714,-0.00001810,
 0.00001781,0.00000528,0.00001127,0.00000097,0.00000129,-0.00000844,0.0
 0000057,0.00197195,0.00138298,0.00411009,0.01182454,0.01240869,-0.0250
 6196,0.00482118,0.00390440,0.00270737,-0.00072565,0.00125725,0.0039672
 9,0.00020340,0.00000495,-0.00102976,-0.00000336,0.00003420,0.00002973,
 0.00000993,0.00000284,-0.00000143,0.00000313,0.00000446,0.00000035,-0.
 00000064,-0.00000049,-0.00000050,-0.00000017,-0.00000168,0.00000206,-0
 .00000105,0.00000104,0.00000021,0.00000520,-0.00000103,-0.00000042,-0.
 00000035,0.00000163,-0.00000014,-0.00016228,-0.00053540,-0.00283795,-0
 .01803978,-0.01926866,0.01596670,-0.01054368,0.00240360,-0.00013957,0.
 01439106,-0.00153305,-0.00010944,-0.01065780,-0.00439057,0.00088112,0.
 00229963,0.00298632,-0.00049509,0.00518337,-0.00165662,0.00013097,-0.0
 0196456,-0.00051462,0.00012156,0.00013455,0.00027178,-0.00004266,0.000
 01660,-0.00021224,0.00003090,0.00889830,-0.00219923,0.00024219,0.00551
 342,0.02357950,-0.00364160,-0.19656185,0.03780200,-0.00268642,-0.02965
 071,0.00142901,0.00045303,0.00349643,-0.00685146,0.00107253,0.00006936
 ,0.00079656,-0.00011465,0.00022770,0.00009083,-0.00001638,0.00022757,0
 .00009070,-0.00002100,-0.00002621,-0.00002249,0.00000129,-0.00002616,-
 0.00002110,0.00000580,-0.00000904,0.00003635,-0.00002022,0.00013213,-0
 .00002436,0.00000080,-0.00000872,0.00004021,0.00000902,0.00130999,-0.0
 0077900,0.00010953,-0.00699385,-0.00486726,0.00080401,0.59394337,0.002
 75099,-0.00439295,0.00048696,-0.00531844,0.00032369,-0.00008201,0.0040
 4856,0.00207241,-0.00037605,-0.00098808,-0.00136547,0.00018845,-0.0019
 3737,0.00049428,-0.00002610,0.00075602,0.00024120,-0.00003432,-0.00005
 657,-0.00008878,0.00001609,0.00000068,0.00007482,-0.00001054,-0.000917
 76,-0.00586879,0.00164531,0.03199343,-0.00917564,0.00027794,0.04611032
 ,-0.11145864,0.00588325,-0.00855675,0.01969111,-0.00258289,-0.00746839
 ,-0.00225368,0.00144700,-0.00001692,-0.00022996,0.00006150,-0.00008787
 ,-0.00003695,-0.00001140,-0.00008624,-0.00002832,0.00001957,0.00001346
 ,-0.00000084,-0.00001524,0.00001365,0.00000796,0.00001054,-0.00000141,
 -0.00000951,0.00001655,-0.00004256,0.00000369,0.00000123,-0.00000432,-
 0.00001717,-0.00001480,0.00108135,-0.00004464,0.00014100,-0.00007621,-
 0.00174711,-0.00017177,-0.03181298,0.55067759,-0.00018962,0.00049432,-
 0.00074346,0.00044671,-0.00016442,-0.00100695,-0.00036089,-0.00019207,
 0.00015407,0.00009007,0.00010175,-0.00024953,0.00017277,-0.00003234,0.
 00002979,-0.00006580,-0.00000650,0.00012333,0.00000566,0.00000893,0.00
 001073,-0.00000039,-0.00000592,0.00000407,0.00005397,0.00167299,0.0049
 4031,-0.00487785,0.00046097,-0.00251101,-0.00390798,0.00606413,-0.0654
 1205,0.00192081,-0.00279993,0.00122212,0.00116250,0.00143379,0.0062509
 0,0.00000500,0.00004375,0.00017925,0.00000451,-0.00001291,-0.00001364,
 0.00001042,0.00001334,-0.00002228,-0.00000031,-0.00001796,-0.00000571,
 -0.00000300,0.00001479,-0.00001457,0.00000790,0.00000979,-0.00001150,0
 .00000351,0.00000082,0.00000545,-0.00000702,-0.00000983,-0.00000415,-0
 .00016407,0.00018149,0.00105162,0.00009965,-0.00006765,-0.00291917,0.0
 0259083,-0.00705779,0.49894205,-0.00505096,0.00186307,-0.00000445,0.00
 008703,0.00145572,-0.00021774,0.00053395,0.00046006,-0.00007721,-0.000
 07012,-0.00033377,0.00005073,-0.00021558,-0.00005747,0.00001224,0.0000
 6710,0.00003311,-0.00000578,-0.00001156,-0.00001110,0.00000193,0.00000
 021,0.00000754,-0.00000109,-0.00120403,-0.00024851,0.00004006,-0.00304
 364,-0.00198253,0.00048601,0.00825120,-0.02327205,0.00334082,-0.065588
 15,0.04488419,-0.00603055,-0.00046290,0.02870622,-0.00410584,-0.000376
 93,0.00008034,-0.00000849,-0.00001201,-0.00000373,-0.00000307,-0.00001
 177,-0.00000261,0.00000441,0.00000171,-0.00000085,-0.00000153,0.000001
 77,-0.00000029,0.00000156,-0.00000102,0.00000001,0.00000187,-0.0000032
 6,-0.00000162,0.00000031,-0.00000115,-0.00000058,-0.00000179,0.0000730
 0,0.00003670,-0.00001441,-0.00052926,-0.00169795,0.00026700,-0.0001406
 8,-0.00292954,0.00036734,0.06912217,0.00096955,0.00136104,0.00085986,0
 .00015117,-0.00029900,0.00002659,-0.00028303,-0.00017173,0.00004671,0.
 00004626,0.00011104,-0.00001659,0.00013378,-0.00002093,-0.00000627,-0.
 00004420,-0.00001512,0.00000697,0.00000449,0.00000709,-0.00000086,0.00
 000024,-0.00000512,0.00000092,-0.00003030,0.00055826,-0.00023471,-0.00
 265814,0.00011343,0.00090963,0.00326421,-0.01387939,0.00264235,0.04363
 759,-0.33910753,0.04308498,-0.00003680,-0.00440061,0.00134449,0.000069
 61,0.00003422,-0.00003924,0.00000624,0.00000281,-0.00000092,0.00000678
 ,0.00000289,-0.00000096,-0.00000072,-0.00000106,0.00000023,-0.00000081
 ,-0.00000042,-0.00000039,0.00000021,0.00000100,-0.00000066,0.00000281,
 -0.00000031,0.,-0.00000013,0.00000075,0.00000003,0.00003051,-0.0000636
 1,-0.00004142,-0.00009803,-0.00068632,0.00014275,0.00078123,-0.0028131
 9,-0.00005189,-0.04879203,0.35638678,0.00012717,0.00084062,0.00722802,
 -0.00002618,-0.00000187,-0.00009457,0.00003230,0.00003046,0.00009846,-
 0.00000508,-0.00000831,0.00000657,-0.00001595,-0.00000210,-0.00004302,
 0.00000562,0.00000528,0.00002481,-0.00000037,-0.00000052,0.00000198,-0
 .00000001,0.00000076,0.00000107,0.00000796,-0.00022990,-0.00100959,0.0
 0058520,0.00089497,0.00576490,-0.00055943,0.00321914,0.00411953,-0.005
 84745,0.04305784,-0.04572147,0.00011871,0.00071986,0.00463327,-0.00000
 685,-0.00003949,-0.00021653,-0.00000263,-0.00000099,-0.00000227,0.0000
 0112,-0.00000046,-0.00000260,0.00000033,-0.00000254,-0.00000105,-0.000
 00025,0.00000236,-0.00000176,0.00000119,0.00000086,-0.00000141,-0.0000
 0034,0.00000011,0.00000016,-0.00000121,-0.00000148,-0.00000103,-0.0000
 1348,-0.00004157,-0.00033453,0.00003180,0.00017748,0.00024355,-0.00017
 823,0.00002869,-0.00305091,0.00625078,-0.04738420,0.03361797,0.0118924
 0,0.00474768,-0.00085871,-0.00264837,-0.00200522,0.00027632,0.00144071
 ,0.00706530,-0.00107674,-0.00792959,-0.00225408,0.00049097,0.00063489,
 -0.00134654,0.00019640,-0.00049089,-0.00012381,0.00003276,0.00001245,0
 .00004588,-0.00000709,0.00000632,-0.00004204,0.00000618,0.00004296,0.0
 0216041,-0.00018716,-0.00014027,0.00067573,-0.00011230,-0.00316608,0.0
 0275993,-0.00018697,-0.01621904,-0.01721430,0.00294493,-0.23133912,-0.
 15050647,0.02634579,-0.00010853,-0.00009468,0.00000923,0.00000007,0.00
 003421,-0.00000840,-0.00000081,0.00003584,-0.00000325,0.00000079,-0.00
 001016,-0.00000152,0.00000075,-0.00000875,0.00000404,-0.00000189,0.000
 00777,-0.00000141,0.00002399,-0.00000394,0.00000003,-0.00000213,0.0000
 0767,-0.00000094,0.00044806,0.00050215,-0.00008547,0.00024493,0.000092
 18,-0.00003269,0.00013711,-0.00114805,0.00017767,0.00102066,0.00002995
 ,-0.00012595,0.24678137,-0.02465159,-0.01370526,0.00320829,0.00065227,
 0.00207932,-0.00083665,0.00059090,-0.00543715,0.00075146,-0.00195696,0
 .00276190,-0.00046129,-0.00069146,0.00116594,-0.00007604,0.00041372,0.
 00013392,-0.00000363,-0.00001047,-0.00003513,0.00000489,0.00000090,0.0
 0003797,-0.00000463,0.00208072,-0.00450718,0.00150233,0.00118074,-0.00
 099842,0.00001282,0.00342612,0.00037589,0.00088151,0.01102432,0.012198
 70,-0.00161409,-0.14717292,-0.18461612,0.02488270,-0.00003780,-0.00007
 592,-0.00003490,-0.00000669,-0.00002335,0.00001084,-0.00001363,-0.0000
 2099,-0.00001307,-0.00000381,0.00000816,-0.00000117,-0.00000495,0.0000
 1182,-0.00000306,0.00000181,-0.00000513,0.00000464,-0.00002385,0.00000
 133,0.00000022,-0.00000010,-0.00000749,-0.00000399,-0.00111060,-0.0006
 3546,0.00010495,-0.00008438,0.00015074,-0.00011346,-0.00000343,0.00087
 903,-0.00004871,-0.00034861,0.00061714,-0.00075338,0.15624487,0.189951
 59,0.00346168,0.00256876,0.00402247,-0.00011381,-0.00077866,-0.0033966
 2,-0.00012420,0.00060725,-0.00033007,0.00044645,-0.00045410,-0.0006110
 3,0.00009988,-0.00006091,0.00055471,-0.00004631,0.00000821,0.00017097,
 0.00000120,0.00000368,-0.00000384,-0.00000013,-0.00000368,0.00000716,-
 0.00017549,0.00150031,0.00580415,-0.00018642,0.00002394,-0.00073570,-0
 .00028560,0.00089615,0.00675346,-0.00120657,-0.00100100,0.00302162,0.0
 2585748,0.02495804,-0.04134001,0.00000103,-0.00003376,-0.00031465,0.00
 002282,-0.00002196,-0.00003018,-0.00002118,0.00001775,-0.00003169,0.00
 000425,-0.00001511,-0.00000297,-0.00000322,0.00001110,-0.00000658,0.00
 000565,0.00000370,-0.00000530,0.00000296,-0.00000022,-0.00000080,-0.00
 000599,-0.00000335,-0.00000268,0.00015157,0.00006983,-0.00009921,-0.00
 000671,-0.00011731,-0.00061625,0.00000959,-0.00002398,0.00055041,-0.00
 006999,-0.00076150,-0.00444599,-0.02776173,-0.02745270,0.03094562,0.00
 121021,-0.00010041,-0.00001082,-0.00187832,0.00023127,0.00000745,0.001
 67376,0.00049254,-0.00010813,-0.00046139,-0.00037145,0.00006548,-0.000
 89330,0.00029000,-0.00002282,0.00034974,0.00009780,-0.00002266,-0.0000
 2303,-0.00004541,0.00000705,-0.00000232,0.00003688,-0.00000536,-0.0005
 6161,0.00212405,-0.00030865,-0.00692499,-0.00260528,0.00057395,0.00048
 415,0.03767670,-0.00536602,-0.00381797,0.00045344,0.00002630,0.0004868
 3,0.00153787,-0.00023666,0.00000165,-0.00010831,0.00001466,-0.00003690
 ,-0.00001742,0.00000266,-0.00003692,-0.00001729,0.00000417,0.00000497,
 0.00000378,-0.00000126,0.00000502,0.00000384,0.,0.00000152,-0.00000682
 ,0.00000420,-0.00002365,0.00000493,-0.00000022,0.00000144,-0.00000767,
 -0.00000208,-0.00054870,0.00018498,-0.00002165,0.00100868,0.00036603,-
 0.00007023,-0.08347447,0.02089842,-0.00280675,-0.00317549,0.00305808,-
 0.00038144,0.00003604,-0.00000855,0.00000054,0.08809991,-0.00243233,0.
 00065796,-0.00004009,0.00312914,0.00012746,-0.00008241,-0.00236550,-0.
 00135362,0.00025685,0.00052329,0.00092356,-0.00014324,0.00111391,-0.00
 023033,0.00001151,-0.00043423,-0.00014286,0.00002665,0.00003542,0.0000
 5077,-0.00000916,-0.00000083,-0.00004313,0.00000645,0.00068585,-0.0017
 1360,0.00017783,0.00642170,0.00303078,-0.00031100,0.00508742,-0.039277
 61,0.00690186,-0.00526171,-0.00343897,0.00068332,0.00127075,0.00039930
 ,-0.00008479,-0.00011401,0.00012431,-0.00002424,0.00005220,0.00002015,
 0.00000638,0.00005119,0.00001660,-0.00001322,-0.00000834,0.00000009,0.
 00000879,-0.00000852,-0.00000313,-0.00000740,0.00000134,0.00000594,-0.
 00001035,0.00002479,-0.00000196,-0.00000037,0.00000215,0.00000918,0.00
 000844,0.00068935,-0.00019985,-0.00002872,0.00017883,0.00033847,-0.000
 01623,0.03161153,-0.26597346,0.02793723,0.00129357,0.00182284,-0.00030
 656,0.00017712,-0.00013236,0.00001642,0.00617847,0.40188369,0.00033164
 ,-0.00009052,0.00003333,-0.00041828,-0.00001944,0.00004157,0.00031204,
 0.00019427,0.00000544,-0.00006621,-0.00012352,0.00004801,-0.00014389,0
 .00002950,0.00001243,0.00005559,0.00001495,-0.00003009,-0.00000484,-0.
 00000738,-0.00000496,0.00000019,0.00000562,-0.00000022,-0.00009721,0.0
 0014663,-0.00042125,-0.00075286,-0.00011456,0.00189789,-0.00057514,0.0
 0619231,0.00752357,0.00086633,0.00055939,0.00033666,-0.00019723,-0.000
 09094,0.00002661,0.00001547,-0.00002435,-0.00005417,-0.00000488,0.0000
 0004,0.00000141,-0.00000858,-0.00000387,0.00000500,0.00000054,0.000003
 05,0.00000028,0.00000180,-0.00000220,0.00000345,-0.00000156,-0.0000021
 4,0.00000303,-0.00000314,0.00000007,-0.00000069,0.00000104,0.00000062,
 -0.00000013,-0.00009578,-0.00001776,-0.00028856,-0.00004276,-0.0000204
 3,0.00025799,-0.00438124,0.02817058,-0.07530899,-0.00012233,-0.0003450
 3,-0.00002109,-0.00002671,0.00002043,0.00000290,-0.00106828,-0.0473405
 0,0.08776654,0.00314875,-0.00199235,-0.00000131,-0.00477476,0.00066432
 ,-0.00014466,0.00357448,0.00131777,-0.00033658,-0.00083205,-0.00090183
 ,0.00015639,-0.00177020,0.00061084,-0.00000203,0.00067147,0.00017108,-
 0.00004105,-0.00004449,-0.00009320,0.00001288,-0.00000651,0.00007211,-
 0.00001288,-0.00173066,0.00011857,0.00118181,-0.00192030,-0.00639595,0
 .00105743,-0.03110647,-0.01520823,-0.03512509,0.00041837,0.00507017,-0
 .00281182,-0.00237723,0.00167563,0.00189119,-0.00006235,-0.00027477,-0
 .00000233,-0.00007315,-0.00003118,0.00000750,-0.00008047,-0.00003138,0
 .00000658,0.00000818,0.00001088,0.00000153,0.00000937,0.00000525,-0.00
 000096,0.00000250,-0.00001394,0.00000765,-0.00004552,0.00000858,-0.000
 00124,0.00000444,-0.00001216,-0.00000157,-0.00022220,0.00019395,0.0000
 3744,0.00197020,0.00227959,-0.00110882,-0.15188760,-0.03695875,-0.0868
 1865,0.00035582,-0.00027010,-0.00100627,-0.00033799,0.00029518,0.00020
 538,0.00368623,-0.02657418,-0.00891474,0.16357350,0.00025905,0.0004165
 9,-0.00002738,-0.00010370,0.00013265,-0.00000507,-0.00000603,-0.000099
 32,-0.00002414,0.00001543,0.00006750,0.00001848,0.00000800,0.00003661,
 -0.00000176,-0.00001349,-0.00001607,-0.00000856,0.00000195,-0.00000288
 ,-0.00000242,-0.00000187,0.00000043,-0.00000008,-0.00049036,0.00078316
 ,0.00017358,-0.00298254,-0.00235569,-0.00028823,0.00129516,0.01106764,
 -0.00017535,0.00024312,-0.00094858,0.00080097,0.00056690,0.00045107,-0
 .00018816,-0.00003071,-0.00002678,-0.00001378,0.00000204,0.00000261,0.
 00000477,0.00000002,-0.00000209,-0.00000183,-0.00000111,0.00000350,0.0
 0000439,-0.00000105,-0.00000113,-0.00000215,0.00000041,-0.00000134,-0.
 00000154,-0.00000093,0.00000061,-0.00000070,0.00000218,0.00000174,0.00
 000315,-0.00017549,0.00006425,0.00001799,0.00269569,-0.00180029,0.0018
 8756,-0.03761012,-0.09412577,-0.04745074,0.00048313,0.00022964,-0.0001
 5733,0.00005175,-0.00007505,-0.00008307,-0.03824903,-0.06131296,-0.042
 47115,0.07289883,0.13669004,0.00131559,-0.00071436,-0.00017304,-0.0018
 1789,0.00029274,0.00006393,0.00141873,0.00041533,-0.00014806,-0.000385
 09,-0.00028429,0.00010833,-0.00073567,0.00027203,0.00001738,0.00027617
 ,0.00006703,-0.00005199,-0.00001915,-0.00003998,-0.00000314,-0.0000032
 9,0.00003087,-0.00000557,-0.00084931,0.00028671,0.00033464,-0.00027456
 ,-0.00280548,0.00107659,-0.01563467,-0.00893484,-0.00592163,-0.0014631
 0,0.00295216,-0.00143480,-0.00111789,-0.00001717,0.00066187,-0.0000223
 7,-0.00010995,-0.00006181,-0.00002707,-0.00000911,0.00000783,-0.000034
 46,-0.00001753,0.00000681,0.00000224,0.00001058,0.00000339,0.00000423,
 -0.00000185,0.00000327,-0.00000100,-0.00000863,0.00000552,-0.00001913,
 0.00000342,-0.00000205,0.00000414,-0.00000176,0.00000158,-0.00010947,0
 .00008313,-0.00008279,0.00031007,0.00220584,-0.00077548,-0.08793044,-0
 .04414307,-0.16752336,0.00027997,0.00001376,-0.00038919,-0.00021921,0.
 00020025,0.00005788,-0.00851259,-0.03042855,0.00250626,0.12637906,0.09
 915373,0.25910726,0.00309736,-0.00190085,0.00042752,-0.00468594,0.0006
 9469,0.00015321,0.00351354,0.00131743,-0.00020846,-0.00081501,-0.00089
 016,0.00014620,-0.00173936,0.00058485,-0.00009527,0.00065917,0.0001680
 3,-0.00003973,-0.00004358,-0.00009100,0.00001572,-0.00000625,0.0000714
 1,-0.00000798,-0.00173859,-0.00022754,-0.00107214,-0.00189058,-0.00627
 079,0.00091142,-0.02881625,-0.00404011,0.03891013,0.00056501,0.0055251
 0,0.00119139,-0.00241837,0.00108043,-0.00216389,-0.00005942,-0.0002579
 8,0.00007987,-0.00007898,-0.00003064,0.00000615,-0.00007193,-0.0000310
 6,0.00000510,0.00000919,0.00000535,-0.00000088,0.00000794,0.00000952,-
 0.00000463,0.00000439,-0.00001112,0.00000487,-0.00004462,0.00000868,0.
 00000059,0.00000231,-0.00001513,-0.00000331,-0.00021898,0.00017141,-0.
 00008454,0.00196910,0.00240231,0.00032567,-0.14403526,-0.00925866,0.09
 208300,0.00038391,0.00002159,0.00100895,-0.00033880,0.00021826,-0.0002
 6315,0.00480892,-0.02132834,0.01534101,0.01984866,0.00114276,-0.010813
 84,0.15213242,-0.00015481,0.00058513,-0.00019358,0.00045392,0.00004056
 ,-0.00000915,-0.00043547,-0.00021691,0.00006223,0.00013029,0.00014900,
 -0.00003561,0.00023077,-0.00004456,0.00001006,-0.00009656,-0.00003564,
 0.00000772,0.00000765,0.00000932,-0.00000159,-0.00000082,-0.00000900,0
 .00000106,-0.00022113,0.00062198,-0.00024262,-0.00272860,-0.00116169,0
 .00108991,0.00576959,0.01216212,-0.00574843,0.00061059,-0.00206227,-0.
 00065872,0.00089223,0.00051279,0.00020592,-0.00002281,0.00000620,-0.00
 000564,0.00001058,0.00000412,0.00000222,0.00001006,0.00000437,-0.00000
 413,-0.00000215,0.00000032,0.00000313,-0.00000190,-0.00000068,-0.00000
 307,0.00000074,0.00000141,-0.00000314,0.00000490,-0.00000044,0.,0.0000
 0079,0.00000213,0.00000257,-0.00013702,0.00002397,-0.00004377,0.002405
 65,-0.00287369,-0.00137250,-0.00942110,-0.07483491,0.01948057,0.000379
 58,0.00021540,-0.00004774,0.00011961,-0.00009844,0.00012620,-0.0321014
 3,-0.03558728,0.05533629,0.00336527,0.01081992,-0.01847100,0.03093157,
 0.09176681,-0.00147739,0.00058042,-0.00029033,0.00197507,-0.00032887,0
 .00006711,-0.00151065,-0.00044425,0.00003085,0.00040212,0.00030935,0.0
 0000961,0.00077874,-0.00028453,0.00006753,-0.00029054,-0.00007765,-0.0
 0001997,0.00001923,0.00004020,-0.00001625,0.00000391,-0.00003306,0.000
 00360,0.00104748,-0.00036883,0.00050358,0.00122074,0.00375840,-0.00014
 718,0.01555197,0.00358369,-0.00930726,0.00127437,-0.00302174,-0.000467
 65,0.00103614,0.00000643,0.00064164,0.00002938,0.00010094,-0.00009773,
 0.00003653,0.00001950,-0.00000094,0.00002871,0.00001135,0.00000490,-0.
 00000405,0.00000253,0.00000200,-0.00000190,-0.00000977,0.00000780,-0.0
 0000468,0.00000234,0.00000196,0.00002041,-0.00000441,-0.00000190,0.000
 00090,0.00001033,0.00000225,0.00016213,-0.00012365,-0.00004571,-0.0011
 5489,-0.00168156,0.00029963,0.09331379,0.01615531,-0.19466679,-0.00044
 076,-0.00019463,-0.00040330,0.00021191,-0.00016456,0.00008222,0.018239
 16,0.04280510,-0.02434222,0.00538515,-0.01116117,-0.08738964,-0.135852
 98,-0.04948719,0.31547219\\0.00000292,0.00000278,-0.00000421,-0.000003
 28,-0.00000811,0.00000839,0.00000289,0.00001239,-0.00000156,-0.0000050
 4,0.00000156,-0.00000235,-0.00000294,-0.00000470,0.00000303,-0.0000011
 1,-0.00000816,-0.00000047,-0.00000033,-0.00000660,0.00000035,-0.000002
 46,-0.00000811,0.00000196,-0.00000169,0.00000363,-0.00000144,-0.000000
 82,0.00000530,-0.00000141,0.00000157,0.00000555,-0.00000080,0.00000405
 ,0.00000327,-0.00000039,0.00000309,0.00000102,0.00000233,-0.00000122,-
 0.00000209,-0.00000371,-0.00000171,-0.00000487,0.00000005,-0.00000134,
 -0.00000380,0.00000230,-0.00000358,-0.00000556,0.00000240,-0.00000349,
 -0.00000555,-0.00000072,0.00000001,-0.00000773,0.00000201,-0.00000222,
 -0.00000709,0.00000087,0.00000011,-0.00000771,0.00000006,0.00000023,0.
 00000283,0.00000041,-0.00000062,0.00000727,-0.00000058,0.00000681,0.00
 000375,-0.00000069,0.00000305,0.00000393,-0.00000056,0.00000569,0.0000
 0094,-0.00000130,0.00000511,0.00001466,-0.00000210,-0.00000239,0.00000
 461,-0.00000761,-0.00000130,0.00000660,0.00000575\\\@


 HAPPINESS IS NOT HAVING WHAT YOU WANT --
 HAPPINESS IS WANTING WHAT YOU HAVE!

              -- FROM MRS. SEVERN'S DESK
 Job cpu time:       0 days  4 hours  2 minutes 44.3 seconds.
 File lengths (MBytes):  RWF=    663 Int=      0 D2E=      0 Chk=     22 Scr=      1
 Normal termination of Gaussian 09 at Thu Nov 14 18:10:43 2019.
pbs_rusage has been removed.
Please contact help@nci.org.au if you require this functionality.
