Process 0 of 1 is on r4229 - thread support 0
initial socket setup ...start
initial socket setup ...done 
now start server 0 ... 
r4229 10.9.72
Q-Chem Developer Version! Running on 10.9.72.*
                  Welcome to Q-Chem
     A Quantum Leap Into The Future Of Chemistry


 Q-Chem 5.0, Q-Chem, Inc., Pleasanton, CA (2017)

 Yihan Shao,  Zhengting Gan,  E. Epifanovsky,  A. T. B. Gilbert,  M. Wormit,  
 J. Kussmann,  A. W. Lange,  A. Behn,  Jia Deng,  Xintian Feng,  D. Ghosh,  
 M. Goldey,  P. R. Horn,  L. D. Jacobson,  I. Kaliman,  T. Kus,  A. Landau,  
 Jie Liu,  E. I. Proynov,  R. M. Richard,  R. P. Steele,  E. J. Sundstrom,  
 H. L. Woodcock III,  P. M. Zimmerman,  D. Zuev,  B. Albrecht,  E. Alguire,  
 S. A. Baeppler,  Z. Benda,  Y. A. Bernard,  E. J. Berquist,  K. B. Bravaya,  
 D. Casanova,  Chun-Min Chang,  Yunqing Chen,  A. Chien,  K. D. Closser,  
 M. P. Coons,  S. Dasgupta,  M. Diedenhofen,  Hainam Do,  R. G. Edgar,  
 Po-Tung Fang,  S. Fatehi,  Qingguo Feng,  Qinghui Ge,  A. Ghysels,  
 J. Gomes,  J. Gonthier,  A. Gunina,  M. W. D. Hanson-Heine,  
 P. H. P. Harbach,  A. W. Hauser,  J. E. Herr,  E. G. Hohenstein,  
 Z. C. Holden,  Kerwin Hui,  T.-C. Jagau,  Hyunjun Ji,  B. Kaduk,  
 K. Khistyaev,  Jaehoon Kim,  P. Klunzinger,  K. Koh,  D. Kosenkov,  
 T. Kowalczyk,  C. M. Krauter,  A. Kunitsa,  Ka Un Lao,  A. Laurent,  
 K. V. Lawler,  Joonho Lee,  D. Lefrancois,  S. Lehtola,  D. S. Levine,  
 Yi-Pei Li,  You-Sheng Lin,  Fenglai Liu,  E. Livshits,  A. Luenser,  
 P. Manohar,  E. Mansoor,  S. F. Manzer,  Shan-Ping Mao,  Yuezhi Mao,  
 N. Mardirossian,  A. V. Marenich,  L. A. Martinez-Martinez,  S. A. Maurer,  
 N. J. Mayhall,  S. C. McKenzie,  J.-M. Mewes,  A. F. Morrison,  K. Nanda,  
 T. S. Nguyen-Beck,  R. Olivares-Amaya,  J. A. Parkhill,  T. M. Perrine,  
 F. Plasser,  S. Prager,  A. Prociuk,  D. R. Rehn,  F. Rob,  M. Schneider,  
 N. Sergueev,  S. M. Sharada,  S. Sharma,  D. W. Small,  T. Stauch,  
 T. Stein,  Yu-Chuan Su,  A. J. W. Thom,  T. Tsuchimochi,  L. Vogt,  
 O. Vydrov,  M. A. Watson,  J. Wenzel,  M. de Wergifosse,  T. A. Wesolowski,  
 A. White,  J. Witte,  A. Yamada,  Jun Yang,  K. Yao,  S. Yeganeh,  
 S. R. Yost,  Zhi-Qiang You,  A. Zech,  Igor Ying Zhang,  Xing Zhang,  
 Yan Zhao,  Ying Zhu,  B. R. Brooks,  G. K. L. Chan,  C. J. Cramer,  
 M. S. Gordon,  W. J. Hehre,  A. Klamt,  M. W. Schmidt,  C. D. Sherrill,  
 D. G. Truhlar,  A. Aspuru-Guzik,  R. Baer,  A. T. Bell,  N. A. Besley,  
 Jeng-Da Chai,  A. Dreuw,  B. D. Dunietz,  T. R. Furlani,  Chao-Ping Hsu,  
 Yousung Jung,  Jing Kong,  D. S. Lambrecht,  WanZhen Liang,  C. Ochsenfeld,  
 V. A. Rassolov,  L. V. Slipchenko,  J. E. Subotnik,  T. Van Voorhis,  
 J. M. Herbert,  A. I. Krylov,  P. M. W. Gill,  M. Head-Gordon

 Contributors to earlier versions of Q-Chem not listed above: 
 R. D. Adamson,  B. Austin,  J. Baker,  G. J. O. Beran,  K. Brandhorst,  
 S. T. Brown,  E. F. C. Byrd,  A. K. Chakraborty,  C.-L. Cheng,  
 Siu Hung Chien,  D. M. Chipman,  D. L. Crittenden,  H. Dachsel,  
 R. A. DiStasio Jr.,  R. J. Doerksen,  A. D. Dutoi,  L. Fusti-Molnar,  
 W. A. Goddard III,  A. Golubeva-Zadorozhnaya,  S. R. Gwaltney,  G. Hawkins,  
 A. Heyden,  S. Hirata,  G. Kedziora,  F. J. Keil,  C. Kelley,  Jihan Kim,  
 R. A. King,  R. Z. Khaliullin,  P. P. Korambath,  W. Kurlancheek,  
 A. M. Lee,  M. S. Lee,  S. V. Levchenko,  Ching Yeh Lin,  D. Liotard,  
 R. C. Lochan,  I. Lotan,  P. E. Maslen,  N. Nair,  D. P. O'Neill,  
 D. Neuhauser,  E. Neuscamman,  C. M. Oana,  R. Olson,  B. Peters,  
 R. Peverati,  P. A. Pieniazek,  Y. M. Rhee,  J. Ritchie,  M. A. Rohrdanz,  
 E. Rosta,  N. J. Russ,  H. F. Schaefer III,  N. E. Schultz,  N. Shenvi,  
 A. C. Simmonett,  A. Sodt,  D. Stuck,  K. S. Thanthiriwatte,  V. Vanovschi,  
 Tao Wang,  A. Warshel,  C. F. Williams,  Q. Wu,  X. Xu,  W. Zhang

 Please cite Q-Chem as follows:
 Y. Shao et al., Mol. Phys. 113, 184-215 (2015)
 DOI: 10.1080/00268976.2014.952696

 Q-Chem 5.0.0 for Intel X86 EM64T Linux

 Parts of Q-Chem use Armadillo 5.200.1 (Boston Tea Smuggler).
 http://arma.sourceforge.net/

 Q-Chem begins on Mon Dec  9 11:57:29 2019  

Host: r4229
0

     Scratch files written to /jobfs/local/4046925.r-man2/CP19CA_c2.CCSD-T_6-31pGd.mo//
 Parallel job on  1  processors
Core orbitals will be frozen

Checking the input file for inconsistencies... 	...done.

--------------------------------------------------------------
User input:
--------------------------------------------------------------
$molecule
  0 1
    C     -6.2412937515    1.4778218611    0.0318125601
    N     -4.9682048194    0.9047580993    0.0878559220
    C     -3.7576631722    1.5436920287   -0.0321938430
    O     -3.5844591515    2.7208668564   -0.2084743709
    O     -2.7761420705    0.6342357795    0.0796269158
    C     -1.4406480429    1.1525674080   -0.0253083220
    C     -0.4835112362   -0.0099556028    0.1245375878
    C      0.9649862175    0.4604875937    0.0241088620
    C     -7.3306135739    0.6124982045    0.1825897734
    C     -8.6233439207    1.1002694459    0.1394542285
    C     -8.8669297093    2.4609022731   -0.0546461065
    C     -7.7752689410    3.3090416346   -0.2029441508
    C     -6.4693977812    2.8420197283   -0.1631630788
    H     -4.9133602820   -0.0926565903    0.2327463223
    H     -1.2922805540    1.9037091727    0.7543226110
    H     -1.3301125624    1.6473113833   -0.9933299433
    H     -0.6985850315   -0.7503373463   -0.6507132677
    H     -0.6609026345   -0.4951625604    1.0881469967
    H      1.1631388792    0.9319383363   -0.9415130184
    H      1.6563445042   -0.3760627020    0.1319492902
    H      1.2009389010    1.1882284268    0.8042853671
    H     -7.1738900918   -0.4494692592    0.3348127952
    Cl    -9.9263445752   -0.0323572718    0.3340808615
    C    -10.2646337929    3.0122280647   -0.1047576986
    H     -7.9495783869    4.3667860877   -0.3541664202
    H     -5.6410804660    3.5228606594   -0.2811569609
    F    -10.2595614937    4.3388366204   -0.2993042742
    F    -10.9849955341    2.4764675991   -1.1000699104
    F    -10.9381569263    2.7890140694    1.0324112721

$end

$rem

    JOBTYPE               sp
    METHOD                CCSD(T)
    BASIS                 6-31+G*
    CC_BACKEND            XM

    MEM_TOTAL             60000
$end
--------------------------------------------------------------
 ----------------------------------------------------------------
             Standard Nuclear Orientation (Angstroms)
    I     Atom           X                Y                Z
 ----------------------------------------------------------------
    1      C       0.2526998783    -0.1386939849    -0.0002377713
    2      N       1.6022535255    -0.5006377657    -0.0003619749
    3      C       2.6922815226     0.3359616303    -0.0002711529
    4      O       2.6710298180     1.5386101204    -0.0001912730
    5      O       3.8090811988    -0.4095292859    -0.0003103800
    6      C       5.0420709626     0.3273286079    -0.0000544211
    7      C       6.1761187122    -0.6746494328     0.0002944979
    8      C       7.5284129373     0.0330566407     0.0005083480
    9      C      -0.6807806376    -1.1811672897    -0.0001407646
   10      C      -2.0357913227    -0.9075265725    -0.0000418684
   11      C      -2.4981883517     0.4094850648    -0.0000015370
   12      C      -1.5595934969     1.4352021850    -0.0000875106
   13      C      -0.1950048582     1.1844247691    -0.0002113775
   14      H       1.8191565155    -1.4864320092    -0.0004913350
   15      H       5.0679052018     0.9700498496     0.8832876710
   16      H       5.0683199143     0.9699246075    -0.8834778342
   17      H       6.0827266326    -1.3182816402    -0.8785975623
   18      H       6.0823432823    -1.3180851529     0.8792900814
   19      H       7.6449082967     0.6667142281    -0.8820236849
   20      H       8.3470413963    -0.6875469814     0.0008271063
   21      H       7.6444753013     0.6670010240     0.8828913797
   22      H      -0.3528283138    -2.2145869839    -0.0001739096
   23      Cl     -3.1364597565    -2.2517968225     0.0000450205
   24      C      -3.9671384171     0.7292250998     0.0001421566
   25      H      -1.9042067550     2.4615145094    -0.0000572718
   26      H       0.5110829899     1.9999101771    -0.0002785068
   27      F      -4.1786577780     2.0532431950     0.0001863243
   28      F      -4.5929042144     0.2359707375    -1.0776908614
   29      F      -4.5926927839     0.2359307043     1.0780816449
 ----------------------------------------------------------------
 Molecular Point Group                 C1    NOp =  1
 Largest Abelian Subgroup              C1    NOp =  1
 Nuclear Repulsion Energy =  1431.5254333471 hartrees
 There are       72 alpha and       72 beta electrons
 Requested basis set is 6-31+G(d)
 There are 113 shells and 368 basis functions
 Total memory of 50485MB is distributed as follows: 
   QALLOC including MEM_STATIC uses 30062MB
   MEM_STATIC is set to 62MB
   CCMAN JOB total memory use is  50423MB
 Warning: actual memory use might exceed 50485MB

 Total QAlloc Memory Limit  30062 MB
 Mega-Array Size        61 MB
 MEM_STATIC part        62 MB
 A cutoff of  1.0D-14 yielded   4721 shell pairs
 There are     53688 function pairs
 
 -------------------------------------------------------
 OpenMP Integral Computing Module                       
 Release: version 1.0, May 2013, Q-Chem Inc. Pittsburgh 
 -------------------------------------------------------
 Integral Job Info:
 Integral job number is                      11
 Integral operator is                         1
 short-range coefficients                     0
 long-range coefficients              100000000
 Omega coefficients                           0
 if combine SR and LR in K                    0
 Integral screening is                        0
 Integral computing path is                   2
 max size of driver memory is            800000
 size of driver memory is                593474
 size of scratch memory is             15166112
 max col of scratch BK array               1296
 max len of scratch array in speh3          155
 max len of scratch index in speh4           18
 max int batch size is                      520
 min int batch size is                       52
 fixed nKL is                                52
 max L of basis functions is                  2
 order of int derivative is                   0
 number of shells is                        113
 number of basis is                         368
 number of cartesian basis is               368
 number of contracted shell pairs          4721
 number of primitive shell pairs          15360
 maxK2 (contraction) of shell pair           36
 max number of K2 of shell pair               1
 max number of CS2 of shell pair            668
 max number of PS2 of shell pair           3792
 mem total for path MDJ                  135510
 -------------------------------------------------------
 Smallest overlap matrix eigenvalue = 7.55E-07
 Linear dependence detected in AO basis
 Number of orthogonalized atomic orbitals = 366
 Maximum deviation from orthogonality = 1.968E-10

 Scale SEOQF with 1.000000e-02/1.000000e-01/1.000000e-01

 Standard Electronic Orientation quadrupole field applied
 Nucleus-field energy     =     0.0000000202 hartrees
 Guess from superposition of atomic densities
 Warning:  Energy on first SCF cycle will be non-variational
 A restricted Hartree-Fock SCF calculation will be
 performed using Pulay DIIS extrapolation
 SCF converges when DIIS error is below 1.0E-08
 -------------------------------------------------------
 OpenMP Integral computing Module                
 Release: version 1.0, May 2013, Q-Chem Inc. Pittsburgh 
 -------------------------------------------------------
 ---------------------------------------
  Cycle       Energy         DIIS Error
 ---------------------------------------
    1   -1391.0859318860      3.93E-02
    2   -1384.6353954090      4.66E-03
    3   -1384.8961519816      2.84E-03
    4   -1384.9944298212      5.23E-04
    5   -1384.9997230579      1.93E-04
    6   -1385.0003730927      4.55E-05
    7   -1385.0004294762      1.95E-05
    8   -1385.0004427586      5.78E-06
    9   -1385.0004442280      2.27E-06
   10   -1385.0004444270      7.91E-07
   11   -1385.0004444588      3.29E-07
   12   -1385.0004444643      1.37E-07
   13   -1385.0004444653      5.64E-08
   14   -1385.0004444656      2.67E-08
   15   -1385.0004444656      9.86E-09 Convergence criterion met
 ---------------------------------------
 SCF time:  CPU 211.65 s  wall 54.01 s
 SCF   energy in the final basis set = -1385.0004444656
 Total energy in the final basis set = -1385.0004444656


 ------------------------------------------------------------------------------

   CCMAN2: suite of methods based on coupled cluster
           and equation of motion theories.

   Components:
   * libvmm-1.3-trunk
     by Evgeny Epifanovsky, Ilya Kaliman.
   * libtensor-2.5-release
     by Evgeny Epifanovsky, Michael Wormit, Dmitry Zuev, Sam Manzer, 
        Ilya Kaliman.
   * libcc-2.5-trunk
     by Evgeny Epifanovsky, Arik Landau, Tomasz Kus, Kirill Khistyaev, 
        Dmitry Zuev, Prashant Manohar, Xintian Feng, Anna Krylov, 
        Matthew Goldey, Alec White, Thomas Jagau, Kaushik Nanda, 
        Anastasia Gunina, Alexander Kunitsa, Joonho Lee.

   CCMAN original authors:
   Anna I. Krylov, C. David Sherrill, Steven R. Gwaltney,
   Edward F. C. Byrd (2000)
   Sergey V. Levchenko, Lyudmila V. Slipchenko, Tao Wang,
   Ana-Maria C. Cristian (2003)
   Piotr A. Pieniazek, C. Melania Oana, Evgeny Epifanovsky (2007)
   Prashant Manohar (2009)

 ------------------------------------------------------------------------------


================================================================================
This program uses libxm tensor contraction code.
See https://github.com/ilyak/libxm for more info.
libxm is (c) Ilya Kaliman 2014-2016.
================================================================================

 Calculation will run on 4 cores using libxm for tensor contractions

 
 Alpha MOs, Restricted
 -- Occupied --                  
-104.85  -26.35  -26.35  -26.35  -20.63  -20.57  -15.64  -11.52
  1 A     2 A     3 A     4 A     5 A     6 A     7 A     8 A                  
-11.438 -11.338 -11.330 -11.304 -11.280 -11.278 -11.272 -11.256
  9 A    10 A    11 A    12 A    13 A    14 A    15 A    16 A                  
-11.244 -11.235 -10.578  -8.048  -8.044  -8.044  -1.734  -1.637
 17 A    18 A    19 A    20 A    21 A    22 A    23 A    24 A                  
 -1.633  -1.497  -1.389  -1.294  -1.216  -1.139  -1.094  -1.073
 25 A    26 A    27 A    28 A    29 A    30 A    31 A    32 A                  
 -1.029  -0.982  -0.953  -0.891  -0.878  -0.837  -0.824  -0.821
 33 A    34 A    35 A    36 A    37 A    38 A    39 A    40 A                  
 -0.816  -0.793  -0.775  -0.734  -0.713  -0.710  -0.709  -0.686
 41 A    42 A    43 A    44 A    45 A    46 A    47 A    48 A                  
 -0.674  -0.660  -0.659  -0.657  -0.645  -0.644  -0.624  -0.615
 49 A    50 A    51 A    52 A    53 A    54 A    55 A    56 A                  
 -0.608  -0.591  -0.567  -0.562  -0.557  -0.538  -0.531  -0.516
 57 A    58 A    59 A    60 A    61 A    62 A    63 A    64 A                  
 -0.505  -0.499  -0.480  -0.477  -0.469  -0.462  -0.362  -0.341
 65 A    66 A    67 A    68 A    69 A    70 A    71 A    72 A                  
 -- Virtual --                   
  0.055   0.075   0.078   0.081   0.082   0.088   0.091   0.095
 73 A    74 A    75 A    76 A    77 A    78 A    79 A    80 A                  
  0.096   0.109   0.112   0.115   0.122   0.125   0.127   0.132
 81 A    82 A    83 A    84 A    85 A    86 A    87 A    88 A                  
  0.142   0.142   0.147   0.152   0.159   0.159   0.172   0.178
 89 A    90 A    91 A    92 A    93 A    94 A    95 A    96 A                  
  0.179   0.190   0.191   0.196   0.203   0.212   0.218   0.223
 97 A    98 A    99 A   100 A   101 A   102 A   103 A   104 A                  
  0.226   0.226   0.231   0.252   0.258   0.260   0.264   0.266
105 A   106 A   107 A   108 A   109 A   110 A   111 A   112 A                  
  0.270   0.281   0.291   0.293   0.299   0.304   0.309   0.315
113 A   114 A   115 A   116 A   117 A   118 A   119 A   120 A                  
  0.326   0.329   0.330   0.335   0.335   0.342   0.349   0.351
121 A   122 A   123 A   124 A   125 A   126 A   127 A   128 A                  
  0.364   0.370   0.373   0.381   0.385   0.387   0.402   0.410
129 A   130 A   131 A   132 A   133 A   134 A   135 A   136 A                  
  0.411   0.417   0.420   0.421   0.426   0.434   0.436   0.436
137 A   138 A   139 A   140 A   141 A   142 A   143 A   144 A                  
  0.447   0.452   0.460   0.463   0.466   0.466   0.474   0.477
145 A   146 A   147 A   148 A   149 A   150 A   151 A   152 A                  
  0.487   0.494   0.502   0.505   0.507   0.513   0.535   0.545
153 A   154 A   155 A   156 A   157 A   158 A   159 A   160 A                  
  0.558   0.564   0.566   0.574   0.593   0.600   0.603   0.608
161 A   162 A   163 A   164 A   165 A   166 A   167 A   168 A                  
  0.632   0.647   0.659   0.703   0.744   0.783   0.801   0.825
169 A   170 A   171 A   172 A   173 A   174 A   175 A   176 A                  
  0.839   0.840   0.845   0.869   0.881   0.899   0.916   0.918
177 A   178 A   179 A   180 A   181 A   182 A   183 A   184 A                  
  0.918   0.921   0.931   0.935   0.951   0.952   0.956   0.970
185 A   186 A   187 A   188 A   189 A   190 A   191 A   192 A                  
  0.996   1.013   1.017   1.020   1.035   1.050   1.051   1.063
193 A   194 A   195 A   196 A   197 A   198 A   199 A   200 A                  
  1.079   1.085   1.090   1.132   1.153   1.170   1.170   1.179
201 A   202 A   203 A   204 A   205 A   206 A   207 A   208 A                  
  1.188   1.198   1.201   1.216   1.220   1.240   1.240   1.252
209 A   210 A   211 A   212 A   213 A   214 A   215 A   216 A                  
  1.266   1.283   1.295   1.299   1.333   1.345   1.348   1.367
217 A   218 A   219 A   220 A   221 A   222 A   223 A   224 A                  
  1.382   1.392   1.398   1.408   1.433   1.446   1.460   1.466
225 A   226 A   227 A   228 A   229 A   230 A   231 A   232 A                  
  1.469   1.483   1.493   1.511   1.528   1.544   1.563   1.592
233 A   234 A   235 A   236 A   237 A   238 A   239 A   240 A                  
  1.600   1.625   1.629   1.657   1.666   1.667   1.700   1.708
241 A   242 A   243 A   244 A   245 A   246 A   247 A   248 A                  
  1.710   1.725   1.759   1.778   1.782   1.810   1.816   1.843
249 A   250 A   251 A   252 A   253 A   254 A   255 A   256 A                  
  1.872   1.889   1.911   1.913   1.941   1.944   1.967   1.967
257 A   258 A   259 A   260 A   261 A   262 A   263 A   264 A                  
  1.976   1.983   1.998   2.023   2.030   2.037   2.057   2.081
265 A   266 A   267 A   268 A   269 A   270 A   271 A   272 A                  
  2.102   2.105   2.118   2.119   2.127   2.130   2.154   2.158
273 A   274 A   275 A   276 A   277 A   278 A   279 A   280 A                  
  2.163   2.184   2.195   2.201   2.222   2.255   2.263   2.270
281 A   282 A   283 A   284 A   285 A   286 A   287 A   288 A                  
  2.289   2.305   2.329   2.329   2.355   2.360   2.365   2.380
289 A   290 A   291 A   292 A   293 A   294 A   295 A   296 A                  
  2.394   2.400   2.416   2.416   2.433   2.440   2.442   2.452
297 A   298 A   299 A   300 A   301 A   302 A   303 A   304 A                  
  2.490   2.512   2.528   2.550   2.562   2.578   2.591   2.593
305 A   306 A   307 A   308 A   309 A   310 A   311 A   312 A                  
  2.612   2.672   2.676   2.692   2.711   2.735   2.739   2.804
313 A   314 A   315 A   316 A   317 A   318 A   319 A   320 A                  
  2.819   2.825   2.863   2.907   2.960   2.977   2.983   2.996
321 A   322 A   323 A   324 A   325 A   326 A   327 A   328 A                  
  3.045   3.083   3.093   3.112   3.134   3.148   3.163   3.172
329 A   330 A   331 A   332 A   333 A   334 A   335 A   336 A                  
  3.256   3.290   3.318   3.372   3.492   3.509   3.521   3.606
337 A   338 A   339 A   340 A   341 A   342 A   343 A   344 A                  
  3.613   3.679   3.726   3.808   4.600   4.654   4.672   4.693
345 A   346 A   347 A   348 A   349 A   350 A   351 A   352 A                  
  4.762   4.788   4.798   4.844   4.849   4.873   4.967   5.012
353 A   354 A   355 A   356 A   357 A   358 A   359 A   360 A                  
  5.042   5.109   5.197   5.991   6.466   7.377
361 A   362 A   363 A   364 A   365 A   366 A                                  
 
 Beta MOs, Restricted
 -- Occupied --                  
-104.85  -26.35  -26.35  -26.35  -20.63  -20.57  -15.64  -11.52
  1 A     2 A     3 A     4 A     5 A     6 A     7 A     8 A                  
-11.438 -11.338 -11.330 -11.304 -11.280 -11.278 -11.272 -11.256
  9 A    10 A    11 A    12 A    13 A    14 A    15 A    16 A                  
-11.244 -11.235 -10.578  -8.048  -8.044  -8.044  -1.734  -1.637
 17 A    18 A    19 A    20 A    21 A    22 A    23 A    24 A                  
 -1.633  -1.497  -1.389  -1.294  -1.216  -1.139  -1.094  -1.073
 25 A    26 A    27 A    28 A    29 A    30 A    31 A    32 A                  
 -1.029  -0.982  -0.953  -0.891  -0.878  -0.837  -0.824  -0.821
 33 A    34 A    35 A    36 A    37 A    38 A    39 A    40 A                  
 -0.816  -0.793  -0.775  -0.734  -0.713  -0.710  -0.709  -0.686
 41 A    42 A    43 A    44 A    45 A    46 A    47 A    48 A                  
 -0.674  -0.660  -0.659  -0.657  -0.645  -0.644  -0.624  -0.615
 49 A    50 A    51 A    52 A    53 A    54 A    55 A    56 A                  
 -0.608  -0.591  -0.567  -0.562  -0.557  -0.538  -0.531  -0.516
 57 A    58 A    59 A    60 A    61 A    62 A    63 A    64 A                  
 -0.505  -0.499  -0.480  -0.477  -0.469  -0.462  -0.362  -0.341
 65 A    66 A    67 A    68 A    69 A    70 A    71 A    72 A                  
 -- Virtual --                   
  0.055   0.075   0.078   0.081   0.082   0.088   0.091   0.095
 73 A    74 A    75 A    76 A    77 A    78 A    79 A    80 A                  
  0.096   0.109   0.112   0.115   0.122   0.125   0.127   0.132
 81 A    82 A    83 A    84 A    85 A    86 A    87 A    88 A                  
  0.142   0.142   0.147   0.152   0.159   0.159   0.172   0.178
 89 A    90 A    91 A    92 A    93 A    94 A    95 A    96 A                  
  0.179   0.190   0.191   0.196   0.203   0.212   0.218   0.223
 97 A    98 A    99 A   100 A   101 A   102 A   103 A   104 A                  
  0.226   0.226   0.231   0.252   0.258   0.260   0.264   0.266
105 A   106 A   107 A   108 A   109 A   110 A   111 A   112 A                  
  0.270   0.281   0.291   0.293   0.299   0.304   0.309   0.315
113 A   114 A   115 A   116 A   117 A   118 A   119 A   120 A                  
  0.326   0.329   0.330   0.335   0.335   0.342   0.349   0.351
121 A   122 A   123 A   124 A   125 A   126 A   127 A   128 A                  
  0.364   0.370   0.373   0.381   0.385   0.387   0.402   0.410
129 A   130 A   131 A   132 A   133 A   134 A   135 A   136 A                  
  0.411   0.417   0.420   0.421   0.426   0.434   0.436   0.436
137 A   138 A   139 A   140 A   141 A   142 A   143 A   144 A                  
  0.447   0.452   0.460   0.463   0.466   0.466   0.474   0.477
145 A   146 A   147 A   148 A   149 A   150 A   151 A   152 A                  
  0.487   0.494   0.502   0.505   0.507   0.513   0.535   0.545
153 A   154 A   155 A   156 A   157 A   158 A   159 A   160 A                  
  0.558   0.564   0.566   0.574   0.593   0.600   0.603   0.608
161 A   162 A   163 A   164 A   165 A   166 A   167 A   168 A                  
  0.632   0.647   0.659   0.703   0.744   0.783   0.801   0.825
169 A   170 A   171 A   172 A   173 A   174 A   175 A   176 A                  
  0.839   0.840   0.845   0.869   0.881   0.899   0.916   0.918
177 A   178 A   179 A   180 A   181 A   182 A   183 A   184 A                  
  0.918   0.921   0.931   0.935   0.951   0.952   0.956   0.970
185 A   186 A   187 A   188 A   189 A   190 A   191 A   192 A                  
  0.996   1.013   1.017   1.020   1.035   1.050   1.051   1.063
193 A   194 A   195 A   196 A   197 A   198 A   199 A   200 A                  
  1.079   1.085   1.090   1.132   1.153   1.170   1.170   1.179
201 A   202 A   203 A   204 A   205 A   206 A   207 A   208 A                  
  1.188   1.198   1.201   1.216   1.220   1.240   1.240   1.252
209 A   210 A   211 A   212 A   213 A   214 A   215 A   216 A                  
  1.266   1.283   1.295   1.299   1.333   1.345   1.348   1.367
217 A   218 A   219 A   220 A   221 A   222 A   223 A   224 A                  
  1.382   1.392   1.398   1.408   1.433   1.446   1.460   1.466
225 A   226 A   227 A   228 A   229 A   230 A   231 A   232 A                  
  1.469   1.483   1.493   1.511   1.528   1.544   1.563   1.592
233 A   234 A   235 A   236 A   237 A   238 A   239 A   240 A                  
  1.600   1.625   1.629   1.657   1.666   1.667   1.700   1.708
241 A   242 A   243 A   244 A   245 A   246 A   247 A   248 A                  
  1.710   1.725   1.759   1.778   1.782   1.810   1.816   1.843
249 A   250 A   251 A   252 A   253 A   254 A   255 A   256 A                  
  1.872   1.889   1.911   1.913   1.941   1.944   1.967   1.967
257 A   258 A   259 A   260 A   261 A   262 A   263 A   264 A                  
  1.976   1.983   1.998   2.023   2.030   2.037   2.057   2.081
265 A   266 A   267 A   268 A   269 A   270 A   271 A   272 A                  
  2.102   2.105   2.118   2.119   2.127   2.130   2.154   2.158
273 A   274 A   275 A   276 A   277 A   278 A   279 A   280 A                  
  2.163   2.184   2.195   2.201   2.222   2.255   2.263   2.270
281 A   282 A   283 A   284 A   285 A   286 A   287 A   288 A                  
  2.289   2.305   2.329   2.329   2.355   2.360   2.365   2.380
289 A   290 A   291 A   292 A   293 A   294 A   295 A   296 A                  
  2.394   2.400   2.416   2.416   2.433   2.440   2.442   2.452
297 A   298 A   299 A   300 A   301 A   302 A   303 A   304 A                  
  2.490   2.512   2.528   2.550   2.562   2.578   2.591   2.593
305 A   306 A   307 A   308 A   309 A   310 A   311 A   312 A                  
  2.612   2.672   2.676   2.692   2.711   2.735   2.739   2.804
313 A   314 A   315 A   316 A   317 A   318 A   319 A   320 A                  
  2.819   2.825   2.863   2.907   2.960   2.977   2.983   2.996
321 A   322 A   323 A   324 A   325 A   326 A   327 A   328 A                  
  3.045   3.083   3.093   3.112   3.134   3.148   3.163   3.172
329 A   330 A   331 A   332 A   333 A   334 A   335 A   336 A                  
  3.256   3.290   3.318   3.372   3.492   3.509   3.521   3.606
337 A   338 A   339 A   340 A   341 A   342 A   343 A   344 A                  
  3.613   3.679   3.726   3.808   4.600   4.654   4.672   4.693
345 A   346 A   347 A   348 A   349 A   350 A   351 A   352 A                  
  4.762   4.788   4.798   4.844   4.849   4.873   4.967   5.012
353 A   354 A   355 A   356 A   357 A   358 A   359 A   360 A                  
  5.042   5.109   5.197   5.991   6.466   7.377
361 A   362 A   363 A   364 A   365 A   366 A                                  

 Occupation and symmetry of molecular orbitals

 Point group: C1 (1 irreducible representation).

                           A     All 
 -------------------------------------
 All molecular orbitals:
  - Alpha                  366   366 
  - Beta                   366   366 
 -------------------------------------
 Alpha orbitals:
  - Frozen occupied        22    22  
  - Active occupied        50    50  
  - Active virtual         294   294 
  - Frozen virtual         0     0   
 -------------------------------------
 Beta orbitals:
  - Frozen occupied        22    22  
  - Active occupied        50    50  
  - Active virtual         294   294 
  - Frozen virtual         0     0   
 -------------------------------------

 Import integrals:   CPU 0.00 s  wall 0.00 s

 Import integrals:   CPU 1484.37 s  wall 566.09 s

 MP2 amplitudes:   CPU 23.54 s  wall 79.72 s

           CCSD T amplitudes will be solved using DIIS.

           Start     Size      MaxIter   EConv     TConv     
           3         7         100       1.00e-06  1.00e-04  
 ------------------------------------------------------------------------------
           Energy (a.u.)   Ediff      Tdiff       Comment
 ------------------------------------------------------------------------------
         -1387.59143481                           
     1   -1387.57998205   1.15e-02   1.48e+00     Step took 46.55.
     2   -1387.65906047   7.91e-02   2.01e-01     
     3   -1387.65793908   1.12e-03   7.43e-02     
     4   -1387.66573939   7.80e-03   2.44e-02     Switched to DIIS steps.
     5   -1387.66839414   2.65e-03   1.65e-02     
     6   -1387.66855069   1.57e-04   3.35e-03     
     7   -1387.66853637   1.43e-05   1.77e-03     
     8   -1387.66852742   8.96e-06   4.57e-04     
     9   -1387.66852844   1.02e-06   1.92e-04     
    10   -1387.66852849   4.73e-08   5.16e-05     
 ------------------------------------------------------------------------------
         -1387.66852849                           CCSD T converged.


 ------------------------------------------------------------------------------
 == (T) code is based on LIBPT ==
 == Author: Ilya Kaliman, 2016 ==

 Starting (T) calculation...
 (T) calculation completed in 58143 sec
 ------------------------------------------------------------------------------

 SCF energy                 = -1385.00044447
 MP2 energy                 = -1387.59143481
 CCSD correlation energy     =    -2.66808402
 CCSD total energy           = -1387.66852849
 CCSD(T) correlation energy =    -0.09945496
 CCSD(T) total energy       = -1387.76798344

 CCSD  T1^2 = 0.0375  T2^2 = 0.8849  Leading amplitudes:

 Amplitude    Orbitals with energies
  0.0216       53 (A) A                  ->    106 (A) A                  
              -0.6451                          0.2261                     
  0.0216       53 (A) B                  ->    106 (A) B                  
              -0.6451                          0.2261                     
  0.0215       45 (A) A                  ->    106 (A) A                  
              -0.7126                          0.2261                     
  0.0215       45 (A) B                  ->    106 (A) B                  
              -0.7126                          0.2261                     

 Amplitude    Orbitals with energies
 -0.0418       72 (A) A      72 (A) B    ->    78 (A) A      78 (A) B     
              -0.3408       -0.3408            0.0883        0.0883       
  0.0418       72 (A) A      72 (A) B    ->    78 (A) B      78 (A) A     
              -0.3408       -0.3408            0.0883        0.0883       
  0.0418       72 (A) B      72 (A) A    ->    78 (A) A      78 (A) B     
              -0.3408       -0.3408            0.0883        0.0883       
 -0.0418       72 (A) B      72 (A) A    ->    78 (A) B      78 (A) A     
              -0.3408       -0.3408            0.0883        0.0883       

 CCSD calculation:   CPU 298933.17 s  wall 89564.42 s

 Total ccman2 time:   CPU 300480.42 s  wall 90256.44 s

 
 --------------------------------------------------------------
 
                    Orbital Energies (a.u.)
 --------------------------------------------------------------
 
 Alpha MOs
 -- Occupied --
******* -26.354 -26.347 -26.347 -20.633 -20.570 -15.638 -11.521
-11.438 -11.338 -11.330 -11.304 -11.280 -11.278 -11.272 -11.256
-11.244 -11.235 -10.578  -8.048  -8.044  -8.044  -1.734  -1.637
 -1.633  -1.497  -1.389  -1.294  -1.216  -1.139  -1.094  -1.073
 -1.029  -0.982  -0.953  -0.891  -0.878  -0.837  -0.824  -0.821
 -0.816  -0.793  -0.775  -0.734  -0.713  -0.710  -0.709  -0.686
 -0.674  -0.660  -0.659  -0.657  -0.645  -0.644  -0.624  -0.615
 -0.608  -0.591  -0.567  -0.562  -0.557  -0.538  -0.531  -0.516
 -0.505  -0.499  -0.480  -0.477  -0.469  -0.462  -0.362  -0.341
 -- Virtual --
  0.055   0.075   0.078   0.081   0.082   0.088   0.091   0.095
  0.096   0.109   0.112   0.115   0.122   0.125   0.127   0.132
  0.142   0.142   0.147   0.152   0.159   0.159   0.172   0.178
  0.179   0.190   0.191   0.196   0.203   0.212   0.218   0.223
  0.226   0.226   0.231   0.252   0.258   0.260   0.264   0.266
  0.270   0.281   0.291   0.293   0.299   0.304   0.309   0.315
  0.326   0.329   0.330   0.335   0.335   0.342   0.349   0.351
  0.364   0.370   0.373   0.381   0.385   0.387   0.402   0.410
  0.411   0.417   0.420   0.421   0.426   0.434   0.436   0.436
  0.447   0.452   0.460   0.463   0.466   0.466   0.474   0.477
  0.487   0.494   0.502   0.505   0.507   0.513   0.535   0.545
  0.558   0.564   0.566   0.574   0.593   0.600   0.603   0.608
  0.632   0.647   0.659   0.703   0.744   0.783   0.801   0.825
  0.839   0.840   0.845   0.869   0.881   0.899   0.916   0.918
  0.918   0.921   0.931   0.935   0.951   0.952   0.956   0.970
  0.996   1.013   1.017   1.020   1.035   1.050   1.051   1.063
  1.079   1.085   1.090   1.132   1.153   1.170   1.170   1.179
  1.188   1.198   1.201   1.216   1.220   1.240   1.240   1.252
  1.266   1.283   1.295   1.299   1.333   1.345   1.348   1.367
  1.382   1.392   1.398   1.408   1.433   1.446   1.460   1.466
  1.469   1.483   1.493   1.511   1.528   1.544   1.563   1.592
  1.600   1.625   1.629   1.657   1.666   1.667   1.700   1.708
  1.710   1.725   1.759   1.778   1.782   1.810   1.816   1.843
  1.872   1.889   1.911   1.913   1.941   1.944   1.967   1.967
  1.976   1.983   1.998   2.023   2.030   2.037   2.057   2.081
  2.102   2.105   2.118   2.119   2.127   2.130   2.154   2.158
  2.163   2.184   2.195   2.201   2.222   2.255   2.263   2.270
  2.289   2.305   2.329   2.329   2.355   2.360   2.365   2.380
  2.394   2.400   2.416   2.416   2.433   2.440   2.442   2.452
  2.490   2.512   2.528   2.550   2.562   2.578   2.591   2.593
  2.612   2.672   2.676   2.692   2.711   2.735   2.739   2.804
  2.819   2.825   2.863   2.907   2.960   2.977   2.983   2.996
  3.045   3.083   3.093   3.112   3.134   3.148   3.163   3.172
  3.256   3.290   3.318   3.372   3.492   3.509   3.521   3.606
  3.613   3.679   3.726   3.808   4.600   4.654   4.672   4.693
  4.762   4.788   4.798   4.844   4.849   4.873   4.967   5.012
  5.042   5.109   5.197   5.991   6.466   7.377
 --------------------------------------------------------------
 
          Ground-State Mulliken Net Atomic Charges

     Atom                 Charge (a.u.)
  ----------------------------------------
      1 C                    -0.027094
      2 N                    -0.923966
      3 C                     0.701426
      4 O                    -0.583306
      5 O                    -0.479939
      6 C                     0.051700
      7 C                    -0.278993
      8 C                    -0.690880
      9 C                    -0.730668
     10 C                     0.439910
     11 C                    -1.090981
     12 C                     0.058059
     13 C                     0.126248
     14 H                     0.499471
     15 H                     0.211908
     16 H                     0.211894
     17 H                     0.204651
     18 H                     0.204651
     19 H                     0.196405
     20 H                     0.204644
     21 H                     0.196402
     22 H                     0.255993
     23 Cl                    0.307044
     24 C                     1.513895
     25 H                     0.281734
     26 H                     0.316147
     27 F                    -0.442807
     28 F                    -0.366774
     29 F                    -0.366776
  ----------------------------------------
  Sum of atomic charges =    -0.000000

 -----------------------------------------------------------------
                    Cartesian Multipole Moments
 -----------------------------------------------------------------
    Charge (ESU x 10^10)
                 0.0000
    Dipole Moment (Debye)
         X       5.8496      Y      -1.7198      Z      -0.0002
       Tot       6.0972
    Quadrupole Moments (Debye-Ang)
        XX    -110.9482     XY      -5.3873     YY    -110.7050
        XZ       0.0016     YZ       0.0006     ZZ    -113.7746
    Octopole Moments (Debye-Ang^2)
       XXX     141.7131    XXY     -10.5030    XYY     -27.6251
       YYY       0.4066    XXZ       0.0040    XYZ       0.0014
       YYZ      -0.0007    XZZ      -9.4794    YZZ       4.6588
       ZZZ       0.0028
    Hexadecapole Moments (Debye-Ang^3)
      XXXX   -9368.3056   XXXY     -15.6641   XXYY   -1845.7494
      XYYY     -63.5340   YYYY   -1012.4500   XXXZ       0.0058
      XXYZ      -0.0089   XYYZ      -0.0061   YYYZ       0.0057
      XXZZ   -1676.2145   XYZZ     -10.1305   YYZZ    -211.9104
      XZZZ      -0.0231   YZZZ       0.0026   ZZZZ    -201.8029
 -----------------------------------------------------------------
Archival summary:
1\1\r4229\SP\ProcedureUnspecified\6-31+G*\l13211111\hio507\TueDec1013:02:422019TueDec1013:02:422019\0\\#,ProcedureUnspecified,6-31+G*,\\0,1\Cl\C,1,1.73739\C,2,1.38237,1,117.893\H,3,1.08421,2,119.024,1,0,0\C,2,1.39583,1,121.344,3,-180,0\C,5,1.39034,2,118.194,1,-180,0\H,6,1.08262,5,118.979,2,-180,0\C,6,1.38744,5,122.047,2,0,0\H,8,1.07869,6,120.474,5,180,0\C,8,1.39681,6,119.108,5,-0,0\N,10,1.39725,8,123.707,6,180,0\H,11,1.00937,10,117.422,8,-179.992,0\C,11,1.37407,10,127.481,8,0.0107738,0\O,13,1.20284,11,126.494,10,-0.00739058,0\O,13,1.34276,11,108.77,10,179.994,0\C,15,1.43639,13,115.413,11,-179.992,0\H,16,1.09273,15,108.794,13,58.6264,0\H,16,1.09273,15,108.793,13,-58.661,0\C,5,1.50335,2,121.626,1,0.00104875,0\F,19,1.34038,5,112.199,2,-60.2915,0\F,19,1.34038,5,112.199,2,60.2891,0\F,19,1.34081,5,111.356,2,179.999,0\C,16,1.51328,15,107.675,13,179.983,0\H,23,1.09336,16,109.001,15,58.2319,0\H,23,1.09336,16,109,15,-58.2381,0\C,23,1.52629,16,110.913,15,179.997,0\H,26,1.09061,23,111.019,16,179.996,0\H,26,1.09268,23,111.299,16,60.0867,0\H,26,1.09268,23,111.299,16,-60.094,0\\HF=-1385.00044\\@

 Total job time:  90313.12s(wall), 300694.79s(cpu) 
 Tue Dec 10 13:02:42 2019

        *************************************************************
        *                                                           *
        *  Thank you very much for using Q-Chem.  Have a nice day.  *
        *                                                           *
        *************************************************************


0 sent ACK to 0 
now end server 0 ... 
