 Entering Gaussian System, Link 0=/apps/gaussian/g16c01/g16/g16
 Initial command:
 /apps/gaussian/g16c01/g16/l1.exe "/jobfs/11569723.gadi-pbs/Gau-464104.inp" -scrdir="/jobfs/11569723.gadi-pbs/"
 Entering Link 1 = /apps/gaussian/g16c01/g16/l1.exe PID=    464105.
  
 Copyright (c) 1988-2019, Gaussian, Inc.  All Rights Reserved.
  
 This is part of the Gaussian(R) 16 program.  It is based on
 the Gaussian(R) 09 system (copyright 2009, Gaussian, Inc.),
 the Gaussian(R) 03 system (copyright 2003, Gaussian, Inc.),
 the Gaussian(R) 98 system (copyright 1998, Gaussian, Inc.),
 the Gaussian(R) 94 system (copyright 1995, Gaussian, Inc.),
 the Gaussian 92(TM) system (copyright 1992, Gaussian, Inc.),
 the Gaussian 90(TM) system (copyright 1990, Gaussian, Inc.),
 the Gaussian 88(TM) system (copyright 1988, Gaussian, Inc.),
 the Gaussian 86(TM) system (copyright 1986, Carnegie Mellon
 University), and the Gaussian 82(TM) system (copyright 1983,
 Carnegie Mellon University). Gaussian is a federally registered
 trademark of Gaussian, Inc.
  
 This software contains proprietary and confidential information,
 including trade secrets, belonging to Gaussian, Inc.
  
 This software is provided under written license and may be
 used, copied, transmitted, or stored only in accord with that
 written license.
  
 The following legend is applicable only to US Government
 contracts under FAR:
  
                    RESTRICTED RIGHTS LEGEND
  
 Use, reproduction and disclosure by the US Government is
 subject to restrictions as set forth in subparagraphs (a)
 and (c) of the Commercial Computer Software - Restricted
 Rights clause in FAR 52.227-19.
  
 Gaussian, Inc.
 340 Quinnipiac St., Bldg. 40, Wallingford CT 06492
  
  
 ---------------------------------------------------------------
 Warning -- This program may not be used in any manner that
 competes with the business of Gaussian, Inc. or will provide
 assistance to any competitor of Gaussian, Inc.  The licensee
 of this program is prohibited from giving any competitor of
 Gaussian, Inc. access to this program.  By using this program,
 the user acknowledges that Gaussian, Inc. is engaged in the
 business of creating and licensing software in the field of
 computational chemistry and represents and warrants to the
 licensee that it is not a competitor of Gaussian, Inc. and that
 it will not use this program in any manner prohibited above.
 ---------------------------------------------------------------
  

 Cite this work as:
 Gaussian 16, Revision C.01,
 M. J. Frisch, G. W. Trucks, H. B. Schlegel, G. E. Scuseria, 
 M. A. Robb, J. R. Cheeseman, G. Scalmani, V. Barone, 
 G. A. Petersson, H. Nakatsuji, X. Li, M. Caricato, A. V. Marenich, 
 J. Bloino, B. G. Janesko, R. Gomperts, B. Mennucci, H. P. Hratchian, 
 J. V. Ortiz, A. F. Izmaylov, J. L. Sonnenberg, D. Williams-Young, 
 F. Ding, F. Lipparini, F. Egidi, J. Goings, B. Peng, A. Petrone, 
 T. Henderson, D. Ranasinghe, V. G. Zakrzewski, J. Gao, N. Rega, 
 G. Zheng, W. Liang, M. Hada, M. Ehara, K. Toyota, R. Fukuda, 
 J. Hasegawa, M. Ishida, T. Nakajima, Y. Honda, O. Kitao, H. Nakai, 
 T. Vreven, K. Throssell, J. A. Montgomery, Jr., J. E. Peralta, 
 F. Ogliaro, M. J. Bearpark, J. J. Heyd, E. N. Brothers, K. N. Kudin, 
 V. N. Staroverov, T. A. Keith, R. Kobayashi, J. Normand, 
 K. Raghavachari, A. P. Rendell, J. C. Burant, S. S. Iyengar, 
 J. Tomasi, M. Cossi, J. M. Millam, M. Klene, C. Adamo, R. Cammi, 
 J. W. Ochterski, R. L. Martin, K. Morokuma, O. Farkas, 
 J. B. Foresman, and D. J. Fox, Gaussian, Inc., Wallingford CT, 2019.
 
 ******************************************
 Gaussian 16:  ES64L-G16RevC.01  3-Jul-2019
                22-Sep-2020 
 ******************************************
 %NprocShared=6
 Will use up to    6 processors via shared memory.
 %Mem=1194000MB
 %chk=CP19CA.DSDPBEP86_AUG-cc-PVTZ.chk
 ----------------------------------------------------------------------
 # DSDPBEP86/AUG-cc-PVTZ SCF=Tight INT(grid=ultrafine) MaxDisk=1400000M
 B
 ----------------------------------------------------------------------
 1/38=1,172=1/1;
 2/12=2,17=6,18=5,40=1/2;
 3/5=16,6=1,7=10,11=9,25=1,30=1,74=-77,75=-5/1,2,3;
 4//1;
 5/5=2,32=2,38=5/2;
 8/10=1/1;
 9/16=-3/6;
 6/7=2,8=2,9=2,10=2/1;
 99/5=1,9=1/99;
 ----------------------------
 CP19CA.DSDPBEP86_AUG-cc-PVTZ
 ----------------------------
 Symbolic Z-matrix:
 Charge =  0 Multiplicity = 1
 C                    -6.29862   1.27924   0.01961 
 N                    -5.00055   0.76346   0.044 
 C                    -3.81834   1.46258   0.00254 
 O                    -3.69657   2.65734  -0.06275 
 O                    -2.7981    0.59076   0.04692 
 C                    -1.4866    1.17601   0.01133 
 C                    -0.47838   0.04906   0.06963 
 C                     0.94766   0.5921    0.03598 
 C                    -6.57448   2.64688  -0.05387 
 C                    -7.89539   3.07073  -0.0732 
 C                    -8.9579    2.16885  -0.02128 
 C                    -8.6648    0.80991   0.05169 
 C                    -7.35612   0.36519   0.07218 
 H                    -4.9041   -0.23981   0.09817 
 H                    -1.38252   1.85813   0.85857 
 H                    -1.38763   1.7623   -0.90542 
 H                    -0.64941  -0.6258   -0.77345 
 H                    -0.64431  -0.53044   0.98183 
 H                     1.13498   1.15912  -0.87908 
 H                     1.67608  -0.21851   0.07792 
 H                     1.14008   1.25488   0.88312 
 H                    -5.77603   3.37161  -0.09544 
 Cl                   -8.18434   4.78111  -0.16524 
 C                    -10.38995   2.62707  -0.04217 
 H                    -9.4752    0.0936    0.09283 
 H                    -7.1504   -0.6983    0.12935 
 F                    -11.23413   1.58485   0.01682 
 F                    -10.68441   3.42218   0.99505 
 F                    -10.69043   3.30521  -1.15777 
 
                          Input orientation:                          
 ---------------------------------------------------------------------
 Center     Atomic      Atomic             Coordinates (Angstroms)
 Number     Number       Type             X           Y           Z
 ---------------------------------------------------------------------
      1          6           0       -6.298616    1.279236    0.019605
      2          7           0       -5.000552    0.763456    0.043997
      3          6           0       -3.818341    1.462576    0.002536
      4          8           0       -3.696574    2.657337   -0.062747
      5          8           0       -2.798098    0.590763    0.046919
      6          6           0       -1.486597    1.176011    0.011326
      7          6           0       -0.478379    0.049059    0.069626
      8          6           0        0.947663    0.592098    0.035985
      9          6           0       -6.574482    2.646880   -0.053867
     10          6           0       -7.895392    3.070729   -0.073199
     11          6           0       -8.957897    2.168847   -0.021278
     12          6           0       -8.664802    0.809910    0.051685
     13          6           0       -7.356120    0.365186    0.072183
     14          1           0       -4.904098   -0.239812    0.098171
     15          1           0       -1.382516    1.858132    0.858570
     16          1           0       -1.387633    1.762298   -0.905417
     17          1           0       -0.649408   -0.625801   -0.773454
     18          1           0       -0.644313   -0.530438    0.981832
     19          1           0        1.134976    1.159120   -0.879077
     20          1           0        1.676085   -0.218513    0.077924
     21          1           0        1.140079    1.254878    0.883119
     22          1           0       -5.776032    3.371615   -0.095437
     23         17           0       -8.184342    4.781107   -0.165243
     24          6           0      -10.389955    2.627068   -0.042171
     25          1           0       -9.475200    0.093596    0.092834
     26          1           0       -7.150401   -0.698303    0.129347
     27          9           0      -11.234133    1.584850    0.016817
     28          9           0      -10.684412    3.422176    0.995047
     29          9           0      -10.690432    3.305206   -1.157773
 ---------------------------------------------------------------------
                    Distance matrix (angstroms):
                    1          2          3          4          5
     1  C    0.000000
     2  N    1.396995   0.000000
     3  C    2.487100   1.374086   0.000000
     4  O    2.945601   2.301856   1.202723   0.000000
     5  O    3.567684   2.209216   1.342730   2.256106   0.000000
     6  C    4.813133   3.538241   2.349304   2.661543   1.436599
     7  C    5.949033   4.578325   3.627378   4.144564   2.382237
     8  C    7.278804   5.950688   4.844961   5.083690   3.745777
     9  C    1.397122   2.456444   3.000345   2.877941   4.301029
    10  C    2.401615   3.703693   4.383405   4.219133   5.669839
    11  C    2.804435   4.199996   5.187911   5.284115   6.359098
    12  C    2.412496   3.664553   4.890458   5.301828   5.870798
    13  C    1.398773   2.389166   3.704726   4.320236   4.563670
    14  H    2.063579   1.009348   2.021420   3.142846   2.264447
    15  H    5.020660   3.866786   2.611992   2.615802   2.066125
    16  H    5.020634   3.866815   2.612002   2.615797   2.066120
    17  H    6.014288   4.640120   3.873708   4.535341   2.601905
    18  H    6.014312   4.640099   3.873704   4.535345   2.601912
    19  H    7.488681   6.217179   5.040305   5.123955   4.080388
    20  H    8.114339   6.748547   5.746343   6.095553   4.546889
    21  H    7.488687   6.217152   5.040287   5.123941   4.080382
    22  H    2.159717   2.724574   2.736162   2.198957   4.076947
    23  Cl   3.981612   5.130480   5.486598   4.965981   6.827564
    24  C    4.308076   5.703169   6.674140   6.693481   7.860710
    25  H    3.391429   4.524773   5.820852   6.323725   6.695743
    26  H    2.155978   2.601129   3.973425   4.819351   4.539937
    27  F    4.944971   6.287525   7.416814   7.613893   8.494458
    28  F    4.977839   6.346617   7.208886   7.108712   8.432662
    29  F    4.977833   6.346611   7.208830   7.108647   8.432581
                    6          7          8          9         10
     6  C    0.000000
     7  C    1.513248   0.000000
     8  C    2.503434   1.526310   0.000000
     9  C    5.296629   6.627698   7.798261   0.000000
    10  C    6.683544   8.010179   9.184507   1.387381   0.000000
    11  C    7.537050   8.740937  10.030431   2.431100   1.394634
    12  C    7.187649   8.221723   9.614946   2.784787   2.391420
    13  C    5.925575   6.885002   8.306962   2.415154   2.762591
    14  H    3.700191   4.435228   5.910927   3.338605   4.465074
    15  H    1.092678   2.170861   2.776549   5.330214   6.690004
    16  H    1.092678   2.170862   2.776548   5.330199   6.689956
    17  H    2.136186   1.093376   2.165434   6.806963   8.164495
    18  H    2.136187   1.093376   2.165434   6.806977   8.164536
    19  H    2.768708   2.176049   1.092675   7.894944   9.265594
    20  H    3.457121   2.171032   1.090618   8.734970  10.122012
    21  H    2.768694   2.176046   1.092674   7.894939   9.265614
    22  H    4.819890   6.255537   7.276749   1.079116   2.140727
    23  Cl   7.608396   9.045955  10.048971   2.675627   1.737054
    24  C    9.020987  10.241970  11.519062   3.815542   2.533898
    25  H    8.062013   8.996961  10.434933   3.867162   3.374415
    26  H    5.967048   6.714014   8.200762   3.399338   3.847290
    27  F    9.756108  10.864975  12.222197   4.779671   3.655562
    28  F    9.519074  10.788763  12.009759   4.311940   3.007207
    29  F    9.518973  10.788652  12.009632   4.311965   3.007245
                   11         12         13         14         15
    11  C    0.000000
    12  C    1.392099   0.000000
    13  C    2.414046   1.382335   0.000000
    14  H    4.716905   3.904737   2.525689   0.000000
    15  H    7.632633   7.401455   6.207353   4.169067   0.000000
    16  H    7.632554   7.401370   6.207290   4.169072   1.766596
    17  H    8.798115   8.184661   6.832067   4.360173   3.061188
    18  H    8.798185   8.184739   6.832127   4.360171   2.503079
    19  H   10.179462   9.850072   8.581021   6.275543   3.137801
    20  H   10.899124  10.391934   9.051047   6.580249   3.778479
    21  H   10.179509   9.850126   8.581058   6.275534   2.593840
    22  H    3.402413   3.863802   3.400498   3.720236   4.743812
    23  Cl   2.728189   4.006034   4.499187   6.003250   7.473742
    24  C    1.503726   2.507394   3.785940   6.191390   9.084963
    25  H    2.141796   1.082379   2.136514   4.583248   8.318142
    26  H    3.392681   2.138726   1.084711   2.292828   6.351033
    27  F    2.350267   2.683880   4.065665   6.588274   9.891289
    28  F    2.363176   3.434048   4.612417   6.901200   9.433458
    29  F    2.363178   3.434016   4.612390   6.901174   9.633118
                   16         17         18         19         20
    16  H    0.000000
    17  H    2.503080   0.000000
    18  H    3.061189   1.757882   0.000000
    19  H    2.593853   2.526089   3.079523   0.000000
    20  H    3.778484   2.509710   2.509700   1.762533   0.000000
    21  H    3.137781   3.079521   2.526095   1.764803   1.762533
    22  H    4.743840   6.536155   6.536136   7.298716   8.273640
    23  Cl   7.473708   9.294074   9.294102  10.023873  11.058180
    24  C    9.084867  10.295348  10.295434  11.648146  12.397623
    25  H    8.318042   8.897337   8.897433  10.707744  11.155662
    26  H    6.350968   6.563781   6.563847   8.550696   8.839666
    27  F    9.891187  10.841952  10.842048  12.408817  13.035704
    28  F    9.633123  10.964261  10.790130  12.179149  12.918111
    29  F    9.433256  10.789934  10.964241  12.021798  12.917983
                   21         22         23         24         25
    21  H    0.000000
    22  H    7.298681   0.000000
    23  Cl  10.023881   2.791325   0.000000
    24  C   11.648208   4.673913   3.085411   0.000000
    25  H   10.707814   4.946180   4.868848   2.696939   0.000000
    26  H    8.550740   4.301587   5.583883   4.645667   2.456243
    27  F   12.408888   5.744214   4.421587   1.342511   2.307263
    28  F   12.021992   5.028310   3.072998   1.339673   3.654534
    29  F   12.179084   5.028349   3.073091   1.339674   3.654482
                   26         27         28         29
    26  H    0.000000
    27  F    4.679992   0.000000
    28  F    5.497000   2.152881   0.000000
    29  F    5.496961   2.152881   2.156004   0.000000
 Stoichiometry    C11H11ClF3NO2
 Framework group  C1[X(C11H11ClF3NO2)]
 Deg. of freedom    81
 Full point group                 C1      NOp   1
 Largest Abelian subgroup         C1      NOp   1
 Largest concise Abelian subgroup C1      NOp   1
                         Standard orientation:                         
 ---------------------------------------------------------------------
 Center     Atomic      Atomic             Coordinates (Angstroms)
 Number     Number       Type             X           Y           Z
 ---------------------------------------------------------------------
      1          6           0       -0.217431   -0.719217   -0.000145
      2          7           0       -1.600966   -0.912676   -0.000225
      3          6           0       -2.583150    0.048274   -0.000081
      4          8           0       -2.417410    1.239522   -0.000008
      5          8           0       -3.781450   -0.557534   -0.000035
      6          6           0       -4.916295    0.323342    0.000056
      7          6           0       -6.163565   -0.533535    0.000071
      8          6           0       -7.419709    0.333484    0.000176
      9          6           0        0.375662    0.545769   -0.000138
     10          6           0        1.759535    0.644366   -0.000060
     11          6           0        2.577239   -0.485396    0.000002
     12          6           0        1.969480   -1.737820   -0.000017
     13          6           0        0.592523   -1.859630   -0.000091
     14          1           0       -1.933159   -1.865793   -0.000206
     15          1           0       -4.864189    0.964486   -0.883212
     16          1           0       -4.864106    0.964398    0.883384
     17          1           0       -6.148958   -1.183751    0.878978
     18          1           0       -6.149043   -1.183661   -0.878904
     19          1           0       -7.457929    0.976736    0.882618
     20          1           0       -8.319989   -0.282100    0.000174
     21          1           0       -7.457999    0.976844   -0.882184
     22          1           0       -0.227655    1.440475   -0.000184
     23         17           0        2.446813    2.239674   -0.000052
     24          6           0        4.077250   -0.379760    0.000091
     25          1           0        2.586405   -2.627172    0.000028
     26          1           0        0.139874   -2.845382   -0.000104
     27          9           0        4.649514   -1.594194    0.000085
     28          9           0        4.541378    0.266243   -1.077865
     29          9           0        4.541258    0.266177    1.078139
 ---------------------------------------------------------------------
 Rotational constants (GHZ):           1.1310639           0.1272999           0.1170104
 Standard basis: Aug-CC-pVTZ (5D, 7F)
 There are  1269 symmetry adapted cartesian basis functions of A   symmetry.
 There are  1085 symmetry adapted basis functions of A   symmetry.
  1085 basis functions,  1635 primitive gaussians,  1269 cartesian basis functions
    72 alpha electrons       72 beta electrons
       nuclear repulsion energy      1439.0340707599 Hartrees.
 NAtoms=   29 NActive=   29 NUniq=   29 SFac= 1.00D+00 NAtFMM=   60 NAOKFM=F Big=F
 Integral buffers will be    131072 words long.
 Regular integral format.
 Two-electron integral symmetry is turned on.
 Nuclear repulsion after empirical dispersion term =     1439.0121710808 Hartrees.
 One-electron integrals computed using PRISM.
 NBasis=  1085 RedAO= T EigKep=  1.00D-06  NBF=  1085
 NBsUse=  1082 1.00D-06 EigRej=  8.60D-07 NBFU=  1082
 ExpMin= 2.53D-02 ExpMax= 4.56D+05 ExpMxC= 1.44D+03 IAcc=3 IRadAn=         5 AccDes= 0.00D+00
 Harris functional with IExCor= 1004 and IRadAn=       5 diagonalized for initial guess.
 HarFok:  IExCor= 1004 AccDes= 0.00D+00 IRadAn=         5 IDoV= 1 UseB2=F ITyADJ=14
 ICtDFT=  3500011 ScaDFX=  1.000000  1.000000  1.000000  1.000000
 FoFCou: FMM=F IPFlag=           0 FMFlag=      100000 FMFlg1=           0
         NFxFlg=           0 DoJE=T BraDBF=F KetDBF=T FulRan=T
         wScrn=  0.000000 ICntrl=       500 IOpCl=  0 I1Cent=   200000004 NGrid=           0
         NMat0=    1 NMatS0=      1 NMatT0=    0 NMatD0=    1 NMtDS0=    0 NMtDT0=    0
 Petite list used in FoFCou.
 Requested convergence on RMS density matrix=1.00D-08 within 128 cycles.
 Requested convergence on MAX density matrix=1.00D-06.
 Requested convergence on             energy=1.00D-06.
 No special actions if energy rises.
 SCF Done:  E(RDSDPBEP86) =  -1387.61963590     A.U. after   14 cycles
            NFock= 14  Conv=0.30D-08     -V/T= 2.0025
 DoSCS=T DFT=T ScalE2(SS,OS)=  0.220000  0.520000
 ExpMin= 2.53D-02 ExpMax= 4.56D+05 ExpMxC= 1.44D+03 IAcc=3 IRadAn=         5 AccDes= 0.00D+00
 HarFok:  IExCor=  205 AccDes= 0.00D+00 IRadAn=         5 IDoV=-2 UseB2=F ITyADJ=14
 ICtDFT= 12500011 ScaDFX=  1.000000  1.000000  1.000000  1.000000
 GSVD:  LWork=        -660 too small for GESVD, short by        2750 words or        2750 for optimal perf.
 Range of M.O.s used for correlation:    23  1082
 NBasis=  1085 NAE=    72 NBE=    72 NFC=    22 NFV=     0
 NROrb=   1060 NOA=    50 NOB=    50 NVA=  1010 NVB=  1010

 **** Warning!!: The largest alpha MO coefficient is  0.10959067D+03

 DoSCS=T DFT=T ScalE2(SS,OS)=  0.220000  0.520000
 Fully direct method using O(OVN) memory.
 JobTyp=1 Pass  1:  I=   1 to  50 NPSUse=  6 ParTrn=T ParDer=T DoDerP=F.
 Spin components of T(2) and E(2):
     alpha-alpha T2 =       0.1741745108D+00 E2=     -0.1107613202D+00
     alpha-beta  T2 =       0.9007537980D+00 E2=     -0.1483888410D+01
     beta-beta   T2 =       0.1741745108D+00 E2=     -0.1107613202D+00
 E2(DSDPBEP86) =    -0.1705411050D+01 E(DSDPBEP86) =    -0.13893250469481D+04

 **********************************************************************

            Population analysis using the SCF Density.

 **********************************************************************

 Orbital symmetries:
       Occupied  (A) (A) (A) (A) (A) (A) (A) (A) (A) (A) (A) (A)
                 (A) (A) (A) (A) (A) (A) (A) (A) (A) (A) (A) (A)
                 (A) (A) (A) (A) (A) (A) (A) (A) (A) (A) (A) (A)
                 (A) (A) (A) (A) (A) (A) (A) (A) (A) (A) (A) (A)
                 (A) (A) (A) (A) (A) (A) (A) (A) (A) (A) (A) (A)
                 (A) (A) (A) (A) (A) (A) (A) (A) (A) (A) (A) (A)
       Virtual   (A) (A) (A) (A) (A) (A) (A) (A) (A) (A) (A) (A)
                 (A) (A) (A) (A) (A) (A) (A) (A) (A) (A) (A) (A)
                 (A) (A) (A) (A) (A) (A) (A) (A) (A) (A) (A) (A)
                 (A) (A) (A) (A) (A) (A) (A) (A) (A) (A) (A) (A)
                 (A) (A) (A) (A) (A) (A) (A) (A) (A) (A) (A) (A)
                 (A) (A) (A) (A) (A) (A) (A) (A) (A) (A) (A) (A)
                 (A) (A) (A) (A) (A) (A) (A) (A) (A) (A) (A) (A)
                 (A) (A) (A) (A) (A) (A) (A) (A) (A) (A) (A) (A)
                 (A) (A) (A) (A) (A) (A) (A) (A) (A) (A) (A) (A)
                 (A) (A) (A) (A) (A) (A) (A) (A) (A) (A) (A) (A)
                 (A) (A) (A) (A) (A) (A) (A) (A) (A) (A) (A) (A)
                 (A) (A) (A) (A) (A) (A) (A) (A) (A) (A) (A) (A)
                 (A) (A) (A) (A) (A) (A) (A) (A) (A) (A) (A) (A)
                 (A) (A) (A) (A) (A) (A) (A) (A) (A) (A) (A) (A)
                 (A) (A) (A) (A) (A) (A) (A) (A) (A) (A) (A) (A)
                 (A) (A) (A) (A) (A) (A) (A) (A) (A) (A) (A) (A)
                 (A) (A) (A) (A) (A) (A) (A) (A) (A) (A) (A) (A)
                 (A) (A) (A) (A) (A) (A) (A) (A) (A) (A) (A) (A)
                 (A) (A) (A) (A) (A) (A) (A) (A) (A) (A) (A) (A)
                 (A) (A) (A) (A) (A) (A) (A) (A) (A) (A) (A) (A)
                 (A) (A) (A) (A) (A) (A) (A) (A) (A) (A) (A) (A)
                 (A) (A) (A) (A) (A) (A) (A) (A) (A) (A) (A) (A)
                 (A) (A) (A) (A) (A) (A) (A) (A) (A) (A) (A) (A)
                 (A) (A) (A) (A) (A) (A) (A) (A) (A) (A) (A) (A)
                 (A) (A) (A) (A) (A) (A) (A) (A) (A) (A) (A) (A)
                 (A) (A) (A) (A) (A) (A) (A) (A) (A) (A) (A) (A)
                 (A) (A) (A) (A) (A) (A) (A) (A) (A) (A) (A) (A)
                 (A) (A) (A) (A) (A) (A) (A) (A) (A) (A) (A) (A)
                 (A) (A) (A) (A) (A) (A) (A) (A) (A) (A) (A) (A)
                 (A) (A) (A) (A) (A) (A) (A) (A) (A) (A) (A) (A)
                 (A) (A) (A) (A) (A) (A) (A) (A) (A) (A) (A) (A)
                 (A) (A) (A) (A) (A) (A) (A) (A) (A) (A) (A) (A)
                 (A) (A) (A) (A) (A) (A) (A) (A) (A) (A) (A) (A)
                 (A) (A) (A) (A) (A) (A) (A) (A) (A) (A) (A) (A)
                 (A) (A) (A) (A) (A) (A) (A) (A) (A) (A) (A) (A)
                 (A) (A) (A) (A) (A) (A) (A) (A) (A) (A) (A) (A)
                 (A) (A) (A) (A) (A) (A) (A) (A) (A) (A) (A) (A)
                 (A) (A) (A) (A) (A) (A) (A) (A) (A) (A) (A) (A)
                 (A) (A) (A) (A) (A) (A) (A) (A) (A) (A) (A) (A)
                 (A) (A) (A) (A) (A) (A) (A) (A) (A) (A) (A) (A)
                 (A) (A) (A) (A) (A) (A) (A) (A) (A) (A) (A) (A)
                 (A) (A) (A) (A) (A) (A) (A) (A) (A) (A) (A) (A)
                 (A) (A) (A) (A) (A) (A) (A) (A) (A) (A) (A) (A)
                 (A) (A) (A) (A) (A) (A) (A) (A) (A) (A) (A) (A)
                 (A) (A) (A) (A) (A) (A) (A) (A) (A) (A) (A) (A)
                 (A) (A) (A) (A) (A) (A) (A) (A) (A) (A) (A) (A)
                 (A) (A) (A) (A) (A) (A) (A) (A) (A) (A) (A) (A)
                 (A) (A) (A) (A) (A) (A) (A) (A) (A) (A) (A) (A)
                 (A) (A) (A) (A) (A) (A) (A) (A) (A) (A) (A) (A)
                 (A) (A) (A) (A) (A) (A) (A) (A) (A) (A) (A) (A)
                 (A) (A) (A) (A) (A) (A) (A) (A) (A) (A) (A) (A)
                 (A) (A) (A) (A) (A) (A) (A) (A) (A) (A) (A) (A)
                 (A) (A) (A) (A) (A) (A) (A) (A) (A) (A) (A) (A)
                 (A) (A) (A) (A) (A) (A) (A) (A) (A) (A) (A) (A)
                 (A) (A) (A) (A) (A) (A) (A) (A) (A) (A) (A) (A)
                 (A) (A) (A) (A) (A) (A) (A) (A) (A) (A) (A) (A)
                 (A) (A) (A) (A) (A) (A) (A) (A) (A) (A) (A) (A)
                 (A) (A) (A) (A) (A) (A) (A) (A) (A) (A) (A) (A)
                 (A) (A) (A) (A) (A) (A) (A) (A) (A) (A) (A) (A)
                 (A) (A) (A) (A) (A) (A) (A) (A) (A) (A) (A) (A)
                 (A) (A) (A) (A) (A) (A) (A) (A) (A) (A) (A) (A)
                 (A) (A) (A) (A) (A) (A) (A) (A) (A) (A) (A) (A)
                 (A) (A) (A) (A) (A) (A) (A) (A) (A) (A) (A) (A)
                 (A) (A) (A) (A) (A) (A) (A) (A) (A) (A) (A) (A)
                 (A) (A) (A) (A) (A) (A) (A) (A) (A) (A) (A) (A)
                 (A) (A) (A) (A) (A) (A) (A) (A) (A) (A) (A) (A)
                 (A) (A) (A) (A) (A) (A) (A) (A) (A) (A) (A) (A)
                 (A) (A) (A) (A) (A) (A) (A) (A) (A) (A) (A) (A)
                 (A) (A) (A) (A) (A) (A) (A) (A) (A) (A) (A) (A)
                 (A) (A) (A) (A) (A) (A) (A) (A) (A) (A) (A) (A)
                 (A) (A) (A) (A) (A) (A) (A) (A) (A) (A) (A) (A)
                 (A) (A) (A) (A) (A) (A) (A) (A) (A) (A) (A) (A)
                 (A) (A) (A) (A) (A) (A) (A) (A) (A) (A) (A) (A)
                 (A) (A) (A) (A) (A) (A) (A) (A) (A) (A) (A) (A)
                 (A) (A) (A) (A) (A) (A) (A) (A) (A) (A) (A) (A)
                 (A) (A) (A) (A) (A) (A) (A) (A) (A) (A) (A) (A)
                 (A) (A) (A) (A) (A) (A) (A) (A) (A) (A) (A) (A)
                 (A) (A) (A) (A) (A) (A) (A) (A) (A) (A) (A) (A)
                 (A) (A) (A) (A) (A) (A) (A) (A) (A) (A) (A) (A)
                 (A) (A) (A) (A) (A) (A) (A) (A) (A) (A) (A) (A)
                 (A) (A) (A) (A) (A) (A) (A) (A) (A) (A) (A) (A)
                 (A) (A) (A) (A) (A) (A) (A) (A) (A) (A) (A) (A)
                 (A) (A) (A) (A) (A) (A) (A) (A) (A) (A) (A) (A)
                 (A) (A) (A) (A) (A) (A) (A) (A) (A) (A) (A) (A)
                 (A) (A)
 The electronic state is 1-A.
 Alpha  occ. eigenvalues -- -103.57781 -25.71015 -25.70415 -25.70414 -20.06648
 Alpha  occ. eigenvalues --  -19.99990 -15.14494 -11.08667 -11.00297 -10.91347
 Alpha  occ. eigenvalues --  -10.90770 -10.88567 -10.86063 -10.85878 -10.84814
 Alpha  occ. eigenvalues --  -10.84279 -10.82922 -10.81929 -10.15288  -7.72974
 Alpha  occ. eigenvalues --   -7.72491  -7.72467  -1.57349  -1.47980  -1.47614
 Alpha  occ. eigenvalues --   -1.35833  -1.25564  -1.17312  -1.09876  -1.03079
 Alpha  occ. eigenvalues --   -0.98773  -0.96752  -0.92684  -0.88786  -0.85683
 Alpha  occ. eigenvalues --   -0.80530  -0.78297  -0.75460  -0.74043  -0.73449
 Alpha  occ. eigenvalues --   -0.72916  -0.71879  -0.69281  -0.66274  -0.64066
 Alpha  occ. eigenvalues --   -0.62195  -0.61847  -0.61274  -0.59485  -0.58795
 Alpha  occ. eigenvalues --   -0.58155  -0.57407  -0.57207  -0.56173  -0.55475
 Alpha  occ. eigenvalues --   -0.54811  -0.54534  -0.53126  -0.50440  -0.50343
 Alpha  occ. eigenvalues --   -0.49233  -0.47790  -0.47557  -0.46070  -0.44867
 Alpha  occ. eigenvalues --   -0.44482  -0.42080  -0.41297  -0.41172  -0.40996
 Alpha  occ. eigenvalues --   -0.32954  -0.30974
 Alpha virt. eigenvalues --    0.00772   0.01490   0.02582   0.02590   0.02931
 Alpha virt. eigenvalues --    0.03094   0.03605   0.03802   0.04607   0.05005
 Alpha virt. eigenvalues --    0.05369   0.05531   0.05973   0.06665   0.06732
 Alpha virt. eigenvalues --    0.07097   0.07421   0.08392   0.08768   0.08831
 Alpha virt. eigenvalues --    0.09445   0.09746   0.10005   0.10065   0.10347
 Alpha virt. eigenvalues --    0.10715   0.11072   0.11301   0.11590   0.11943
 Alpha virt. eigenvalues --    0.12362   0.12431   0.12799   0.13227   0.13386
 Alpha virt. eigenvalues --    0.13484   0.14169   0.14590   0.14628   0.14746
 Alpha virt. eigenvalues --    0.15228   0.15844   0.16116   0.16193   0.16736
 Alpha virt. eigenvalues --    0.17002   0.17713   0.17863   0.18320   0.18590
 Alpha virt. eigenvalues --    0.18731   0.19058   0.19218   0.19620   0.20058
 Alpha virt. eigenvalues --    0.20248   0.20496   0.20821   0.21292   0.21460
 Alpha virt. eigenvalues --    0.21775   0.22267   0.23085   0.23461   0.23568
 Alpha virt. eigenvalues --    0.23976   0.24183   0.24336   0.24702   0.25027
 Alpha virt. eigenvalues --    0.25376   0.25694   0.26001   0.26503   0.26710
 Alpha virt. eigenvalues --    0.27019   0.27181   0.27999   0.28151   0.28209
 Alpha virt. eigenvalues --    0.28575   0.28806   0.29263   0.29510   0.29917
 Alpha virt. eigenvalues --    0.30130   0.30345   0.30967   0.31204   0.31397
 Alpha virt. eigenvalues --    0.31472   0.31935   0.32123   0.32220   0.32509
 Alpha virt. eigenvalues --    0.32690   0.32997   0.33466   0.34049   0.34502
 Alpha virt. eigenvalues --    0.34715   0.34757   0.34985   0.35529   0.35629
 Alpha virt. eigenvalues --    0.35801   0.36285   0.36639   0.36737   0.37015
 Alpha virt. eigenvalues --    0.37105   0.37347   0.37576   0.38140   0.38443
 Alpha virt. eigenvalues --    0.38642   0.39063   0.39390   0.39522   0.39618
 Alpha virt. eigenvalues --    0.40159   0.40562   0.40697   0.41612   0.41773
 Alpha virt. eigenvalues --    0.42255   0.42338   0.42805   0.42930   0.43078
 Alpha virt. eigenvalues --    0.43297   0.43431   0.44274   0.44363   0.44719
 Alpha virt. eigenvalues --    0.44807   0.45041   0.45264   0.45677   0.46140
 Alpha virt. eigenvalues --    0.46402   0.46416   0.47319   0.47348   0.47665
 Alpha virt. eigenvalues --    0.47767   0.47994   0.48389   0.48689   0.48802
 Alpha virt. eigenvalues --    0.48812   0.49343   0.49813   0.49931   0.49998
 Alpha virt. eigenvalues --    0.50579   0.50608   0.51366   0.51589   0.51760
 Alpha virt. eigenvalues --    0.51948   0.52038   0.52541   0.53175   0.53941
 Alpha virt. eigenvalues --    0.54428   0.54704   0.55007   0.55663   0.56063
 Alpha virt. eigenvalues --    0.56117   0.57200   0.57618   0.58845   0.58975
 Alpha virt. eigenvalues --    0.59344   0.59531   0.59797   0.60088   0.60921
 Alpha virt. eigenvalues --    0.61346   0.62033   0.62344   0.62435   0.63035
 Alpha virt. eigenvalues --    0.63066   0.63817   0.64037   0.64775   0.65250
 Alpha virt. eigenvalues --    0.66076   0.66093   0.66179   0.67214   0.67326
 Alpha virt. eigenvalues --    0.68060   0.68603   0.69275   0.69682   0.70437
 Alpha virt. eigenvalues --    0.70821   0.71392   0.71410   0.71692   0.72716
 Alpha virt. eigenvalues --    0.72902   0.73422   0.74123   0.74429   0.75051
 Alpha virt. eigenvalues --    0.75621   0.75977   0.76486   0.76555   0.76868
 Alpha virt. eigenvalues --    0.77675   0.77928   0.78747   0.79014   0.79054
 Alpha virt. eigenvalues --    0.79867   0.79996   0.80471   0.80902   0.80933
 Alpha virt. eigenvalues --    0.81213   0.81667   0.81781   0.83088   0.83459
 Alpha virt. eigenvalues --    0.83667   0.83959   0.84406   0.84562   0.85139
 Alpha virt. eigenvalues --    0.85419   0.85690   0.85865   0.86378   0.86529
 Alpha virt. eigenvalues --    0.86815   0.87159   0.87349   0.87569   0.87955
 Alpha virt. eigenvalues --    0.88181   0.88701   0.88785   0.89357   0.89515
 Alpha virt. eigenvalues --    0.90032   0.90367   0.91458   0.91556   0.91629
 Alpha virt. eigenvalues --    0.91678   0.92138   0.92897   0.93311   0.93566
 Alpha virt. eigenvalues --    0.93901   0.93989   0.95669   0.96364   0.96553
 Alpha virt. eigenvalues --    0.97175   0.97311   0.97372   0.98017   0.98516
 Alpha virt. eigenvalues --    0.98762   0.99398   0.99616   0.99886   1.00345
 Alpha virt. eigenvalues --    1.00700   1.01139   1.01441   1.01603   1.02144
 Alpha virt. eigenvalues --    1.02399   1.02777   1.02898   1.03557   1.03773
 Alpha virt. eigenvalues --    1.04450   1.05133   1.05200   1.05953   1.06048
 Alpha virt. eigenvalues --    1.06305   1.06721   1.07329   1.07647   1.07844
 Alpha virt. eigenvalues --    1.07876   1.08512   1.08941   1.09129   1.09664
 Alpha virt. eigenvalues --    1.09903   1.10433   1.11303   1.11359   1.11993
 Alpha virt. eigenvalues --    1.12054   1.12766   1.12981   1.13026   1.14189
 Alpha virt. eigenvalues --    1.14555   1.14764   1.15101   1.15438   1.15453
 Alpha virt. eigenvalues --    1.15634   1.16619   1.17292   1.17476   1.17947
 Alpha virt. eigenvalues --    1.18122   1.18703   1.18928   1.19052   1.19355
 Alpha virt. eigenvalues --    1.19720   1.20278   1.20458   1.21265   1.22317
 Alpha virt. eigenvalues --    1.22488   1.22948   1.23375   1.24475   1.24832
 Alpha virt. eigenvalues --    1.25037   1.25665   1.26776   1.27153   1.27483
 Alpha virt. eigenvalues --    1.27907   1.27917   1.28195   1.28935   1.30140
 Alpha virt. eigenvalues --    1.30449   1.30494   1.31413   1.31848   1.32267
 Alpha virt. eigenvalues --    1.32680   1.33086   1.33240   1.33798   1.34391
 Alpha virt. eigenvalues --    1.34475   1.34890   1.36026   1.36284   1.36851
 Alpha virt. eigenvalues --    1.37334   1.37823   1.38642   1.39600   1.39842
 Alpha virt. eigenvalues --    1.40382   1.40628   1.41931   1.42040   1.42751
 Alpha virt. eigenvalues --    1.43625   1.43798   1.44337   1.44902   1.45921
 Alpha virt. eigenvalues --    1.45942   1.46905   1.47627   1.48480   1.48760
 Alpha virt. eigenvalues --    1.49043   1.49271   1.50415   1.50709   1.51176
 Alpha virt. eigenvalues --    1.51712   1.51856   1.52249   1.52871   1.53588
 Alpha virt. eigenvalues --    1.54221   1.54727   1.55310   1.55331   1.56027
 Alpha virt. eigenvalues --    1.56256   1.57238   1.57942   1.58478   1.58865
 Alpha virt. eigenvalues --    1.59253   1.60000   1.60364   1.60683   1.61043
 Alpha virt. eigenvalues --    1.61569   1.62088   1.62185   1.63122   1.63290
 Alpha virt. eigenvalues --    1.63634   1.63673   1.65889   1.65995   1.66184
 Alpha virt. eigenvalues --    1.66466   1.67729   1.67752   1.68062   1.68383
 Alpha virt. eigenvalues --    1.68581   1.69027   1.69574   1.70084   1.70585
 Alpha virt. eigenvalues --    1.71160   1.71437   1.72422   1.72718   1.73216
 Alpha virt. eigenvalues --    1.73631   1.74809   1.74958   1.75708   1.75759
 Alpha virt. eigenvalues --    1.76333   1.76612   1.77169   1.78414   1.79084
 Alpha virt. eigenvalues --    1.79728   1.80082   1.80572   1.81178   1.81929
 Alpha virt. eigenvalues --    1.82893   1.83527   1.83789   1.85020   1.85246
 Alpha virt. eigenvalues --    1.85900   1.86040   1.86766   1.86983   1.87379
 Alpha virt. eigenvalues --    1.87417   1.88416   1.90215   1.90294   1.90894
 Alpha virt. eigenvalues --    1.91469   1.92062   1.92267   1.93203   1.93371
 Alpha virt. eigenvalues --    1.94045   1.95188   1.95283   1.95793   1.97019
 Alpha virt. eigenvalues --    1.97994   1.98166   1.98771   1.99527   1.99626
 Alpha virt. eigenvalues --    2.00120   2.00554   2.01550   2.01864   2.02960
 Alpha virt. eigenvalues --    2.03389   2.03634   2.05141   2.05765   2.06350
 Alpha virt. eigenvalues --    2.07885   2.08281   2.09414   2.10259   2.10875
 Alpha virt. eigenvalues --    2.11336   2.12238   2.12286   2.14009   2.14682
 Alpha virt. eigenvalues --    2.15026   2.15376   2.15782   2.16217   2.17096
 Alpha virt. eigenvalues --    2.18864   2.20302   2.20712   2.21649   2.21767
 Alpha virt. eigenvalues --    2.22096   2.23358   2.24099   2.25430   2.26523
 Alpha virt. eigenvalues --    2.27500   2.28538   2.29323   2.30290   2.30752
 Alpha virt. eigenvalues --    2.31475   2.31880   2.32577   2.32957   2.34275
 Alpha virt. eigenvalues --    2.34402   2.34801   2.35606   2.36156   2.38470
 Alpha virt. eigenvalues --    2.39097   2.40077   2.41267   2.42657   2.43167
 Alpha virt. eigenvalues --    2.45760   2.47356   2.47824   2.48345   2.48390
 Alpha virt. eigenvalues --    2.49919   2.50278   2.51032   2.51671   2.52403
 Alpha virt. eigenvalues --    2.53509   2.54536   2.55033   2.56765   2.56906
 Alpha virt. eigenvalues --    2.58163   2.58312   2.59783   2.61999   2.62416
 Alpha virt. eigenvalues --    2.63451   2.63914   2.64334   2.65067   2.68079
 Alpha virt. eigenvalues --    2.69455   2.70499   2.71015   2.71227   2.72127
 Alpha virt. eigenvalues --    2.73438   2.73765   2.74598   2.75233   2.76668
 Alpha virt. eigenvalues --    2.77479   2.77917   2.79447   2.79668   2.80599
 Alpha virt. eigenvalues --    2.82673   2.83262   2.83584   2.85649   2.88250
 Alpha virt. eigenvalues --    2.88266   2.89012   2.89741   2.90990   2.92821
 Alpha virt. eigenvalues --    2.94834   2.94932   2.96007   2.96244   2.96505
 Alpha virt. eigenvalues --    2.96743   2.97610   2.99230   3.00102   3.00580
 Alpha virt. eigenvalues --    3.00966   3.02120   3.02220   3.03680   3.04801
 Alpha virt. eigenvalues --    3.04924   3.05420   3.06405   3.08130   3.10063
 Alpha virt. eigenvalues --    3.10458   3.10465   3.11867   3.13520   3.14299
 Alpha virt. eigenvalues --    3.14449   3.15175   3.15959   3.16617   3.17893
 Alpha virt. eigenvalues --    3.18556   3.19464   3.19830   3.20723   3.21136
 Alpha virt. eigenvalues --    3.21308   3.23786   3.24547   3.25211   3.25996
 Alpha virt. eigenvalues --    3.26915   3.27178   3.28391   3.29656   3.29701
 Alpha virt. eigenvalues --    3.30620   3.31262   3.31805   3.32987   3.33050
 Alpha virt. eigenvalues --    3.34490   3.35143   3.35594   3.36237   3.36555
 Alpha virt. eigenvalues --    3.37329   3.38152   3.38640   3.40198   3.41673
 Alpha virt. eigenvalues --    3.41820   3.42221   3.43610   3.43808   3.44150
 Alpha virt. eigenvalues --    3.45142   3.46394   3.46649   3.47301   3.48017
 Alpha virt. eigenvalues --    3.48983   3.49003   3.49549   3.50694   3.51194
 Alpha virt. eigenvalues --    3.52052   3.52149   3.54570   3.56010   3.56520
 Alpha virt. eigenvalues --    3.56680   3.57850   3.57901   3.59040   3.60043
 Alpha virt. eigenvalues --    3.60191   3.60340   3.61240   3.61655   3.62256
 Alpha virt. eigenvalues --    3.62526   3.63700   3.63907   3.64256   3.64837
 Alpha virt. eigenvalues --    3.65644   3.66893   3.67999   3.68897   3.69443
 Alpha virt. eigenvalues --    3.70346   3.70591   3.71676   3.71815   3.72898
 Alpha virt. eigenvalues --    3.73290   3.73879   3.74224   3.74968   3.75642
 Alpha virt. eigenvalues --    3.76018   3.77461   3.78652   3.78876   3.79299
 Alpha virt. eigenvalues --    3.79918   3.80859   3.81398   3.81936   3.82284
 Alpha virt. eigenvalues --    3.83239   3.83285   3.84200   3.84985   3.85779
 Alpha virt. eigenvalues --    3.86414   3.86643   3.87351   3.88046   3.88862
 Alpha virt. eigenvalues --    3.90109   3.91196   3.91647   3.92406   3.92986
 Alpha virt. eigenvalues --    3.93348   3.94567   3.95483   3.97375   3.98022
 Alpha virt. eigenvalues --    3.98299   3.99087   3.99793   4.00902   4.00978
 Alpha virt. eigenvalues --    4.02515   4.03857   4.04298   4.05949   4.06402
 Alpha virt. eigenvalues --    4.06639   4.07570   4.08506   4.08800   4.08937
 Alpha virt. eigenvalues --    4.10012   4.10784   4.11209   4.11363   4.12465
 Alpha virt. eigenvalues --    4.12803   4.13551   4.14744   4.15946   4.16354
 Alpha virt. eigenvalues --    4.17346   4.17673   4.18245   4.18644   4.21039
 Alpha virt. eigenvalues --    4.21087   4.22282   4.22471   4.24564   4.25525
 Alpha virt. eigenvalues --    4.25693   4.26034   4.27715   4.28712   4.29293
 Alpha virt. eigenvalues --    4.29741   4.31006   4.31475   4.32035   4.32979
 Alpha virt. eigenvalues --    4.33718   4.34956   4.35087   4.37043   4.38145
 Alpha virt. eigenvalues --    4.38696   4.38753   4.41992   4.42941   4.43877
 Alpha virt. eigenvalues --    4.44826   4.45354   4.46508   4.46788   4.47335
 Alpha virt. eigenvalues --    4.48220   4.49902   4.50210   4.50965   4.51022
 Alpha virt. eigenvalues --    4.53141   4.53655   4.55053   4.56444   4.56683
 Alpha virt. eigenvalues --    4.57876   4.58344   4.60073   4.60530   4.61678
 Alpha virt. eigenvalues --    4.62473   4.63631   4.65552   4.66408   4.66482
 Alpha virt. eigenvalues --    4.67826   4.70042   4.70308   4.70447   4.72158
 Alpha virt. eigenvalues --    4.73547   4.75362   4.75883   4.76357   4.77371
 Alpha virt. eigenvalues --    4.78404   4.80052   4.80977   4.81558   4.81826
 Alpha virt. eigenvalues --    4.83599   4.83990   4.84976   4.86533   4.87078
 Alpha virt. eigenvalues --    4.88558   4.88860   4.90390   4.92543   4.93117
 Alpha virt. eigenvalues --    4.93887   4.95220   4.96287   4.96989   4.97755
 Alpha virt. eigenvalues --    4.99436   4.99714   4.99847   5.01533   5.01718
 Alpha virt. eigenvalues --    5.04839   5.05125   5.06359   5.07382   5.08951
 Alpha virt. eigenvalues --    5.09223   5.10350   5.11906   5.12072   5.12626
 Alpha virt. eigenvalues --    5.15106   5.16614   5.16824   5.18745   5.19088
 Alpha virt. eigenvalues --    5.20240   5.21973   5.23155   5.23336   5.23958
 Alpha virt. eigenvalues --    5.24702   5.27764   5.29438   5.32682   5.36456
 Alpha virt. eigenvalues --    5.36826   5.38006   5.39236   5.41109   5.44234
 Alpha virt. eigenvalues --    5.44630   5.45173   5.45365   5.46163   5.47832
 Alpha virt. eigenvalues --    5.49574   5.51868   5.53682   5.55362   5.57020
 Alpha virt. eigenvalues --    5.58075   5.59016   5.60098   5.62193   5.64752
 Alpha virt. eigenvalues --    5.65056   5.67231   5.69940   5.71879   5.73168
 Alpha virt. eigenvalues --    5.73648   5.76764   5.78537   5.81424   5.82355
 Alpha virt. eigenvalues --    5.84257   5.84978   5.87548   5.89091   5.92340
 Alpha virt. eigenvalues --    5.93864   5.95875   5.98313   5.98485   6.00875
 Alpha virt. eigenvalues --    6.01833   6.02405   6.04801   6.09688   6.10143
 Alpha virt. eigenvalues --    6.13925   6.16615   6.19034   6.22732   6.25467
 Alpha virt. eigenvalues --    6.27334   6.32401   6.33610   6.37621   6.44489
 Alpha virt. eigenvalues --    6.52129   6.53696   6.56553   6.56983   6.60718
 Alpha virt. eigenvalues --    6.65086   6.67038   6.67928   6.72052   6.74430
 Alpha virt. eigenvalues --    6.76299   6.77680   6.79842   6.83569   6.84445
 Alpha virt. eigenvalues --    6.87346   6.96281   6.98160   7.00152   7.01747
 Alpha virt. eigenvalues --    7.07093   7.10757   7.14162   7.15482   7.19320
 Alpha virt. eigenvalues --    7.20894   7.26863   7.28019   7.35319   7.41259
 Alpha virt. eigenvalues --    7.45902   7.47398   7.51270   7.62860   7.70407
 Alpha virt. eigenvalues --    7.72119   7.81371   7.90955   8.06577   8.20417
 Alpha virt. eigenvalues --    8.42929   8.54012   8.72663   8.75234   8.77205
 Alpha virt. eigenvalues --    8.80596   8.82423   8.87010   8.96371   8.97486
 Alpha virt. eigenvalues --    9.08816   9.11629   9.13294   9.13337   9.14112
 Alpha virt. eigenvalues --    9.17251   9.19017   9.20550   9.22758   9.24325
 Alpha virt. eigenvalues --    9.27813   9.29083   9.29474   9.31927   9.34736
 Alpha virt. eigenvalues --    9.37749   9.38279   9.39267   9.46812   9.48193
 Alpha virt. eigenvalues --    9.50321   9.51813   9.59513   9.70950   9.72535
 Alpha virt. eigenvalues --    9.78590   9.92786   9.99796  15.24775  15.73375
 Alpha virt. eigenvalues --   16.00408  16.05723  16.22469  16.42722  16.79078
 Alpha virt. eigenvalues --   17.33758  17.55916  18.03413  18.28755  18.64347
 Alpha virt. eigenvalues --   19.52951  20.12947  20.50528  20.72756  21.20034
          Condensed to atoms (all electrons):
               1          2          3          4          5          6
     1  C    8.504833   0.168651  -0.657038   0.097888  -0.046768  -0.000752
     2  N    0.168651   8.176362   0.616047  -0.177992  -0.358244  -0.075322
     3  C   -0.657038   0.616047   5.773598   0.330875   0.355937  -0.113527
     4  O    0.097888  -0.177992   0.330875   8.808389  -0.069372   0.009042
     5  O   -0.046768  -0.358244   0.355937  -0.069372   8.668609   0.228875
     6  C   -0.000752  -0.075322  -0.113527   0.009042   0.228875   5.528565
     7  C   -0.017115  -0.018554   0.051863  -0.015161  -0.108258   0.065185
     8  C   -0.000677  -0.002588   0.001480  -0.006019   0.000830  -0.035003
     9  C   -0.795418  -0.789732  -0.283705  -0.135349  -0.069017  -0.039330
    10  C   -0.244907   0.069841  -0.029596   0.020562  -0.008763  -0.010961
    11  C   -0.115307  -0.037342   0.008524  -0.004135   0.006112   0.000716
    12  C   -0.123837   0.414493   0.112210  -0.002170   0.029248   0.002268
    13  C   -0.707887  -0.768319  -0.157030   0.009381  -0.094462  -0.020541
    14  H    0.028723   0.222552  -0.151426   0.016726   0.074124  -0.008095
    15  H   -0.007211   0.017769  -0.022188  -0.004644  -0.035536   0.308063
    16  H   -0.007204   0.017736  -0.022196  -0.004655  -0.035510   0.308086
    17  H   -0.000918  -0.006980  -0.001150   0.005239  -0.029067   0.046769
    18  H   -0.000917  -0.006987  -0.001149   0.005237  -0.029064   0.046767
    19  H    0.000397  -0.000442   0.003004   0.000035  -0.000013  -0.003566
    20  H   -0.000144  -0.000681   0.001883  -0.000438  -0.000381  -0.009269
    21  H    0.000397  -0.000442   0.003004   0.000035  -0.000015  -0.003565
    22  H   -0.342145  -0.059763  -0.019472  -0.105268   0.012831  -0.013385
    23  Cl   0.032306  -0.002954   0.012365  -0.008265   0.000505  -0.000513
    24  C    0.007302  -0.010174   0.003461  -0.000549   0.000488   0.000124
    25  H   -0.181009   0.131580   0.026516   0.000767   0.003346   0.001059
    26  H   -0.455698  -0.376830  -0.188347  -0.001110  -0.055841  -0.009887
    27  F   -0.017157   0.001063   0.000263  -0.000002   0.000017   0.000005
    28  F   -0.001543  -0.002410  -0.000169  -0.000035  -0.000024  -0.000018
    29  F   -0.001550  -0.002416  -0.000170  -0.000035  -0.000024  -0.000018
               7          8          9         10         11         12
     1  C   -0.017115  -0.000677  -0.795418  -0.244907  -0.115307  -0.123837
     2  N   -0.018554  -0.002588  -0.789732   0.069841  -0.037342   0.414493
     3  C    0.051863   0.001480  -0.283705  -0.029596   0.008524   0.112210
     4  O   -0.015161  -0.006019  -0.135349   0.020562  -0.004135  -0.002170
     5  O   -0.108258   0.000830  -0.069017  -0.008763   0.006112   0.029248
     6  C    0.065185  -0.035003  -0.039330  -0.010961   0.000716   0.002268
     7  C    5.518777   0.121194  -0.006966   0.000766  -0.000608   0.001333
     8  C    0.121194   5.797970  -0.001714  -0.000039  -0.000044   0.000119
     9  C   -0.006966  -0.001714   9.238107  -0.364992   0.098726  -0.504444
    10  C    0.000766  -0.000039  -0.364992   7.106978  -0.865899   0.504886
    11  C   -0.000608  -0.000044   0.098726  -0.865899   8.425982  -1.166163
    12  C    0.001333   0.000119  -0.504444   0.504886  -1.166163   9.751927
    13  C    0.002889  -0.000046   0.264928  -0.164676   0.253805  -1.162377
    14  H    0.002924   0.000141   0.044743  -0.000572  -0.004118  -0.051384
    15  H    0.011216  -0.004075   0.002589  -0.000117  -0.000164  -0.000001
    16  H    0.011232  -0.004075   0.002585  -0.000116  -0.000163  -0.000001
    17  H    0.403568  -0.041101  -0.000001  -0.000053   0.000005   0.000092
    18  H    0.403589  -0.041095  -0.000002  -0.000053   0.000005   0.000092
    19  H    0.037426   0.362717  -0.000027   0.000023   0.000006  -0.000016
    20  H   -0.028035   0.451646  -0.000129  -0.000006  -0.000010   0.000036
    21  H    0.037428   0.362710  -0.000028   0.000023   0.000006  -0.000016
    22  H   -0.000433  -0.000114   0.011217  -0.208040   0.026068   0.032654
    23  Cl  -0.000011  -0.000006  -0.082946  -0.229705  -0.016170   0.043468
    24  C    0.000004   0.000002   0.008432  -0.434699  -0.363319  -0.587323
    25  H    0.000058   0.000007   0.035039   0.038557  -0.597292   1.266243
    26  H   -0.001052  -0.000108   0.233017  -0.015453  -0.004762  -1.743049
    27  F   -0.000000   0.000000  -0.007653   0.015806  -0.035690  -0.044927
    28  F   -0.000000  -0.000000  -0.008616  -0.040562   0.105797  -0.054124
    29  F   -0.000000  -0.000000  -0.008609  -0.040595   0.105805  -0.054113
              13         14         15         16         17         18
     1  C   -0.707887   0.028723  -0.007211  -0.007204  -0.000918  -0.000917
     2  N   -0.768319   0.222552   0.017769   0.017736  -0.006980  -0.006987
     3  C   -0.157030  -0.151426  -0.022188  -0.022196  -0.001150  -0.001149
     4  O    0.009381   0.016726  -0.004644  -0.004655   0.005239   0.005237
     5  O   -0.094462   0.074124  -0.035536  -0.035510  -0.029067  -0.029064
     6  C   -0.020541  -0.008095   0.308063   0.308086   0.046769   0.046767
     7  C    0.002889   0.002924   0.011216   0.011232   0.403568   0.403589
     8  C   -0.000046   0.000141  -0.004075  -0.004075  -0.041101  -0.041095
     9  C    0.264928   0.044743   0.002589   0.002585  -0.000001  -0.000002
    10  C   -0.164676  -0.000572  -0.000117  -0.000116  -0.000053  -0.000053
    11  C    0.253805  -0.004118  -0.000164  -0.000163   0.000005   0.000005
    12  C   -1.162377  -0.051384  -0.000001  -0.000001   0.000092   0.000092
    13  C    9.061204   0.042009   0.000841   0.000839  -0.000131  -0.000131
    14  H    0.042009   0.787777  -0.001444  -0.001441  -0.000468  -0.000467
    15  H    0.000841  -0.001444   0.409903   0.011109   0.017795  -0.018864
    16  H    0.000839  -0.001441   0.011109   0.409892  -0.018863   0.017794
    17  H   -0.000131  -0.000468   0.017795  -0.018863   0.404464   0.008202
    18  H   -0.000131  -0.000467  -0.018864   0.017794   0.008202   0.404459
    19  H   -0.000019   0.000137  -0.007522  -0.008951   0.000824   0.000634
    20  H   -0.000002  -0.000008   0.000209   0.000209  -0.002085  -0.002084
    21  H   -0.000020   0.000137  -0.008952  -0.007522   0.000634   0.000825
    22  H   -0.012732  -0.003546  -0.001322  -0.001320  -0.000132  -0.000132
    23  Cl   0.006782  -0.000100   0.000082   0.000082  -0.000002  -0.000002
    24  C    0.153504  -0.000458   0.000013   0.000013  -0.000001  -0.000001
    25  H   -1.372889  -0.005961   0.000019   0.000018   0.000012   0.000012
    26  H    1.213665   0.016127  -0.000094  -0.000094  -0.000109  -0.000109
    27  F   -0.002474   0.000082   0.000001   0.000001  -0.000000  -0.000000
    28  F    0.013703  -0.000066  -0.000001   0.000000  -0.000000   0.000000
    29  F    0.013717  -0.000066   0.000000  -0.000001   0.000000  -0.000000
              19         20         21         22         23         24
     1  C    0.000397  -0.000144   0.000397  -0.342145   0.032306   0.007302
     2  N   -0.000442  -0.000681  -0.000442  -0.059763  -0.002954  -0.010174
     3  C    0.003004   0.001883   0.003004  -0.019472   0.012365   0.003461
     4  O    0.000035  -0.000438   0.000035  -0.105268  -0.008265  -0.000549
     5  O   -0.000013  -0.000381  -0.000015   0.012831   0.000505   0.000488
     6  C   -0.003566  -0.009269  -0.003565  -0.013385  -0.000513   0.000124
     7  C    0.037426  -0.028035   0.037428  -0.000433  -0.000011   0.000004
     8  C    0.362717   0.451646   0.362710  -0.000114  -0.000006   0.000002
     9  C   -0.000027  -0.000129  -0.000028   0.011217  -0.082946   0.008432
    10  C    0.000023  -0.000006   0.000023  -0.208040  -0.229705  -0.434699
    11  C    0.000006  -0.000010   0.000006   0.026068  -0.016170  -0.363319
    12  C   -0.000016   0.000036  -0.000016   0.032654   0.043468  -0.587323
    13  C   -0.000019  -0.000002  -0.000020  -0.012732   0.006782   0.153504
    14  H    0.000137  -0.000008   0.000137  -0.003546  -0.000100  -0.000458
    15  H   -0.007522   0.000209  -0.008952  -0.001322   0.000082   0.000013
    16  H   -0.008951   0.000209  -0.007522  -0.001320   0.000082   0.000013
    17  H    0.000824  -0.002085   0.000634  -0.000132  -0.000002  -0.000001
    18  H    0.000634  -0.002084   0.000825  -0.000132  -0.000002  -0.000001
    19  H    0.314625   0.000149   0.021312   0.000040  -0.000003  -0.000000
    20  H    0.000149   0.302666   0.000149  -0.000005  -0.000000   0.000000
    21  H    0.021312   0.000149   0.314625   0.000040  -0.000003  -0.000000
    22  H    0.000040  -0.000005   0.000040   1.114224   0.038124  -0.001301
    23  Cl  -0.000003  -0.000000  -0.000003   0.038124  17.723026  -0.053363
    24  C   -0.000000   0.000000  -0.000000  -0.001301  -0.053363   5.695680
    25  H   -0.000000   0.000002  -0.000000   0.011209   0.000859  -0.232832
    26  H    0.000001  -0.000028   0.000001  -0.028188  -0.001760   0.003610
    27  F    0.000000   0.000000   0.000000  -0.000304   0.009885   0.220501
    28  F    0.000000  -0.000000  -0.000000  -0.002021  -0.012811   0.175317
    29  F   -0.000000  -0.000000   0.000000  -0.002023  -0.012802   0.175318
              25         26         27         28         29
     1  C   -0.181009  -0.455698  -0.017157  -0.001543  -0.001550
     2  N    0.131580  -0.376830   0.001063  -0.002410  -0.002416
     3  C    0.026516  -0.188347   0.000263  -0.000169  -0.000170
     4  O    0.000767  -0.001110  -0.000002  -0.000035  -0.000035
     5  O    0.003346  -0.055841   0.000017  -0.000024  -0.000024
     6  C    0.001059  -0.009887   0.000005  -0.000018  -0.000018
     7  C    0.000058  -0.001052  -0.000000  -0.000000  -0.000000
     8  C    0.000007  -0.000108   0.000000  -0.000000  -0.000000
     9  C    0.035039   0.233017  -0.007653  -0.008616  -0.008609
    10  C    0.038557  -0.015453   0.015806  -0.040562  -0.040595
    11  C   -0.597292  -0.004762  -0.035690   0.105797   0.105805
    12  C    1.266243  -1.743049  -0.044927  -0.054124  -0.054113
    13  C   -1.372889   1.213665  -0.002474   0.013703   0.013717
    14  H   -0.005961   0.016127   0.000082  -0.000066  -0.000066
    15  H    0.000019  -0.000094   0.000001  -0.000001   0.000000
    16  H    0.000018  -0.000094   0.000001   0.000000  -0.000001
    17  H    0.000012  -0.000109  -0.000000  -0.000000   0.000000
    18  H    0.000012  -0.000109  -0.000000   0.000000  -0.000000
    19  H   -0.000000   0.000001   0.000000   0.000000  -0.000000
    20  H    0.000002  -0.000028   0.000000  -0.000000  -0.000000
    21  H   -0.000000   0.000001   0.000000  -0.000000   0.000000
    22  H    0.011209  -0.028188  -0.000304  -0.002021  -0.002023
    23  Cl   0.000859  -0.001760   0.009885  -0.012811  -0.012802
    24  C   -0.232832   0.003610   0.220501   0.175317   0.175318
    25  H    2.566450  -0.908973   0.033466  -0.009026  -0.009021
    26  H   -0.908973   2.869020  -0.005988   0.001861   0.001861
    27  F    0.033466  -0.005988   9.337139  -0.068337  -0.068337
    28  F   -0.009026   0.001861  -0.068337   9.328148  -0.014466
    29  F   -0.009021   0.001861  -0.068337  -0.014466   9.328147
 Mulliken charges:
               1
     1  C    0.884704
     2  N   -0.137922
     3  C    0.346131
     4  O   -0.768979
     5  O   -0.440562
     6  C   -0.201772
     7  C   -0.473260
     8  C   -0.962112
     9  C   -0.840705
    10  C    0.902362
    11  C    0.179628
    12  C   -0.665124
    13  C   -0.573528
    14  H   -0.006581
    15  H    0.332526
    16  H    0.332516
    17  H    0.213455
    18  H    0.213440
    19  H    0.279231
    20  H    0.286358
    21  H    0.279237
    22  H    0.555237
    23  Cl  -0.446069
    24  C    1.240249
    25  H    0.201781
    26  H    0.458316
    27  F   -0.367358
    28  F   -0.410597
    29  F   -0.410601
 Sum of Mulliken charges =  -0.00000
 Mulliken charges with hydrogens summed into heavy atoms:
               1
     1  C    0.884704
     2  N   -0.144503
     3  C    0.346131
     4  O   -0.768979
     5  O   -0.440562
     6  C    0.463270
     7  C   -0.046365
     8  C   -0.117287
     9  C   -0.285468
    10  C    0.902362
    11  C    0.179628
    12  C   -0.463343
    13  C   -0.115213
    23  Cl  -0.446069
    24  C    1.240249
    27  F   -0.367358
    28  F   -0.410597
    29  F   -0.410601
 Electronic spatial extent (au):  <R**2>=           8538.0131
 Charge=             -0.0000 electrons
 Dipole moment (field-independent basis, Debye):
    X=             -5.6108    Y=             -3.5912    Z=             -0.0001  Tot=              6.6616
 Quadrupole moment (field-independent basis, Debye-Ang):
   XX=           -107.3577   YY=           -106.8805   ZZ=           -112.2896
   XY=              1.2669   XZ=             -0.0004   YZ=             -0.0000
 Traceless Quadrupole moment (field-independent basis, Debye-Ang):
   XX=              1.4849   YY=              1.9621   ZZ=             -3.4470
   XY=              1.2669   XZ=             -0.0004   YZ=             -0.0000
 Octapole moment (field-independent basis, Debye-Ang**2):
  XXX=           -131.9525  YYY=            -18.4155  ZZZ=              0.0027  XYY=             26.6235
  XXY=             -2.5674  XXZ=              0.0009  XZZ=             10.2789  YZZ=              3.6088
  YYZ=             -0.0002  XYZ=              0.0002
 Hexadecapole moment (field-independent basis, Debye-Ang**3):
 XXXX=          -8992.2260 YYYY=           -966.4105 ZZZZ=           -199.6744 XXXY=             10.9538
 XXXZ=             -0.0026 YYYX=             18.2527 YYYZ=              0.0001 ZZZX=              0.0074
 ZZZY=             -0.0017 XXYY=          -1748.3139 XXZZ=          -1603.2198 YYZZ=           -212.7714
 XXYZ=             -0.0017 YYXZ=              0.0062 ZZXY=             -9.3703
 N-N= 1.439012171081D+03 E-N=-6.154279346950D+03  KE= 1.384123320480D+03
 Unable to Open any file for archive entry.
 1\1\GINC-GADI-HMEM-CLX-0041\SP\RDSDPBEP86-FC\Aug-CC-pVTZ\C11H11Cl1F3N1
 O2\HIO507\22-Sep-2020\0\\# DSDPBEP86/AUG-cc-PVTZ SCF=Tight INT(grid=ul
 trafine) MaxDisk=1400000MB\\CP19CA.DSDPBEP86_AUG-cc-PVTZ\\0,1\C,0,-6.2
 98615771,1.2792363771,0.0196052719\N,0,-5.0005518645,0.7634560885,0.04
 39966176\C,0,-3.8183408511,1.4625764263,0.0025357782\O,0,-3.6965736178
 ,2.6573374055,-0.0627471432\O,0,-2.7980977059,0.5907631029,0.046919458
 9\C,0,-1.4865965736,1.1760108927,0.0113261378\C,0,-0.478379473,0.04905
 93663,0.0696261333\C,0,0.9476633498,0.5920979694,0.0359847812\C,0,-6.5
 744819764,2.6468797541,-0.0538669888\C,0,-7.8953922892,3.0707290688,-0
 .0731993507\C,0,-8.9578971681,2.1688472615,-0.0212777884\C,0,-8.664802
 3036,0.8099101308,0.0516854555\C,0,-7.3561195453,0.3651864962,0.072182
 7799\H,0,-4.9040983087,-0.2398115233,0.0981706318\H,0,-1.3825157253,1.
 8581318356,0.8585702577\H,0,-1.3876330063,1.7622983713,-0.9054173725\H
 ,0,-0.6494076791,-0.6258006714,-0.7734539546\H,0,-0.6443128755,-0.5304
 384987,0.9818321872\H,0,1.1349757582,1.1591204278,-0.8790768785\H,0,1.
 6760849049,-0.2185130859,0.0779241434\H,0,1.1400793239,1.254878052,0.8
 831188367\H,0,-5.7760323681,3.3716149943,-0.0954365743\Cl,0,-8.1843420
 04,4.7811072467,-0.1652429118\C,0,-10.3899547129,2.6270679107,-0.04217
 12659\H,0,-9.4752001997,0.0935962777,0.0928336641\H,0,-7.1504007194,-0
 .6983030214,0.1293471464\F,0,-11.2341333454,1.584849866,0.0168168551\F
 ,0,-10.6844115297,3.4221755871,0.9950473943\F,0,-10.6904317232,3.30520
 58912,-1.1577733024\\Version=ES64L-G16RevC.01\State=1-A\HF=-1387.61963
 59\MP2=-1389.3250469\RMSD=3.039e-09\PG=C01 [X(C11H11Cl1F3N1O2)]\\@
 The archive entry for this job was punched.


 THERE'S SMALL CHOICE IN A BOWL OF ROTTEN APPLES.
                     SHAKESPEARE
 Job cpu time:       1 days 15 hours 58 minutes 54.6 seconds.
 Elapsed time:       0 days  6 hours 39 minutes 48.1 seconds.
 File lengths (MBytes):  RWF=    609 Int=      0 D2E=      0 Chk=     77 Scr=      1
 Normal termination of Gaussian 16 at Tue Sep 22 16:33:50 2020.
