 Entering Gaussian System, Link 0=/apps/gaussian/g09e01/g09/g09
 AtFile(1): /home/507/hio507/Basis/6-31pGd.gbs
 Initial command:
 /apps/gaussian/g09e01/g09/l1.exe "/jobfs/local/4046923.r-man2/Gau-23481.inp" -scrdir="/jobfs/local/4046923.r-man2/"
 Entering Link 1 = /apps/gaussian/g09e01/g09/l1.exe PID=     23482.
  
 Copyright (c) 1988,1990,1992,1993,1995,1998,2003,2009,2015,
            Gaussian, Inc.  All Rights Reserved.
  
 This is part of the Gaussian(R) 09 program.  It is based on
 the Gaussian(R) 03 system (copyright 2003, Gaussian, Inc.),
 the Gaussian(R) 98 system (copyright 1998, Gaussian, Inc.),
 the Gaussian(R) 94 system (copyright 1995, Gaussian, Inc.),
 the Gaussian 92(TM) system (copyright 1992, Gaussian, Inc.),
 the Gaussian 90(TM) system (copyright 1990, Gaussian, Inc.),
 the Gaussian 88(TM) system (copyright 1988, Gaussian, Inc.),
 the Gaussian 86(TM) system (copyright 1986, Carnegie Mellon
 University), and the Gaussian 82(TM) system (copyright 1983,
 Carnegie Mellon University). Gaussian is a federally registered
 trademark of Gaussian, Inc.
  
 This software contains proprietary and confidential information,
 including trade secrets, belonging to Gaussian, Inc.
  
 This software is provided under written license and may be
 used, copied, transmitted, or stored only in accord with that
 written license.
  
 The following legend is applicable only to US Government
 contracts under FAR:
  
                    RESTRICTED RIGHTS LEGEND
  
 Use, reproduction and disclosure by the US Government is
 subject to restrictions as set forth in subparagraphs (a)
 and (c) of the Commercial Computer Software - Restricted
 Rights clause in FAR 52.227-19.
  
 Gaussian, Inc.
 340 Quinnipiac St., Bldg. 40, Wallingford CT 06492
  
  
 ---------------------------------------------------------------
 Warning -- This program may not be used in any manner that
 competes with the business of Gaussian, Inc. or will provide
 assistance to any competitor of Gaussian, Inc.  The licensee
 of this program is prohibited from giving any competitor of
 Gaussian, Inc. access to this program.  By using this program,
 the user acknowledges that Gaussian, Inc. is engaged in the
 business of creating and licensing software in the field of
 computational chemistry and represents and warrants to the
 licensee that it is not a competitor of Gaussian, Inc. and that
 it will not use this program in any manner prohibited above.
 ---------------------------------------------------------------
  

 Cite this work as:
 Gaussian 09, Revision E.01,
 M. J. Frisch, G. W. Trucks, H. B. Schlegel, G. E. Scuseria, 
 M. A. Robb, J. R. Cheeseman, G. Scalmani, V. Barone, B. Mennucci, 
 G. A. Petersson, H. Nakatsuji, M. Caricato, X. Li, H. P. Hratchian, 
 A. F. Izmaylov, J. Bloino, G. Zheng, J. L. Sonnenberg, M. Hada, 
 M. Ehara, K. Toyota, R. Fukuda, J. Hasegawa, M. Ishida, T. Nakajima, 
 Y. Honda, O. Kitao, H. Nakai, T. Vreven, J. A. Montgomery, Jr., 
 J. E. Peralta, F. Ogliaro, M. Bearpark, J. J. Heyd, E. Brothers, 
 K. N. Kudin, V. N. Staroverov, T. Keith, R. Kobayashi, J. Normand, 
 K. Raghavachari, A. Rendell, J. C. Burant, S. S. Iyengar, J. Tomasi, 
 M. Cossi, N. Rega, J. M. Millam, M. Klene, J. E. Knox, J. B. Cross, 
 V. Bakken, C. Adamo, J. Jaramillo, R. Gomperts, R. E. Stratmann, 
 O. Yazyev, A. J. Austin, R. Cammi, C. Pomelli, J. W. Ochterski, 
 R. L. Martin, K. Morokuma, V. G. Zakrzewski, G. A. Voth, 
 P. Salvador, J. J. Dannenberg, S. Dapprich, A. D. Daniels, 
 O. Farkas, J. B. Foresman, J. V. Ortiz, J. Cioslowski, 
 and D. J. Fox, Gaussian, Inc., Wallingford CT, 2013.
 
 ******************************************
 Gaussian 09:  ES64L-G09RevE.01 30-Nov-2015
                 9-Dec-2019 
 ******************************************
 %chk=CP19CA_c2.MP2_6-31pGd.chk
 %mem=1114112000
 %nproc=4
 Will use up to    4 processors via shared memory.
 -------------------------------------------------------------
 # MP2/Gen 6D SCF=Tight INT(grid=ultrafine) maxdisk=3489660928
 -------------------------------------------------------------
 1/38=1/1;
 2/12=2,17=6,18=5,40=1/2;
 3/5=7,8=2,11=9,16=1,25=1,30=1,75=-5/1,2,3;
 4//1;
 5/5=2,32=2,38=5/2;
 8/10=1/1;
 9/16=-3/6;
 6/7=2,8=2,9=2,10=2/1;
 99/5=1,9=1/99;
 ---------------------
 CP19CA_c2.MP2_6-31pGd
 ---------------------
 Symbolic Z-matrix:
 Charge =  0 Multiplicity = 1
 C                    -6.24129   1.47782   0.03181 
 N                    -4.9682    0.90476   0.08786 
 C                    -3.75766   1.54369  -0.03219 
 O                    -3.58446   2.72087  -0.20847 
 O                    -2.77614   0.63424   0.07963 
 C                    -1.44065   1.15257  -0.02531 
 C                    -0.48351  -0.00996   0.12454 
 C                     0.96499   0.46049   0.02411 
 C                    -7.33061   0.6125    0.18259 
 C                    -8.62334   1.10027   0.13945 
 C                    -8.86693   2.4609   -0.05465 
 C                    -7.77527   3.30904  -0.20294 
 C                    -6.4694    2.84202  -0.16316 
 H                    -4.91336  -0.09266   0.23275 
 H                    -1.29228   1.90371   0.75432 
 H                    -1.33011   1.64731  -0.99333 
 H                    -0.69859  -0.75034  -0.65071 
 H                    -0.6609   -0.49516   1.08815 
 H                     1.16314   0.93194  -0.94151 
 H                     1.65634  -0.37606   0.13195 
 H                     1.20094   1.18823   0.80429 
 H                    -7.17389  -0.44947   0.33481 
 Cl                   -9.92634  -0.03236   0.33408 
 C                    -10.26463   3.01223  -0.10476 
 H                    -7.94958   4.36679  -0.35417 
 H                    -5.64108   3.52286  -0.28116 
 F                    -10.25956   4.33884  -0.2993 
 F                    -10.985    2.47647  -1.10007 
 F                    -10.93816   2.78901   1.03241 
 
                          Input orientation:                          
 ---------------------------------------------------------------------
 Center     Atomic      Atomic             Coordinates (Angstroms)
 Number     Number       Type             X           Y           Z
 ---------------------------------------------------------------------
      1          6           0       -6.241294    1.477822    0.031813
      2          7           0       -4.968205    0.904758    0.087856
      3          6           0       -3.757663    1.543692   -0.032194
      4          8           0       -3.584459    2.720867   -0.208474
      5          8           0       -2.776142    0.634236    0.079627
      6          6           0       -1.440648    1.152567   -0.025308
      7          6           0       -0.483511   -0.009956    0.124538
      8          6           0        0.964986    0.460488    0.024109
      9          6           0       -7.330614    0.612498    0.182590
     10          6           0       -8.623344    1.100269    0.139454
     11          6           0       -8.866930    2.460902   -0.054646
     12          6           0       -7.775269    3.309042   -0.202944
     13          6           0       -6.469398    2.842020   -0.163163
     14          1           0       -4.913360   -0.092657    0.232746
     15          1           0       -1.292281    1.903709    0.754323
     16          1           0       -1.330113    1.647311   -0.993330
     17          1           0       -0.698585   -0.750337   -0.650713
     18          1           0       -0.660903   -0.495163    1.088147
     19          1           0        1.163139    0.931938   -0.941513
     20          1           0        1.656345   -0.376063    0.131949
     21          1           0        1.200939    1.188228    0.804285
     22          1           0       -7.173890   -0.449469    0.334813
     23         17           0       -9.926345   -0.032357    0.334081
     24          6           0      -10.264634    3.012228   -0.104758
     25          1           0       -7.949578    4.366786   -0.354166
     26          1           0       -5.641080    3.522861   -0.281157
     27          9           0      -10.259561    4.338837   -0.299304
     28          9           0      -10.984996    2.476468   -1.100070
     29          9           0      -10.938157    2.789014    1.032411
 ---------------------------------------------------------------------
                    Distance matrix (angstroms):
                    1          2          3          4          5
     1  C    0.000000
     2  N    1.397247   0.000000
     3  C    2.485328   1.374067   0.000000
     4  O    2.943071   2.302350   1.202836   0.000000
     5  O    3.566679   2.208708   1.342758   2.256193   0.000000
     6  C    4.811990   3.538061   2.349805   2.662525   1.436392
     7  C    5.947616   4.577174   3.627459   4.145379   2.381839
     8  C    7.277740   5.950143   4.845608   5.085358   3.745572
     9  C    1.399334   2.382303   3.698544   4.316459   4.555687
    10  C    2.414186   3.660728   4.888858   5.304503   5.866049
    11  C    2.804975   4.200232   5.190991   5.291100   6.360223
    12  C    2.400324   3.707392   4.391671   4.231887   5.676769
    13  C    1.396812   2.463650   3.009371   2.887837   4.309686
    14  H    2.066442   1.009375   2.020759   3.142701   2.262636
    15  H    5.019575   3.867105   2.612725   2.617023   2.066064
    16  H    5.019895   3.867307   2.612953   2.617365   2.066049
    17  H    6.012666   4.638370   3.873383   4.535758   2.601285
    18  H    6.012427   4.638234   3.873244   4.535555   2.601325
    19  H    7.488055   6.217211   5.041369   5.126139   4.080354
    20  H    8.112928   6.747377   5.746641   6.096957   4.546469
    21  H    7.487817   6.217070   5.041209   5.125885   4.080344
    22  H    2.162405   2.599994   3.972152   4.819772   4.536488
    23  Cl   3.993946   5.051927   6.377360   6.934992   7.185714
    24  C    4.308169   5.703568   6.671022   6.687330   7.859157
    25  H    3.378362   4.590164   5.064156   4.667391   6.394103
    26  H    2.154156   2.728258   2.743420   2.208658   4.084384
    27  F    4.943837   6.319909   7.082292   6.868993   8.358781
    28  F    4.978068   6.331130   7.365104   7.458057   8.495339
    29  F    4.978046   6.331108   7.365032   7.457970   8.495255
                    6          7          8          9         10
     6  C    0.000000
     7  C    1.513283   0.000000
     8  C    2.503696   1.526286   0.000000
     9  C    5.918327   6.875582   8.298506   0.000000
    10  C    7.184776   8.215211   9.610343   1.382365   0.000000
    11  C    7.540707   8.741793  10.033665   2.415191   1.395826
    12  C    6.693979   8.018274   9.195536   2.760018   2.390636
    13  C    5.306748   6.636819   7.808766   2.414954   2.786531
    14  H    3.698230   4.431942   5.907999   2.518506   3.898173
    15  H    1.092727   2.170910   2.776932   6.201256   7.400545
    16  H    1.092728   2.170920   2.776907   6.201583   7.400924
    17  H    2.136079   1.093360   2.165399   6.821695   8.176241
    18  H    2.136071   1.093360   2.165400   6.821436   8.175934
    19  H    2.769082   2.176025   1.092683   8.573767   9.847440
    20  H    3.457283   2.170961   1.090606   9.041307  10.385163
    21  H    2.769021   2.176023   1.092683   8.573527   9.847145
    22  H    5.963747   6.708096   8.195478   1.084209   2.130909
    23  Cl   8.575561   9.445185  10.906882   2.678919   1.737393
    24  C    9.018169  10.239948  11.516612   3.801282   2.531612
    25  H    7.266741   8.667594   9.740212   3.842643   3.371610
    26  H    4.829843   6.264655   7.287759   3.397027   3.865198
    27  F    9.380865  10.708071  11.880095   4.764090   3.654864
    28  F    9.695483  10.861084  12.170868   4.298151   3.001290
    29  F    9.695329  10.860851  12.170601   4.298114   3.001265
                   11         12         13         14         15
    11  C    0.000000
    12  C    1.390344   0.000000
    13  C    2.430059   1.387441   0.000000
    14  H    4.715291   4.466755   3.345194   0.000000
    15  H    7.638076   6.702273   5.340857   4.167702   0.000000
    16  H    7.638499   6.702693   5.341232   4.167783   1.766766
    17  H    8.797114   8.170588   6.815058   4.356303   3.061138
    18  H    8.796771   8.170257   6.814776   4.356273   2.502931
    19  H   10.184623   9.278536   7.906317   6.273159   3.138357
    20  H   10.900573  10.131509   8.744760   6.576587   3.778769
    21  H   10.184274   9.278182   7.906013   6.273115   2.594331
    22  H    3.389443   3.844118   3.402674   2.290792   6.348761
    23  Cl   2.736752   4.010046   4.523248   5.014371   8.858443
    24  C    1.503346   2.508919   3.799500   6.195994   9.081297
    25  H    2.136268   1.082624   2.133619   5.426759   7.184366
    26  H    3.403699   2.146298   1.078692   3.723659   4.754569
    27  F    2.350727   2.690998   4.077295   6.964415   9.351583
    28  F    2.362066   3.435165   4.626235   6.726184   9.885117
    29  F    2.362061   3.435170   4.626231   6.726192   9.690409
                   16         17         18         19         20
    16  H    0.000000
    17  H    2.502985   0.000000
    18  H    3.061141   1.757888   0.000000
    19  H    2.594368   2.525991   3.079491   0.000000
    20  H    3.778786   2.509648   2.509608   1.762510   0.000000
    21  H    3.138216   3.079489   2.526032   1.764915   1.762509
    22  H    6.349030   6.556780   6.556570   8.546540   8.832870
    23  Cl   8.858810   9.307892   9.307589  11.204180  11.589550
    24  C    9.081752  10.293894  10.293516  11.645675  12.395413
    25  H    7.184803   8.879741   8.879392   9.756268  10.724023
    26  H    4.754926   6.544085   6.543827   7.310701   8.284001
    27  F    9.352061  10.836764  10.836366  11.937230  12.822054
    28  F    9.691009  10.790015  10.963839  12.246954  13.017614
    29  F    9.885425  10.963975  10.789387  12.401067  13.017297
                   21         22         23         24         25
    21  H    0.000000
    22  H    8.546357   0.000000
    23  Cl  11.203899   2.783880   0.000000
    24  C   11.645286   4.661466   3.094595   0.000000
    25  H    9.755881   4.926733   4.871730   2.693792   0.000000
    26  H    7.310398   4.302131   5.601927   4.655009   2.459005
    27  F   11.936805   5.731609   4.429396   1.340807   2.310804
    28  F   12.400933   5.014431   3.077618   1.340376   3.652866
    29  F   12.246314   5.014392   3.077591   1.340377   3.652884
                   26         27         28         29
    26  H    0.000000
    27  F    4.690044   0.000000
    28  F    5.506631   2.153114   0.000000
    29  F    5.506633   2.153116   2.155773   0.000000
 Stoichiometry    C11H11ClF3NO2
 Framework group  C1[X(C11H11ClF3NO2)]
 Deg. of freedom    81
 Full point group                 C1      NOp   1
 Largest Abelian subgroup         C1      NOp   1
 Largest concise Abelian subgroup C1      NOp   1
                         Standard orientation:                         
 ---------------------------------------------------------------------
 Center     Atomic      Atomic             Coordinates (Angstroms)
 Number     Number       Type             X           Y           Z
 ---------------------------------------------------------------------
      1          6           0       -0.252700    0.138694   -0.000238
      2          7           0       -1.602254    0.500638   -0.000362
      3          6           0       -2.692282   -0.335962   -0.000271
      4          8           0       -2.671030   -1.538610   -0.000191
      5          8           0       -3.809081    0.409529   -0.000310
      6          6           0       -5.042071   -0.327329   -0.000054
      7          6           0       -6.176119    0.674649    0.000294
      8          6           0       -7.528413   -0.033057    0.000508
      9          6           0        0.680781    1.181167   -0.000141
     10          6           0        2.035791    0.907527   -0.000042
     11          6           0        2.498188   -0.409485   -0.000002
     12          6           0        1.559593   -1.435202   -0.000088
     13          6           0        0.195005   -1.184425   -0.000211
     14          1           0       -1.819157    1.486432   -0.000491
     15          1           0       -5.067905   -0.970050    0.883288
     16          1           0       -5.068320   -0.969925   -0.883478
     17          1           0       -6.082727    1.318282   -0.878598
     18          1           0       -6.082343    1.318085    0.879290
     19          1           0       -7.644908   -0.666714   -0.882024
     20          1           0       -8.347041    0.687547    0.000827
     21          1           0       -7.644475   -0.667001    0.882891
     22          1           0        0.352828    2.214587   -0.000174
     23         17           0        3.136460    2.251797    0.000045
     24          6           0        3.967138   -0.729225    0.000142
     25          1           0        1.904207   -2.461515   -0.000057
     26          1           0       -0.511083   -1.999910   -0.000279
     27          9           0        4.178658   -2.053243    0.000186
     28          9           0        4.592904   -0.235971   -1.077691
     29          9           0        4.592693   -0.235931    1.078082
 ---------------------------------------------------------------------
 Rotational constants (GHZ):      1.0952771      0.1233951      0.1133304
 General basis read from cards:  (6D, 7F)
 There are   368 symmetry adapted cartesian basis functions of A   symmetry.
 There are   368 symmetry adapted basis functions of A   symmetry.
   368 basis functions,   644 primitive gaussians,   368 cartesian basis functions
    72 alpha electrons       72 beta electrons
       nuclear repulsion energy      1431.5254273686 Hartrees.
 NAtoms=   29 NActive=   29 NUniq=   29 SFac= 1.00D+00 NAtFMM=   60 NAOKFM=F Big=F
 Integral buffers will be    131072 words long.
 Raffenetti 1 integral format.
 Two-electron integral symmetry is turned on.
 One-electron integrals computed using PRISM.
 NBasis=   368 RedAO= T EigKep=  1.79D-06  NBF=   368
 NBsUse=   366 1.00D-06 EigRej=  8.94D-07 NBFU=   366
 ExpMin= 4.38D-02 ExpMax= 2.52D+04 ExpMxC= 3.78D+03 IAcc=3 IRadAn=         5 AccDes= 0.00D+00
 Harris functional with IExCor=  205 and IRadAn=       5 diagonalized for initial guess.
 HarFok:  IExCor=  205 AccDes= 0.00D+00 IRadAn=         5 IDoV= 1 UseB2=F ITyADJ=14
 ICtDFT=  3500011 ScaDFX=  1.000000  1.000000  1.000000  1.000000
 FoFCou: FMM=F IPFlag=           0 FMFlag=      100000 FMFlg1=           0
         NFxFlg=           0 DoJE=T BraDBF=F KetDBF=T FulRan=T
         wScrn=  0.000000 ICntrl=     500 IOpCl=  0 I1Cent=   200000004 NGrid=           0
         NMat0=    1 NMatS0=      1 NMatT0=    0 NMatD0=    1 NMtDS0=    0 NMtDT0=    0
 Petite list used in FoFCou.
 Requested convergence on RMS density matrix=1.00D-08 within 128 cycles.
 Requested convergence on MAX density matrix=1.00D-06.
 Requested convergence on             energy=1.00D-06.
 No special actions if energy rises.
 Initial convergence to 1.0D-05 achieved.  Increase integral accuracy.
 SCF Done:  E(RHF) =  -1385.00044448     A.U. after   16 cycles
            NFock= 16  Conv=0.85D-08     -V/T= 2.0017
 ExpMin= 4.38D-02 ExpMax= 2.52D+04 ExpMxC= 3.78D+03 IAcc=3 IRadAn=         5 AccDes= 0.00D+00
 HarFok:  IExCor=  205 AccDes= 0.00D+00 IRadAn=         5 IDoV=-2 UseB2=F ITyADJ=14
 ICtDFT= 12500011 ScaDFX=  1.000000  1.000000  1.000000  1.000000
 Range of M.O.s used for correlation:    23   366
 NBasis=   368 NAE=    72 NBE=    72 NFC=    22 NFV=     0
 NROrb=    344 NOA=    50 NOB=    50 NVA=   294 NVB=   294

 **** Warning!!: The largest alpha MO coefficient is  0.15583327D+03

 Fully direct method using O(OVN) memory.
 JobTyp=1 Pass  1:  I=   1 to  50 NPSUse=  4 ParTrn=T ParDer=T DoDerP=F.
 Spin components of T(2) and E(2):
     alpha-alpha T2 =       0.1137983717D+00 E2=     -0.3550827606D+00
     alpha-beta  T2 =       0.5827175754D+00 E2=     -0.1880824765D+01
     beta-beta   T2 =       0.1137983717D+00 E2=     -0.3550827606D+00
 ANorm=    0.1345479215D+01
 E2 =    -0.2590990286D+01 EUMP2 =    -0.13875914347632D+04

 **********************************************************************

            Population analysis using the SCF density.

 **********************************************************************

 Orbital symmetries:
       Occupied  (A) (A) (A) (A) (A) (A) (A) (A) (A) (A) (A) (A)
                 (A) (A) (A) (A) (A) (A) (A) (A) (A) (A) (A) (A)
                 (A) (A) (A) (A) (A) (A) (A) (A) (A) (A) (A) (A)
                 (A) (A) (A) (A) (A) (A) (A) (A) (A) (A) (A) (A)
                 (A) (A) (A) (A) (A) (A) (A) (A) (A) (A) (A) (A)
                 (A) (A) (A) (A) (A) (A) (A) (A) (A) (A) (A) (A)
       Virtual   (A) (A) (A) (A) (A) (A) (A) (A) (A) (A) (A) (A)
                 (A) (A) (A) (A) (A) (A) (A) (A) (A) (A) (A) (A)
                 (A) (A) (A) (A) (A) (A) (A) (A) (A) (A) (A) (A)
                 (A) (A) (A) (A) (A) (A) (A) (A) (A) (A) (A) (A)
                 (A) (A) (A) (A) (A) (A) (A) (A) (A) (A) (A) (A)
                 (A) (A) (A) (A) (A) (A) (A) (A) (A) (A) (A) (A)
                 (A) (A) (A) (A) (A) (A) (A) (A) (A) (A) (A) (A)
                 (A) (A) (A) (A) (A) (A) (A) (A) (A) (A) (A) (A)
                 (A) (A) (A) (A) (A) (A) (A) (A) (A) (A) (A) (A)
                 (A) (A) (A) (A) (A) (A) (A) (A) (A) (A) (A) (A)
                 (A) (A) (A) (A) (A) (A) (A) (A) (A) (A) (A) (A)
                 (A) (A) (A) (A) (A) (A) (A) (A) (A) (A) (A) (A)
                 (A) (A) (A) (A) (A) (A) (A) (A) (A) (A) (A) (A)
                 (A) (A) (A) (A) (A) (A) (A) (A) (A) (A) (A) (A)
                 (A) (A) (A) (A) (A) (A) (A) (A) (A) (A) (A) (A)
                 (A) (A) (A) (A) (A) (A) (A) (A) (A) (A) (A) (A)
                 (A) (A) (A) (A) (A) (A) (A) (A) (A) (A) (A) (A)
                 (A) (A) (A) (A) (A) (A) (A) (A) (A) (A) (A) (A)
                 (A) (A) (A) (A) (A) (A) (A) (A) (A) (A) (A) (A)
                 (A) (A) (A) (A) (A) (A) (A) (A) (A) (A) (A) (A)
                 (A) (A) (A) (A) (A) (A) (A) (A) (A) (A) (A) (A)
                 (A) (A) (A) (A) (A) (A) (A) (A) (A) (A) (A) (A)
                 (A) (A) (A) (A) (A) (A) (A) (A) (A) (A) (A) (A)
                 (A) (A) (A) (A) (A) (A) (A) (A) (A) (A) (A) (A)
                 (A) (A) (A) (A) (A) (A)
 The electronic state is 1-A.
 Alpha  occ. eigenvalues -- -104.84560 -26.35376 -26.34703 -26.34701 -20.63333
 Alpha  occ. eigenvalues --  -20.56958 -15.63815 -11.52057 -11.43775 -11.33846
 Alpha  occ. eigenvalues --  -11.33014 -11.30415 -11.27977 -11.27766 -11.27193
 Alpha  occ. eigenvalues --  -11.25642 -11.24361 -11.23464 -10.57810  -8.04753
 Alpha  occ. eigenvalues --   -8.04402  -8.04402  -1.73375  -1.63715  -1.63258
 Alpha  occ. eigenvalues --   -1.49670  -1.38883  -1.29380  -1.21563  -1.13865
 Alpha  occ. eigenvalues --   -1.09352  -1.07347  -1.02861  -0.98221  -0.95258
 Alpha  occ. eigenvalues --   -0.89058  -0.87777  -0.83731  -0.82440  -0.82135
 Alpha  occ. eigenvalues --   -0.81592  -0.79253  -0.77465  -0.73369  -0.71257
 Alpha  occ. eigenvalues --   -0.70954  -0.70877  -0.68586  -0.67427  -0.65966
 Alpha  occ. eigenvalues --   -0.65928  -0.65679  -0.64513  -0.64414  -0.62413
 Alpha  occ. eigenvalues --   -0.61524  -0.60838  -0.59142  -0.56699  -0.56205
 Alpha  occ. eigenvalues --   -0.55737  -0.53817  -0.53115  -0.51599  -0.50478
 Alpha  occ. eigenvalues --   -0.49905  -0.48005  -0.47692  -0.46881  -0.46222
 Alpha  occ. eigenvalues --   -0.36202  -0.34085
 Alpha virt. eigenvalues --    0.05514   0.07489   0.07848   0.08119   0.08244
 Alpha virt. eigenvalues --    0.08831   0.09060   0.09478   0.09613   0.10941
 Alpha virt. eigenvalues --    0.11152   0.11462   0.12179   0.12481   0.12668
 Alpha virt. eigenvalues --    0.13228   0.14154   0.14246   0.14745   0.15241
 Alpha virt. eigenvalues --    0.15870   0.15948   0.17217   0.17830   0.17856
 Alpha virt. eigenvalues --    0.18960   0.19062   0.19615   0.20305   0.21157
 Alpha virt. eigenvalues --    0.21783   0.22309   0.22604   0.22614   0.23095
 Alpha virt. eigenvalues --    0.25179   0.25759   0.26016   0.26365   0.26647
 Alpha virt. eigenvalues --    0.26971   0.28133   0.29089   0.29286   0.29932
 Alpha virt. eigenvalues --    0.30377   0.30912   0.31502   0.32560   0.32885
 Alpha virt. eigenvalues --    0.33032   0.33486   0.33536   0.34244   0.34947
 Alpha virt. eigenvalues --    0.35064   0.36436   0.36998   0.37314   0.38060
 Alpha virt. eigenvalues --    0.38473   0.38711   0.40195   0.40963   0.41125
 Alpha virt. eigenvalues --    0.41685   0.42019   0.42084   0.42644   0.43428
 Alpha virt. eigenvalues --    0.43567   0.43570   0.44705   0.45182   0.46018
 Alpha virt. eigenvalues --    0.46319   0.46551   0.46615   0.47351   0.47692
 Alpha virt. eigenvalues --    0.48727   0.49432   0.50236   0.50471   0.50730
 Alpha virt. eigenvalues --    0.51275   0.53460   0.54545   0.55779   0.56413
 Alpha virt. eigenvalues --    0.56605   0.57365   0.59281   0.59978   0.60298
 Alpha virt. eigenvalues --    0.60755   0.63211   0.64696   0.65918   0.70338
 Alpha virt. eigenvalues --    0.74370   0.78285   0.80070   0.82522   0.83910
 Alpha virt. eigenvalues --    0.84047   0.84546   0.86867   0.88137   0.89923
 Alpha virt. eigenvalues --    0.91603   0.91774   0.91838   0.92128   0.93058
 Alpha virt. eigenvalues --    0.93491   0.95125   0.95220   0.95603   0.96972
 Alpha virt. eigenvalues --    0.99589   1.01290   1.01682   1.02037   1.03453
 Alpha virt. eigenvalues --    1.05046   1.05110   1.06310   1.07909   1.08492
 Alpha virt. eigenvalues --    1.08953   1.13204   1.15278   1.16985   1.16999
 Alpha virt. eigenvalues --    1.17934   1.18803   1.19776   1.20130   1.21625
 Alpha virt. eigenvalues --    1.21953   1.24000   1.24035   1.25228   1.26631
 Alpha virt. eigenvalues --    1.28322   1.29512   1.29910   1.33337   1.34487
 Alpha virt. eigenvalues --    1.34835   1.36729   1.38219   1.39192   1.39757
 Alpha virt. eigenvalues --    1.40758   1.43270   1.44621   1.46015   1.46563
 Alpha virt. eigenvalues --    1.46874   1.48269   1.49300   1.51108   1.52776
 Alpha virt. eigenvalues --    1.54385   1.56317   1.59225   1.59950   1.62538
 Alpha virt. eigenvalues --    1.62946   1.65667   1.66645   1.66702   1.69986
 Alpha virt. eigenvalues --    1.70807   1.70960   1.72518   1.75855   1.77775
 Alpha virt. eigenvalues --    1.78157   1.80959   1.81557   1.84304   1.87158
 Alpha virt. eigenvalues --    1.88877   1.91093   1.91302   1.94119   1.94406
 Alpha virt. eigenvalues --    1.96711   1.96742   1.97640   1.98344   1.99797
 Alpha virt. eigenvalues --    2.02251   2.03005   2.03733   2.05661   2.08124
 Alpha virt. eigenvalues --    2.10168   2.10528   2.11842   2.11926   2.12738
 Alpha virt. eigenvalues --    2.12981   2.15405   2.15818   2.16287   2.18425
 Alpha virt. eigenvalues --    2.19504   2.20139   2.22198   2.25520   2.26272
 Alpha virt. eigenvalues --    2.27049   2.28936   2.30547   2.32851   2.32895
 Alpha virt. eigenvalues --    2.35486   2.35966   2.36453   2.38028   2.39415
 Alpha virt. eigenvalues --    2.39975   2.41592   2.41634   2.43262   2.43973
 Alpha virt. eigenvalues --    2.44158   2.45193   2.49006   2.51158   2.52787
 Alpha virt. eigenvalues --    2.54987   2.56154   2.57822   2.59145   2.59326
 Alpha virt. eigenvalues --    2.61229   2.67225   2.67610   2.69224   2.71122
 Alpha virt. eigenvalues --    2.73465   2.73943   2.80422   2.81858   2.82498
 Alpha virt. eigenvalues --    2.86259   2.90701   2.95977   2.97697   2.98303
 Alpha virt. eigenvalues --    2.99594   3.04473   3.08343   3.09273   3.11193
 Alpha virt. eigenvalues --    3.13364   3.14792   3.16335   3.17182   3.25562
 Alpha virt. eigenvalues --    3.28992   3.31773   3.37245   3.49231   3.50871
 Alpha virt. eigenvalues --    3.52131   3.60572   3.61311   3.67915   3.72643
 Alpha virt. eigenvalues --    3.80760   4.60025   4.65428   4.67231   4.69253
 Alpha virt. eigenvalues --    4.76176   4.78756   4.79847   4.84384   4.84878
 Alpha virt. eigenvalues --    4.87346   4.96693   5.01162   5.04206   5.10926
 Alpha virt. eigenvalues --    5.19697   5.99116   6.46634   7.37663
          Condensed to atoms (all electrons):
               1          2          3          4          5          6
     1  C   13.760375  -0.150971  -0.857080  -0.435201  -0.133831  -0.203859
     2  N   -0.150971   7.619566   0.402981  -0.013899  -0.079682  -0.120380
     3  C   -0.857080   0.402981   5.564781   0.549917   0.318235  -0.471308
     4  O   -0.435201  -0.013899   0.549917   8.245763  -0.152824  -0.152713
     5  O   -0.133831  -0.079682   0.318235  -0.152824   8.525729   0.137933
     6  C   -0.203859  -0.120380  -0.471308  -0.152713   0.137933   6.412636
     7  C    0.000604   0.018283   0.004741   0.020242  -0.126779  -0.143363
     8  C   -0.001947   0.002227  -0.058912   0.000982   0.020507  -0.052268
     9  C    1.576821   0.034155   0.136212  -0.088372  -0.007481   0.001052
    10  C   -0.327880   0.088136  -0.608965  -0.005297   0.006527  -0.040085
    11  C   -2.425412   0.017844   0.104972   0.028996   0.009961   0.009592
    12  C   -4.002785   0.069086  -0.038327   0.205490  -0.001991  -0.045945
    13  C   -0.349256  -0.250062   0.104731   0.393340   0.035009  -0.043471
    14  H   -0.017696   0.270310  -0.025481   0.004017   0.003890  -0.010789
    15  H    0.005864   0.004373   0.040504  -0.004861  -0.036438   0.371175
    16  H    0.005872   0.004354   0.040625  -0.004857  -0.036438   0.371080
    17  H   -0.000034  -0.000426   0.001104  -0.000296  -0.001450  -0.049404
    18  H   -0.000032  -0.000428   0.001164  -0.000296  -0.001448  -0.049444
    19  H   -0.000015  -0.000050  -0.002234  -0.000065  -0.000789  -0.024778
    20  H    0.000041   0.000024   0.004032   0.000016  -0.000158   0.066376
    21  H   -0.000015  -0.000050  -0.002241  -0.000065  -0.000789  -0.024804
    22  H    0.038697  -0.007412  -0.020588   0.000110  -0.000210  -0.001282
    23  Cl   0.162260  -0.006875  -0.007871   0.000021  -0.000103  -0.000378
    24  C   -0.646300   0.031250   0.037242   0.000817   0.001898   0.002774
    25  H   -0.003204  -0.000562  -0.001834  -0.000031  -0.000001  -0.000073
    26  H    0.016095  -0.007788   0.083800  -0.007633   0.000660   0.010037
    27  F    0.021292  -0.000024  -0.000780   0.000002   0.000000  -0.000006
    28  F   -0.002658  -0.000007  -0.000424  -0.000000   0.000000  -0.000003
    29  F   -0.002655  -0.000007  -0.000424  -0.000000   0.000000  -0.000003
               7          8          9         10         11         12
     1  C    0.000604  -0.001947   1.576821  -0.327880  -2.425412  -4.002785
     2  N    0.018283   0.002227   0.034155   0.088136   0.017844   0.069086
     3  C    0.004741  -0.058912   0.136212  -0.608965   0.104972  -0.038327
     4  O    0.020242   0.000982  -0.088372  -0.005297   0.028996   0.205490
     5  O   -0.126779   0.020507  -0.007481   0.006527   0.009961  -0.001991
     6  C   -0.143363  -0.052268   0.001052  -0.040085   0.009592  -0.045945
     7  C    5.728680   0.204218   0.022896   0.001061  -0.002624  -0.008671
     8  C    0.204218   5.447173  -0.000330  -0.000356  -0.000224  -0.000458
     9  C    0.022896  -0.000330   8.832063  -0.129552   0.070580  -1.715982
    10  C    0.001061  -0.000356  -0.129552  16.176778  -4.244274  -1.208501
    11  C   -0.002624  -0.000224   0.070580  -4.244274  17.020090   0.888310
    12  C   -0.008671  -0.000458  -1.715982  -1.208501   0.888310  12.208802
    13  C   -0.038885  -0.002342  -1.329360  -3.145108  -2.513786  -0.623519
    14  H   -0.000431  -0.000232  -0.004987   0.014697   0.009253   0.002278
    15  H   -0.037958  -0.006644   0.000980   0.000095  -0.000128  -0.000342
    16  H   -0.037972  -0.006667   0.000977   0.000095  -0.000128  -0.000341
    17  H    0.414883  -0.032179   0.000278   0.000018  -0.000005  -0.000009
    18  H    0.414902  -0.032222   0.000278   0.000018  -0.000005  -0.000009
    19  H   -0.025492   0.407321   0.000015   0.000000  -0.000000  -0.000003
    20  H   -0.103482   0.395851  -0.000014  -0.000000   0.000000   0.000001
    21  H   -0.025492   0.407352   0.000015   0.000000  -0.000000  -0.000003
    22  H    0.000002  -0.000004   0.267825   0.000589   0.060657  -0.019134
    23  Cl   0.000015   0.000004   0.118283  -0.380619  -0.319115   0.100871
    24  C   -0.000286  -0.000006  -1.073623  -0.155141  -2.051604  -0.201595
    25  H    0.000001  -0.000000  -0.006664  -0.034650   0.001547   0.364980
    26  H   -0.000098   0.000036   0.003454  -0.016769   0.018882  -0.078076
    27  F   -0.000000  -0.000000   0.000242  -0.049261  -0.033909   0.025215
    28  F   -0.000000  -0.000000   0.010457  -0.190733   0.220757   0.011298
    29  F   -0.000000  -0.000000   0.010451  -0.190741   0.220764   0.011303
              13         14         15         16         17         18
     1  C   -0.349256  -0.017696   0.005864   0.005872  -0.000034  -0.000032
     2  N   -0.250062   0.270310   0.004373   0.004354  -0.000426  -0.000428
     3  C    0.104731  -0.025481   0.040504   0.040625   0.001104   0.001164
     4  O    0.393340   0.004017  -0.004861  -0.004857  -0.000296  -0.000296
     5  O    0.035009   0.003890  -0.036438  -0.036438  -0.001450  -0.001448
     6  C   -0.043471  -0.010789   0.371175   0.371080  -0.049404  -0.049444
     7  C   -0.038885  -0.000431  -0.037958  -0.037972   0.414883   0.414902
     8  C   -0.002342  -0.000232  -0.006644  -0.006667  -0.032179  -0.032222
     9  C   -1.329360  -0.004987   0.000980   0.000977   0.000278   0.000278
    10  C   -3.145108   0.014697   0.000095   0.000095   0.000018   0.000018
    11  C   -2.513786   0.009253  -0.000128  -0.000128  -0.000005  -0.000005
    12  C   -0.623519   0.002278  -0.000342  -0.000341  -0.000009  -0.000009
    13  C   12.891527   0.011853  -0.003670  -0.003658  -0.000358  -0.000357
    14  H    0.011853   0.239593  -0.000001  -0.000001  -0.000005  -0.000005
    15  H   -0.003670  -0.000001   0.489725  -0.035516   0.003149  -0.003640
    16  H   -0.003658  -0.000001  -0.035516   0.489744  -0.003640   0.003150
    17  H   -0.000358  -0.000005   0.003149  -0.003640   0.495335  -0.029136
    18  H   -0.000357  -0.000005  -0.003640   0.003150  -0.029136   0.495337
    19  H   -0.000060  -0.000000   0.000163   0.001387  -0.003211   0.003312
    20  H    0.000037  -0.000000  -0.000116  -0.000116  -0.002579  -0.002580
    21  H   -0.000060  -0.000000   0.001387   0.000163   0.003312  -0.003210
    22  H   -0.002810   0.003821  -0.000000  -0.000000  -0.000000  -0.000000
    23  Cl   0.091455  -0.000281   0.000000   0.000000   0.000000   0.000000
    24  C    0.306820   0.000829  -0.000004  -0.000004  -0.000000  -0.000000
    25  H   -0.033996   0.000001   0.000000   0.000000   0.000000   0.000000
    26  H    0.298223  -0.000105  -0.000003  -0.000003  -0.000000  -0.000000
    27  F    0.082799   0.000000  -0.000000  -0.000000  -0.000000  -0.000000
    28  F   -0.000644   0.000000   0.000000  -0.000000  -0.000000  -0.000000
    29  F   -0.000642   0.000000  -0.000000   0.000000  -0.000000  -0.000000
              19         20         21         22         23         24
     1  C   -0.000015   0.000041  -0.000015   0.038697   0.162260  -0.646300
     2  N   -0.000050   0.000024  -0.000050  -0.007412  -0.006875   0.031250
     3  C   -0.002234   0.004032  -0.002241  -0.020588  -0.007871   0.037242
     4  O   -0.000065   0.000016  -0.000065   0.000110   0.000021   0.000817
     5  O   -0.000789  -0.000158  -0.000789  -0.000210  -0.000103   0.001898
     6  C   -0.024778   0.066376  -0.024804  -0.001282  -0.000378   0.002774
     7  C   -0.025492  -0.103482  -0.025492   0.000002   0.000015  -0.000286
     8  C    0.407321   0.395851   0.407352  -0.000004   0.000004  -0.000006
     9  C    0.000015  -0.000014   0.000015   0.267825   0.118283  -1.073623
    10  C    0.000000  -0.000000   0.000000   0.000589  -0.380619  -0.155141
    11  C   -0.000000   0.000000  -0.000000   0.060657  -0.319115  -2.051604
    12  C   -0.000003   0.000001  -0.000003  -0.019134   0.100871  -0.201595
    13  C   -0.000060   0.000037  -0.000060  -0.002810   0.091455   0.306820
    14  H   -0.000000  -0.000000  -0.000000   0.003821  -0.000281   0.000829
    15  H    0.000163  -0.000116   0.001387  -0.000000   0.000000  -0.000004
    16  H    0.001387  -0.000116   0.000163  -0.000000   0.000000  -0.000004
    17  H   -0.003211  -0.002579   0.003312  -0.000000   0.000000  -0.000000
    18  H    0.003312  -0.002580  -0.003210  -0.000000   0.000000  -0.000000
    19  H    0.504207  -0.024691  -0.031421  -0.000000  -0.000000  -0.000000
    20  H   -0.024691   0.487406  -0.024691   0.000000   0.000000   0.000000
    21  H   -0.031421  -0.024691   0.504211  -0.000000  -0.000000  -0.000000
    22  H   -0.000000   0.000000  -0.000000   0.413197  -0.011424   0.021971
    23  Cl  -0.000000   0.000000  -0.000000  -0.011424  16.959862   0.002143
    24  C   -0.000000   0.000000  -0.000000   0.021971   0.002143   7.950102
    25  H    0.000000  -0.000000   0.000000   0.000008   0.000713   0.041897
    26  H   -0.000000   0.000000  -0.000000  -0.000075  -0.000088   0.003644
    27  F   -0.000000   0.000000  -0.000000   0.000014  -0.000096   0.071394
    28  F   -0.000000   0.000000  -0.000000   0.000026  -0.007910   0.070945
    29  F   -0.000000   0.000000  -0.000000   0.000026  -0.007912   0.070942
              25         26         27         28         29
     1  C   -0.003204   0.016095   0.021292  -0.002658  -0.002655
     2  N   -0.000562  -0.007788  -0.000024  -0.000007  -0.000007
     3  C   -0.001834   0.083800  -0.000780  -0.000424  -0.000424
     4  O   -0.000031  -0.007633   0.000002  -0.000000  -0.000000
     5  O   -0.000001   0.000660   0.000000   0.000000   0.000000
     6  C   -0.000073   0.010037  -0.000006  -0.000003  -0.000003
     7  C    0.000001  -0.000098  -0.000000  -0.000000  -0.000000
     8  C   -0.000000   0.000036  -0.000000  -0.000000  -0.000000
     9  C   -0.006664   0.003454   0.000242   0.010457   0.010451
    10  C   -0.034650  -0.016769  -0.049261  -0.190733  -0.190741
    11  C    0.001547   0.018882  -0.033909   0.220757   0.220764
    12  C    0.364980  -0.078076   0.025215   0.011298   0.011303
    13  C   -0.033996   0.298223   0.082799  -0.000644  -0.000642
    14  H    0.000001  -0.000105   0.000000   0.000000   0.000000
    15  H    0.000000  -0.000003  -0.000000   0.000000  -0.000000
    16  H    0.000000  -0.000003  -0.000000  -0.000000   0.000000
    17  H    0.000000  -0.000000  -0.000000  -0.000000  -0.000000
    18  H    0.000000  -0.000000  -0.000000  -0.000000  -0.000000
    19  H    0.000000  -0.000000  -0.000000  -0.000000  -0.000000
    20  H   -0.000000   0.000000   0.000000   0.000000   0.000000
    21  H    0.000000  -0.000000  -0.000000  -0.000000  -0.000000
    22  H    0.000008  -0.000075   0.000014   0.000026   0.000026
    23  Cl   0.000713  -0.000088  -0.000096  -0.007910  -0.007912
    24  C    0.041897   0.003644   0.071394   0.070945   0.070942
    25  H    0.389333  -0.000184   0.000844   0.000069   0.000069
    26  H   -0.000184   0.359816   0.000006   0.000011   0.000011
    27  F    0.000844   0.000006   9.360900  -0.017913  -0.017913
    28  F    0.000069   0.000011  -0.017913   9.303368  -0.029867
    29  F    0.000069   0.000011  -0.017913  -0.029867   9.303372
 Mulliken charges:
               1
     1  C   -0.027088
     2  N   -0.923966
     3  C    0.701428
     4  O   -0.583306
     5  O   -0.479939
     6  C    0.051700
     7  C   -0.278994
     8  C   -0.690880
     9  C   -0.730668
    10  C    0.439916
    11  C   -1.090991
    12  C    0.058056
    13  C    0.126250
    14  H    0.499471
    15  H    0.211908
    16  H    0.211894
    17  H    0.204651
    18  H    0.204651
    19  H    0.196405
    20  H    0.204644
    21  H    0.196402
    22  H    0.255993
    23  Cl   0.307044
    24  C    1.513895
    25  H    0.281734
    26  H    0.316147
    27  F   -0.442807
    28  F   -0.366774
    29  F   -0.366776
 Sum of Mulliken charges =  -0.00000
 Mulliken charges with hydrogens summed into heavy atoms:
               1
     1  C   -0.027088
     2  N   -0.424495
     3  C    0.701428
     4  O   -0.583306
     5  O   -0.479939
     6  C    0.475502
     7  C    0.130309
     8  C   -0.093429
     9  C   -0.474674
    10  C    0.439916
    11  C   -1.090991
    12  C    0.339789
    13  C    0.442396
    23  Cl   0.307044
    24  C    1.513895
    27  F   -0.442807
    28  F   -0.366774
    29  F   -0.366776
 Electronic spatial extent (au):  <R**2>=           8795.7350
 Charge=             -0.0000 electrons
 Dipole moment (field-independent basis, Debye):
    X=             -5.8496    Y=              1.7198    Z=             -0.0002  Tot=              6.0972
 Quadrupole moment (field-independent basis, Debye-Ang):
   XX=           -110.9482   YY=           -110.7050   ZZ=           -113.7746
   XY=             -5.3873   XZ=             -0.0016   YZ=             -0.0006
 Traceless Quadrupole moment (field-independent basis, Debye-Ang):
   XX=              0.8610   YY=              1.1043   ZZ=             -1.9653
   XY=             -5.3873   XZ=             -0.0016   YZ=             -0.0006
 Octapole moment (field-independent basis, Debye-Ang**2):
  XXX=           -141.7132  YYY=             -0.4065  ZZZ=              0.0028  XYY=             27.6252
  XXY=             10.5030  XXZ=              0.0040  XZZ=              9.4794  YZZ=             -4.6588
  YYZ=             -0.0007  XYZ=              0.0014
 Hexadecapole moment (field-independent basis, Debye-Ang**3):
 XXXX=          -9368.3050 YYYY=          -1012.4499 ZZZZ=           -201.8029 XXXY=            -15.6640
 XXXZ=             -0.0058 YYYX=            -63.5339 YYYZ=             -0.0057 ZZZX=              0.0231
 ZZZY=             -0.0026 XXYY=          -1845.7492 XXZZ=          -1676.2144 YYZZ=           -211.9104
 XXYZ=              0.0089 YYXZ=              0.0061 ZZXY=            -10.1305
 N-N= 1.431525427369D+03 E-N=-6.135585612918D+03  KE= 1.382614866176D+03
 1\1\GINC-R3716\SP\RMP2-FC\Gen\C11H11Cl1F3N1O2\ROOT\09-Dec-2019\0\\# MP
 2/Gen 6D SCF=Tight INT(grid=ultrafine) maxdisk=3489660928\\CP19CA_c2.M
 P2_6-31pGd\\0,1\C,0,-6.2412937515,1.4778218611,0.0318125601\N,0,-4.968
 2048194,0.9047580993,0.087855922\C,0,-3.7576631722,1.5436920287,-0.032
 193843\O,0,-3.5844591515,2.7208668564,-0.2084743709\O,0,-2.7761420705,
 0.6342357795,0.0796269158\C,0,-1.4406480429,1.152567408,-0.025308322\C
 ,0,-0.4835112362,-0.0099556028,0.1245375878\C,0,0.9649862175,0.4604875
 937,0.024108862\C,0,-7.3306135739,0.6124982045,0.1825897734\C,0,-8.623
 3439207,1.1002694459,0.1394542285\C,0,-8.8669297093,2.4609022731,-0.05
 46461065\C,0,-7.775268941,3.3090416346,-0.2029441508\C,0,-6.4693977812
 ,2.8420197283,-0.1631630788\H,0,-4.913360282,-0.0926565903,0.232746322
 3\H,0,-1.292280554,1.9037091727,0.754322611\H,0,-1.3301125624,1.647311
 3833,-0.9933299433\H,0,-0.6985850315,-0.7503373463,-0.6507132677\H,0,-
 0.6609026345,-0.4951625604,1.0881469967\H,0,1.1631388792,0.9319383363,
 -0.9415130184\H,0,1.6563445042,-0.376062702,0.1319492902\H,0,1.2009389
 01,1.1882284268,0.8042853671\H,0,-7.1738900918,-0.4494692592,0.3348127
 952\Cl,0,-9.9263445752,-0.0323572718,0.3340808615\C,0,-10.2646337929,3
 .0122280647,-0.1047576986\H,0,-7.9495783869,4.3667860877,-0.3541664202
 \H,0,-5.641080466,3.5228606594,-0.2811569609\F,0,-10.2595614937,4.3388
 366204,-0.2993042742\F,0,-10.9849955341,2.4764675991,-1.1000699104\F,0
 ,-10.9381569263,2.7890140694,1.0324112721\\Version=ES64L-G09RevE.01\St
 ate=1-A\HF=-1385.0004445\MP2=-1387.5914348\RMSD=8.523e-09\PG=C01 [X(C1
 1H11Cl1F3N1O2)]\\@


 YOU WILL NEVER "FIND" TIME FOR ANYTHING.
 IF YOU WANT TIME, YOU MUST MAKE IT.

                        -- CHARLES BIXTON
 Job cpu time:       0 days  0 hours 11 minutes 39.3 seconds.
 File lengths (MBytes):  RWF=     74 Int=      0 D2E=      0 Chk=      9 Scr=      1
 Normal termination of Gaussian 09 at Mon Dec  9 10:42:09 2019.
pbs_rusage has been removed.
Please contact help@nci.org.au if you require this functionality.
