 Entering Gaussian System, Link 0=/apps/gaussian/g09e01/g09/g09
 AtFile(1): /home/507/hio507/Basis/6-31pGd.gbs
 Initial command:
 /apps/gaussian/g09e01/g09/l1.exe "/jobfs/local/4046916.r-man2/Gau-49532.inp" -scrdir="/jobfs/local/4046916.r-man2/"
 Entering Link 1 = /apps/gaussian/g09e01/g09/l1.exe PID=     49533.
  
 Copyright (c) 1988,1990,1992,1993,1995,1998,2003,2009,2015,
            Gaussian, Inc.  All Rights Reserved.
  
 This is part of the Gaussian(R) 09 program.  It is based on
 the Gaussian(R) 03 system (copyright 2003, Gaussian, Inc.),
 the Gaussian(R) 98 system (copyright 1998, Gaussian, Inc.),
 the Gaussian(R) 94 system (copyright 1995, Gaussian, Inc.),
 the Gaussian 92(TM) system (copyright 1992, Gaussian, Inc.),
 the Gaussian 90(TM) system (copyright 1990, Gaussian, Inc.),
 the Gaussian 88(TM) system (copyright 1988, Gaussian, Inc.),
 the Gaussian 86(TM) system (copyright 1986, Carnegie Mellon
 University), and the Gaussian 82(TM) system (copyright 1983,
 Carnegie Mellon University). Gaussian is a federally registered
 trademark of Gaussian, Inc.
  
 This software contains proprietary and confidential information,
 including trade secrets, belonging to Gaussian, Inc.
  
 This software is provided under written license and may be
 used, copied, transmitted, or stored only in accord with that
 written license.
  
 The following legend is applicable only to US Government
 contracts under FAR:
  
                    RESTRICTED RIGHTS LEGEND
  
 Use, reproduction and disclosure by the US Government is
 subject to restrictions as set forth in subparagraphs (a)
 and (c) of the Commercial Computer Software - Restricted
 Rights clause in FAR 52.227-19.
  
 Gaussian, Inc.
 340 Quinnipiac St., Bldg. 40, Wallingford CT 06492
  
  
 ---------------------------------------------------------------
 Warning -- This program may not be used in any manner that
 competes with the business of Gaussian, Inc. or will provide
 assistance to any competitor of Gaussian, Inc.  The licensee
 of this program is prohibited from giving any competitor of
 Gaussian, Inc. access to this program.  By using this program,
 the user acknowledges that Gaussian, Inc. is engaged in the
 business of creating and licensing software in the field of
 computational chemistry and represents and warrants to the
 licensee that it is not a competitor of Gaussian, Inc. and that
 it will not use this program in any manner prohibited above.
 ---------------------------------------------------------------
  

 Cite this work as:
 Gaussian 09, Revision E.01,
 M. J. Frisch, G. W. Trucks, H. B. Schlegel, G. E. Scuseria, 
 M. A. Robb, J. R. Cheeseman, G. Scalmani, V. Barone, B. Mennucci, 
 G. A. Petersson, H. Nakatsuji, M. Caricato, X. Li, H. P. Hratchian, 
 A. F. Izmaylov, J. Bloino, G. Zheng, J. L. Sonnenberg, M. Hada, 
 M. Ehara, K. Toyota, R. Fukuda, J. Hasegawa, M. Ishida, T. Nakajima, 
 Y. Honda, O. Kitao, H. Nakai, T. Vreven, J. A. Montgomery, Jr., 
 J. E. Peralta, F. Ogliaro, M. Bearpark, J. J. Heyd, E. Brothers, 
 K. N. Kudin, V. N. Staroverov, T. Keith, R. Kobayashi, J. Normand, 
 K. Raghavachari, A. Rendell, J. C. Burant, S. S. Iyengar, J. Tomasi, 
 M. Cossi, N. Rega, J. M. Millam, M. Klene, J. E. Knox, J. B. Cross, 
 V. Bakken, C. Adamo, J. Jaramillo, R. Gomperts, R. E. Stratmann, 
 O. Yazyev, A. J. Austin, R. Cammi, C. Pomelli, J. W. Ochterski, 
 R. L. Martin, K. Morokuma, V. G. Zakrzewski, G. A. Voth, 
 P. Salvador, J. J. Dannenberg, S. Dapprich, A. D. Daniels, 
 O. Farkas, J. B. Foresman, J. V. Ortiz, J. Cioslowski, 
 and D. J. Fox, Gaussian, Inc., Wallingford CT, 2013.
 
 ******************************************
 Gaussian 09:  ES64L-G09RevE.01 30-Nov-2015
                 9-Dec-2019 
 ******************************************
 %chk=CP19CA.MP2_6-31pGd.chk
 %mem=1114112000
 %nproc=4
 Will use up to    4 processors via shared memory.
 -------------------------------------------------------------
 # MP2/Gen 6D SCF=Tight INT(grid=ultrafine) maxdisk=3489660928
 -------------------------------------------------------------
 1/38=1/1;
 2/12=2,17=6,18=5,40=1/2;
 3/5=7,8=2,11=9,16=1,25=1,30=1,75=-5/1,2,3;
 4//1;
 5/5=2,32=2,38=5/2;
 8/10=1/1;
 9/16=-3/6;
 6/7=2,8=2,9=2,10=2/1;
 99/5=1,9=1/99;
 ------------------
 CP19CA.MP2_6-31pGd
 ------------------
 Symbolic Z-matrix:
 Charge =  0 Multiplicity = 1
 C                    -6.29862   1.27924   0.01961 
 N                    -5.00055   0.76346   0.044 
 C                    -3.81834   1.46258   0.00254 
 O                    -3.69657   2.65734  -0.06275 
 O                    -2.7981    0.59076   0.04692 
 C                    -1.4866    1.17601   0.01133 
 C                    -0.47838   0.04906   0.06963 
 C                     0.94766   0.5921    0.03598 
 C                    -6.57448   2.64688  -0.05387 
 C                    -7.89539   3.07073  -0.0732 
 C                    -8.9579    2.16885  -0.02128 
 C                    -8.6648    0.80991   0.05169 
 C                    -7.35612   0.36519   0.07218 
 H                    -4.9041   -0.23981   0.09817 
 H                    -1.38252   1.85813   0.85857 
 H                    -1.38763   1.7623   -0.90542 
 H                    -0.64941  -0.6258   -0.77345 
 H                    -0.64431  -0.53044   0.98183 
 H                     1.13498   1.15912  -0.87908 
 H                     1.67608  -0.21851   0.07792 
 H                     1.14008   1.25488   0.88312 
 H                    -5.77603   3.37161  -0.09544 
 Cl                   -8.18434   4.78111  -0.16524 
 C                    -10.38995   2.62707  -0.04217 
 H                    -9.4752    0.0936    0.09283 
 H                    -7.1504   -0.6983    0.12935 
 F                    -11.23413   1.58485   0.01682 
 F                    -10.68441   3.42218   0.99505 
 F                    -10.69043   3.30521  -1.15777 
 
                          Input orientation:                          
 ---------------------------------------------------------------------
 Center     Atomic      Atomic             Coordinates (Angstroms)
 Number     Number       Type             X           Y           Z
 ---------------------------------------------------------------------
      1          6           0       -6.298616    1.279236    0.019605
      2          7           0       -5.000552    0.763456    0.043997
      3          6           0       -3.818341    1.462576    0.002536
      4          8           0       -3.696574    2.657337   -0.062747
      5          8           0       -2.798098    0.590763    0.046919
      6          6           0       -1.486597    1.176011    0.011326
      7          6           0       -0.478379    0.049059    0.069626
      8          6           0        0.947663    0.592098    0.035985
      9          6           0       -6.574482    2.646880   -0.053867
     10          6           0       -7.895392    3.070729   -0.073199
     11          6           0       -8.957897    2.168847   -0.021278
     12          6           0       -8.664802    0.809910    0.051685
     13          6           0       -7.356120    0.365186    0.072183
     14          1           0       -4.904098   -0.239812    0.098171
     15          1           0       -1.382516    1.858132    0.858570
     16          1           0       -1.387633    1.762298   -0.905417
     17          1           0       -0.649408   -0.625801   -0.773454
     18          1           0       -0.644313   -0.530438    0.981832
     19          1           0        1.134976    1.159120   -0.879077
     20          1           0        1.676085   -0.218513    0.077924
     21          1           0        1.140079    1.254878    0.883119
     22          1           0       -5.776032    3.371615   -0.095437
     23         17           0       -8.184342    4.781107   -0.165243
     24          6           0      -10.389955    2.627068   -0.042171
     25          1           0       -9.475200    0.093596    0.092834
     26          1           0       -7.150401   -0.698303    0.129347
     27          9           0      -11.234133    1.584850    0.016817
     28          9           0      -10.684412    3.422176    0.995047
     29          9           0      -10.690432    3.305206   -1.157773
 ---------------------------------------------------------------------
                    Distance matrix (angstroms):
                    1          2          3          4          5
     1  C    0.000000
     2  N    1.396995   0.000000
     3  C    2.487100   1.374086   0.000000
     4  O    2.945601   2.301856   1.202723   0.000000
     5  O    3.567684   2.209216   1.342730   2.256106   0.000000
     6  C    4.813133   3.538241   2.349304   2.661543   1.436599
     7  C    5.949033   4.578325   3.627378   4.144564   2.382237
     8  C    7.278804   5.950688   4.844961   5.083690   3.745777
     9  C    1.397122   2.456444   3.000345   2.877941   4.301029
    10  C    2.401615   3.703693   4.383405   4.219133   5.669839
    11  C    2.804435   4.199996   5.187911   5.284115   6.359098
    12  C    2.412496   3.664553   4.890458   5.301828   5.870798
    13  C    1.398773   2.389166   3.704726   4.320236   4.563670
    14  H    2.063579   1.009348   2.021420   3.142846   2.264447
    15  H    5.020660   3.866786   2.611992   2.615802   2.066125
    16  H    5.020634   3.866815   2.612002   2.615797   2.066120
    17  H    6.014288   4.640120   3.873708   4.535341   2.601905
    18  H    6.014312   4.640099   3.873704   4.535345   2.601912
    19  H    7.488681   6.217179   5.040305   5.123955   4.080388
    20  H    8.114339   6.748547   5.746343   6.095553   4.546889
    21  H    7.488687   6.217152   5.040287   5.123941   4.080382
    22  H    2.159717   2.724574   2.736162   2.198957   4.076947
    23  Cl   3.981612   5.130480   5.486598   4.965981   6.827564
    24  C    4.308076   5.703169   6.674140   6.693481   7.860710
    25  H    3.391429   4.524773   5.820852   6.323725   6.695743
    26  H    2.155978   2.601129   3.973425   4.819351   4.539937
    27  F    4.944971   6.287525   7.416814   7.613893   8.494458
    28  F    4.977839   6.346617   7.208886   7.108712   8.432662
    29  F    4.977833   6.346611   7.208830   7.108647   8.432581
                    6          7          8          9         10
     6  C    0.000000
     7  C    1.513248   0.000000
     8  C    2.503434   1.526310   0.000000
     9  C    5.296629   6.627698   7.798261   0.000000
    10  C    6.683544   8.010179   9.184507   1.387381   0.000000
    11  C    7.537050   8.740937  10.030431   2.431100   1.394634
    12  C    7.187649   8.221723   9.614946   2.784787   2.391420
    13  C    5.925575   6.885002   8.306962   2.415154   2.762591
    14  H    3.700191   4.435228   5.910927   3.338605   4.465074
    15  H    1.092678   2.170861   2.776549   5.330214   6.690004
    16  H    1.092678   2.170862   2.776548   5.330199   6.689956
    17  H    2.136186   1.093376   2.165434   6.806963   8.164495
    18  H    2.136187   1.093376   2.165434   6.806977   8.164536
    19  H    2.768708   2.176049   1.092675   7.894944   9.265594
    20  H    3.457121   2.171032   1.090618   8.734970  10.122012
    21  H    2.768694   2.176046   1.092674   7.894939   9.265614
    22  H    4.819890   6.255537   7.276749   1.079116   2.140727
    23  Cl   7.608396   9.045955  10.048971   2.675627   1.737054
    24  C    9.020987  10.241970  11.519062   3.815542   2.533898
    25  H    8.062013   8.996961  10.434933   3.867162   3.374415
    26  H    5.967048   6.714014   8.200762   3.399338   3.847290
    27  F    9.756108  10.864975  12.222197   4.779671   3.655562
    28  F    9.519074  10.788763  12.009759   4.311940   3.007207
    29  F    9.518973  10.788652  12.009632   4.311965   3.007245
                   11         12         13         14         15
    11  C    0.000000
    12  C    1.392099   0.000000
    13  C    2.414046   1.382335   0.000000
    14  H    4.716905   3.904737   2.525689   0.000000
    15  H    7.632633   7.401455   6.207353   4.169067   0.000000
    16  H    7.632554   7.401370   6.207290   4.169072   1.766596
    17  H    8.798115   8.184661   6.832067   4.360173   3.061188
    18  H    8.798185   8.184739   6.832127   4.360171   2.503079
    19  H   10.179462   9.850072   8.581021   6.275543   3.137801
    20  H   10.899124  10.391934   9.051047   6.580249   3.778479
    21  H   10.179509   9.850126   8.581058   6.275534   2.593840
    22  H    3.402413   3.863802   3.400498   3.720236   4.743812
    23  Cl   2.728189   4.006034   4.499187   6.003250   7.473742
    24  C    1.503726   2.507394   3.785940   6.191390   9.084963
    25  H    2.141796   1.082379   2.136514   4.583248   8.318142
    26  H    3.392681   2.138726   1.084711   2.292828   6.351033
    27  F    2.350267   2.683880   4.065665   6.588274   9.891289
    28  F    2.363176   3.434048   4.612417   6.901200   9.433458
    29  F    2.363178   3.434016   4.612390   6.901174   9.633118
                   16         17         18         19         20
    16  H    0.000000
    17  H    2.503080   0.000000
    18  H    3.061189   1.757882   0.000000
    19  H    2.593853   2.526089   3.079523   0.000000
    20  H    3.778484   2.509710   2.509700   1.762533   0.000000
    21  H    3.137781   3.079521   2.526095   1.764803   1.762533
    22  H    4.743840   6.536155   6.536136   7.298716   8.273640
    23  Cl   7.473708   9.294074   9.294102  10.023873  11.058180
    24  C    9.084867  10.295348  10.295434  11.648146  12.397623
    25  H    8.318042   8.897337   8.897433  10.707744  11.155662
    26  H    6.350968   6.563781   6.563847   8.550696   8.839666
    27  F    9.891187  10.841952  10.842048  12.408817  13.035704
    28  F    9.633123  10.964261  10.790130  12.179149  12.918111
    29  F    9.433256  10.789934  10.964241  12.021798  12.917983
                   21         22         23         24         25
    21  H    0.000000
    22  H    7.298681   0.000000
    23  Cl  10.023881   2.791325   0.000000
    24  C   11.648208   4.673913   3.085411   0.000000
    25  H   10.707814   4.946180   4.868848   2.696939   0.000000
    26  H    8.550740   4.301587   5.583883   4.645667   2.456243
    27  F   12.408888   5.744214   4.421587   1.342511   2.307263
    28  F   12.021992   5.028310   3.072998   1.339673   3.654534
    29  F   12.179084   5.028349   3.073091   1.339674   3.654482
                   26         27         28         29
    26  H    0.000000
    27  F    4.679992   0.000000
    28  F    5.497000   2.152881   0.000000
    29  F    5.496961   2.152881   2.156004   0.000000
 Stoichiometry    C11H11ClF3NO2
 Framework group  C1[X(C11H11ClF3NO2)]
 Deg. of freedom    81
 Full point group                 C1      NOp   1
 Largest Abelian subgroup         C1      NOp   1
 Largest concise Abelian subgroup C1      NOp   1
                         Standard orientation:                         
 ---------------------------------------------------------------------
 Center     Atomic      Atomic             Coordinates (Angstroms)
 Number     Number       Type             X           Y           Z
 ---------------------------------------------------------------------
      1          6           0       -0.217431   -0.719217   -0.000145
      2          7           0       -1.600966   -0.912676   -0.000225
      3          6           0       -2.583150    0.048274   -0.000081
      4          8           0       -2.417410    1.239522   -0.000008
      5          8           0       -3.781450   -0.557534   -0.000035
      6          6           0       -4.916295    0.323342    0.000056
      7          6           0       -6.163565   -0.533535    0.000071
      8          6           0       -7.419709    0.333484    0.000176
      9          6           0        0.375662    0.545769   -0.000138
     10          6           0        1.759535    0.644366   -0.000060
     11          6           0        2.577239   -0.485396    0.000002
     12          6           0        1.969480   -1.737820   -0.000017
     13          6           0        0.592523   -1.859630   -0.000091
     14          1           0       -1.933159   -1.865793   -0.000206
     15          1           0       -4.864189    0.964486   -0.883212
     16          1           0       -4.864106    0.964398    0.883384
     17          1           0       -6.148958   -1.183751    0.878978
     18          1           0       -6.149043   -1.183661   -0.878904
     19          1           0       -7.457929    0.976736    0.882618
     20          1           0       -8.319989   -0.282100    0.000174
     21          1           0       -7.457999    0.976844   -0.882184
     22          1           0       -0.227655    1.440475   -0.000184
     23         17           0        2.446813    2.239674   -0.000052
     24          6           0        4.077250   -0.379760    0.000091
     25          1           0        2.586405   -2.627172    0.000028
     26          1           0        0.139874   -2.845382   -0.000104
     27          9           0        4.649514   -1.594194    0.000085
     28          9           0        4.541378    0.266243   -1.077865
     29          9           0        4.541258    0.266177    1.078139
 ---------------------------------------------------------------------
 Rotational constants (GHZ):      1.1310639      0.1272999      0.1170104
 General basis read from cards:  (6D, 7F)
 There are   368 symmetry adapted cartesian basis functions of A   symmetry.
 There are   368 symmetry adapted basis functions of A   symmetry.
   368 basis functions,   644 primitive gaussians,   368 cartesian basis functions
    72 alpha electrons       72 beta electrons
       nuclear repulsion energy      1439.0340644238 Hartrees.
 NAtoms=   29 NActive=   29 NUniq=   29 SFac= 1.00D+00 NAtFMM=   60 NAOKFM=F Big=F
 Integral buffers will be    131072 words long.
 Raffenetti 1 integral format.
 Two-electron integral symmetry is turned on.
 One-electron integrals computed using PRISM.
 NBasis=   368 RedAO= T EigKep=  2.11D-06  NBF=   368
 NBsUse=   366 1.00D-06 EigRej=  9.41D-07 NBFU=   366
 ExpMin= 4.38D-02 ExpMax= 2.52D+04 ExpMxC= 3.78D+03 IAcc=3 IRadAn=         5 AccDes= 0.00D+00
 Harris functional with IExCor=  205 and IRadAn=       5 diagonalized for initial guess.
 HarFok:  IExCor=  205 AccDes= 0.00D+00 IRadAn=         5 IDoV= 1 UseB2=F ITyADJ=14
 ICtDFT=  3500011 ScaDFX=  1.000000  1.000000  1.000000  1.000000
 FoFCou: FMM=F IPFlag=           0 FMFlag=      100000 FMFlg1=           0
         NFxFlg=           0 DoJE=T BraDBF=F KetDBF=T FulRan=T
         wScrn=  0.000000 ICntrl=     500 IOpCl=  0 I1Cent=   200000004 NGrid=           0
         NMat0=    1 NMatS0=      1 NMatT0=    0 NMatD0=    1 NMtDS0=    0 NMtDT0=    0
 Petite list used in FoFCou.
 Requested convergence on RMS density matrix=1.00D-08 within 128 cycles.
 Requested convergence on MAX density matrix=1.00D-06.
 Requested convergence on             energy=1.00D-06.
 No special actions if energy rises.
 Initial convergence to 1.0D-05 achieved.  Increase integral accuracy.
 SCF Done:  E(RHF) =  -1385.00007738     A.U. after   17 cycles
            NFock= 17  Conv=0.36D-08     -V/T= 2.0017
 ExpMin= 4.38D-02 ExpMax= 2.52D+04 ExpMxC= 3.78D+03 IAcc=3 IRadAn=         5 AccDes= 0.00D+00
 HarFok:  IExCor=  205 AccDes= 0.00D+00 IRadAn=         5 IDoV=-2 UseB2=F ITyADJ=14
 ICtDFT= 12500011 ScaDFX=  1.000000  1.000000  1.000000  1.000000
 Range of M.O.s used for correlation:    23   366
 NBasis=   368 NAE=    72 NBE=    72 NFC=    22 NFV=     0
 NROrb=    344 NOA=    50 NOB=    50 NVA=   294 NVB=   294

 **** Warning!!: The largest alpha MO coefficient is  0.13811112D+03

 Fully direct method using O(OVN) memory.
 JobTyp=1 Pass  1:  I=   1 to  50 NPSUse=  4 ParTrn=T ParDer=T DoDerP=F.
 Spin components of T(2) and E(2):
     alpha-alpha T2 =       0.1138489120D+00 E2=     -0.3551676482D+00
     alpha-beta  T2 =       0.5828621383D+00 E2=     -0.1881037332D+01
     beta-beta   T2 =       0.1138489120D+00 E2=     -0.3551676482D+00
 ANorm=    0.1345570497D+01
 E2 =    -0.2591372628D+01 EUMP2 =    -0.13875914500116D+04

 **********************************************************************

            Population analysis using the SCF density.

 **********************************************************************

 Orbital symmetries:
       Occupied  (A) (A) (A) (A) (A) (A) (A) (A) (A) (A) (A) (A)
                 (A) (A) (A) (A) (A) (A) (A) (A) (A) (A) (A) (A)
                 (A) (A) (A) (A) (A) (A) (A) (A) (A) (A) (A) (A)
                 (A) (A) (A) (A) (A) (A) (A) (A) (A) (A) (A) (A)
                 (A) (A) (A) (A) (A) (A) (A) (A) (A) (A) (A) (A)
                 (A) (A) (A) (A) (A) (A) (A) (A) (A) (A) (A) (A)
       Virtual   (A) (A) (A) (A) (A) (A) (A) (A) (A) (A) (A) (A)
                 (A) (A) (A) (A) (A) (A) (A) (A) (A) (A) (A) (A)
                 (A) (A) (A) (A) (A) (A) (A) (A) (A) (A) (A) (A)
                 (A) (A) (A) (A) (A) (A) (A) (A) (A) (A) (A) (A)
                 (A) (A) (A) (A) (A) (A) (A) (A) (A) (A) (A) (A)
                 (A) (A) (A) (A) (A) (A) (A) (A) (A) (A) (A) (A)
                 (A) (A) (A) (A) (A) (A) (A) (A) (A) (A) (A) (A)
                 (A) (A) (A) (A) (A) (A) (A) (A) (A) (A) (A) (A)
                 (A) (A) (A) (A) (A) (A) (A) (A) (A) (A) (A) (A)
                 (A) (A) (A) (A) (A) (A) (A) (A) (A) (A) (A) (A)
                 (A) (A) (A) (A) (A) (A) (A) (A) (A) (A) (A) (A)
                 (A) (A) (A) (A) (A) (A) (A) (A) (A) (A) (A) (A)
                 (A) (A) (A) (A) (A) (A) (A) (A) (A) (A) (A) (A)
                 (A) (A) (A) (A) (A) (A) (A) (A) (A) (A) (A) (A)
                 (A) (A) (A) (A) (A) (A) (A) (A) (A) (A) (A) (A)
                 (A) (A) (A) (A) (A) (A) (A) (A) (A) (A) (A) (A)
                 (A) (A) (A) (A) (A) (A) (A) (A) (A) (A) (A) (A)
                 (A) (A) (A) (A) (A) (A) (A) (A) (A) (A) (A) (A)
                 (A) (A) (A) (A) (A) (A) (A) (A) (A) (A) (A) (A)
                 (A) (A) (A) (A) (A) (A) (A) (A) (A) (A) (A) (A)
                 (A) (A) (A) (A) (A) (A) (A) (A) (A) (A) (A) (A)
                 (A) (A) (A) (A) (A) (A) (A) (A) (A) (A) (A) (A)
                 (A) (A) (A) (A) (A) (A) (A) (A) (A) (A) (A) (A)
                 (A) (A) (A) (A) (A) (A) (A) (A) (A) (A) (A) (A)
                 (A) (A) (A) (A) (A) (A)
 The electronic state is 1-A.
 Alpha  occ. eigenvalues -- -104.83930 -26.35372 -26.34650 -26.34649 -20.63310
 Alpha  occ. eigenvalues --  -20.56915 -15.63798 -11.52028 -11.43739 -11.33514
 Alpha  occ. eigenvalues --  -11.33007 -11.30373 -11.28117 -11.27911 -11.26700
 Alpha  occ. eigenvalues --  -11.26099 -11.24342 -11.23435 -10.57189  -8.04133
 Alpha  occ. eigenvalues --   -8.03781  -8.03779  -1.73335  -1.63670  -1.63223
 Alpha  occ. eigenvalues --   -1.49642  -1.38855  -1.29354  -1.21308  -1.13751
 Alpha  occ. eigenvalues --   -1.09258  -1.07249  -1.02769  -0.98326  -0.95185
 Alpha  occ. eigenvalues --   -0.89381  -0.86828  -0.83900  -0.82443  -0.82094
 Alpha  occ. eigenvalues --   -0.81371  -0.80179  -0.76888  -0.73537  -0.71226
 Alpha  occ. eigenvalues --   -0.70871  -0.70847  -0.68808  -0.66812  -0.66302
 Alpha  occ. eigenvalues --   -0.65932  -0.64933  -0.64488  -0.64372  -0.63001
 Alpha  occ. eigenvalues --   -0.61518  -0.60640  -0.59083  -0.56780  -0.55968
 Alpha  occ. eigenvalues --   -0.55741  -0.53612  -0.53085  -0.51475  -0.50453
 Alpha  occ. eigenvalues --   -0.49900  -0.47979  -0.47643  -0.46326  -0.46044
 Alpha  occ. eigenvalues --   -0.36021  -0.34104
 Alpha virt. eigenvalues --    0.05291   0.07430   0.07885   0.08015   0.08317
 Alpha virt. eigenvalues --    0.08761   0.09134   0.09491   0.09867   0.10988
 Alpha virt. eigenvalues --    0.11185   0.11231   0.12265   0.12733   0.12825
 Alpha virt. eigenvalues --    0.13377   0.14090   0.14755   0.14891   0.15139
 Alpha virt. eigenvalues --    0.15714   0.15764   0.17244   0.17563   0.17986
 Alpha virt. eigenvalues --    0.18657   0.19242   0.20051   0.20408   0.21072
 Alpha virt. eigenvalues --    0.21596   0.22019   0.22700   0.23332   0.23792
 Alpha virt. eigenvalues --    0.24198   0.25789   0.26045   0.26438   0.27441
 Alpha virt. eigenvalues --    0.27925   0.28347   0.28652   0.28987   0.30170
 Alpha virt. eigenvalues --    0.30584   0.31679   0.31753   0.31967   0.32549
 Alpha virt. eigenvalues --    0.32929   0.33520   0.33548   0.33939   0.34275
 Alpha virt. eigenvalues --    0.35735   0.36339   0.37037   0.37652   0.38570
 Alpha virt. eigenvalues --    0.38692   0.38952   0.40091   0.41221   0.41359
 Alpha virt. eigenvalues --    0.41754   0.41836   0.42211   0.43000   0.43484
 Alpha virt. eigenvalues --    0.43644   0.44068   0.44292   0.44618   0.46043
 Alpha virt. eigenvalues --    0.46273   0.46786   0.47308   0.47634   0.47899
 Alpha virt. eigenvalues --    0.48689   0.49306   0.49696   0.50185   0.50669
 Alpha virt. eigenvalues --    0.51405   0.53714   0.54693   0.55553   0.56480
 Alpha virt. eigenvalues --    0.56518   0.57566   0.58509   0.59686   0.60318
 Alpha virt. eigenvalues --    0.61570   0.62590   0.65257   0.67808   0.68510
 Alpha virt. eigenvalues --    0.74495   0.76809   0.79516   0.83296   0.83795
 Alpha virt. eigenvalues --    0.84115   0.86697   0.87139   0.88144   0.89636
 Alpha virt. eigenvalues --    0.91290   0.91697   0.91939   0.92139   0.93405
 Alpha virt. eigenvalues --    0.93567   0.93995   0.94782   0.96844   0.97893
 Alpha virt. eigenvalues --    0.98681   1.00968   1.01431   1.01489   1.02800
 Alpha virt. eigenvalues --    1.04756   1.05009   1.07619   1.08048   1.08810
 Alpha virt. eigenvalues --    1.09129   1.12582   1.14944   1.16747   1.17005
 Alpha virt. eigenvalues --    1.18494   1.19159   1.19849   1.20364   1.21639
 Alpha virt. eigenvalues --    1.22711   1.23937   1.24606   1.25406   1.27484
 Alpha virt. eigenvalues --    1.28100   1.29929   1.30454   1.33094   1.34027
 Alpha virt. eigenvalues --    1.35133   1.36424   1.38508   1.38892   1.40240
 Alpha virt. eigenvalues --    1.41304   1.43224   1.44678   1.45250   1.46446
 Alpha virt. eigenvalues --    1.47081   1.47417   1.50342   1.51389   1.53484
 Alpha virt. eigenvalues --    1.54691   1.56469   1.58814   1.59965   1.60623
 Alpha virt. eigenvalues --    1.63272   1.65616   1.67019   1.68251   1.69887
 Alpha virt. eigenvalues --    1.70022   1.71703   1.72754   1.76070   1.78205
 Alpha virt. eigenvalues --    1.79268   1.80791   1.82206   1.84687   1.87231
 Alpha virt. eigenvalues --    1.88342   1.91279   1.93534   1.94002   1.94077
 Alpha virt. eigenvalues --    1.96890   1.97043   1.97639   1.98307   2.00015
 Alpha virt. eigenvalues --    2.01562   2.02767   2.04432   2.05651   2.08194
 Alpha virt. eigenvalues --    2.09684   2.11339   2.11864   2.11966   2.12913
 Alpha virt. eigenvalues --    2.12935   2.15816   2.16017   2.16262   2.17686
 Alpha virt. eigenvalues --    2.19253   2.19644   2.22576   2.24865   2.26321
 Alpha virt. eigenvalues --    2.27294   2.28969   2.30523   2.32546   2.33516
 Alpha virt. eigenvalues --    2.35147   2.35472   2.36047   2.37272   2.39462
 Alpha virt. eigenvalues --    2.40279   2.41617   2.42552   2.43701   2.43919
 Alpha virt. eigenvalues --    2.44901   2.45572   2.49089   2.49834   2.53799
 Alpha virt. eigenvalues --    2.56137   2.56316   2.57858   2.58992   2.59238
 Alpha virt. eigenvalues --    2.60939   2.66809   2.66836   2.70144   2.71397
 Alpha virt. eigenvalues --    2.73531   2.73957   2.80257   2.81362   2.82929
 Alpha virt. eigenvalues --    2.85407   2.91369   2.95682   2.96799   2.97878
 Alpha virt. eigenvalues --    2.99474   3.06534   3.08582   3.10057   3.10930
 Alpha virt. eigenvalues --    3.13088   3.14662   3.15594   3.17539   3.25576
 Alpha virt. eigenvalues --    3.28075   3.31975   3.37934   3.48537   3.51119
 Alpha virt. eigenvalues --    3.52225   3.60575   3.61576   3.68602   3.72197
 Alpha virt. eigenvalues --    3.80832   4.59975   4.65701   4.67721   4.69255
 Alpha virt. eigenvalues --    4.76099   4.79427   4.80349   4.83325   4.85881
 Alpha virt. eigenvalues --    4.87494   4.96948   5.00846   5.04012   5.11074
 Alpha virt. eigenvalues --    5.19826   5.98515   6.46417   7.33141
          Condensed to atoms (all electrons):
               1          2          3          4          5          6
     1  C   12.220135  -0.005719  -0.616144  -0.348830  -0.136170  -0.267124
     2  N   -0.005719   7.609750   0.424942  -0.015403  -0.080777  -0.133028
     3  C   -0.616144   0.424942   5.918231   0.549967   0.317208  -0.480557
     4  O   -0.348830  -0.015403   0.549967   8.247127  -0.150909  -0.158575
     5  O   -0.136170  -0.080777   0.317208  -0.150909   8.529954   0.151970
     6  C   -0.267124  -0.133028  -0.480557  -0.158575   0.151970   6.576514
     7  C    0.000644   0.018997  -0.001923   0.020517  -0.127596  -0.147048
     8  C   -0.004144   0.001674  -0.068093   0.000892   0.021092  -0.045751
     9  C   -1.382950  -0.294510   0.023994   0.416086   0.042933  -0.073136
    10  C   -2.138792   0.080113   0.558211   0.097733   0.008202   0.016819
    11  C   -0.225309  -0.110954  -0.733786   0.006307  -0.002484  -0.064878
    12  C   -0.438146   0.107160  -0.101960  -0.007191   0.003909   0.002820
    13  C    0.647712   0.038665  -0.529348  -0.061650  -0.025278  -0.083737
    14  H   -0.022967   0.272131  -0.029799   0.003750   0.002978  -0.011964
    15  H    0.005032   0.004324   0.041208  -0.004937  -0.036304   0.370221
    16  H    0.005043   0.004317   0.041219  -0.004938  -0.036302   0.370211
    17  H    0.000068  -0.000409   0.002075  -0.000308  -0.001447  -0.050239
    18  H    0.000072  -0.000411   0.002093  -0.000308  -0.001448  -0.050249
    19  H   -0.000019  -0.000051  -0.002138  -0.000067  -0.000786  -0.024975
    20  H    0.000060   0.000026   0.004592   0.000015  -0.000152   0.067235
    21  H   -0.000020  -0.000051  -0.002146  -0.000067  -0.000785  -0.024978
    22  H    0.044799  -0.009702   0.073605  -0.004901   0.000625   0.008770
    23  Cl   0.065326  -0.001033   0.019427   0.001447   0.000264   0.002078
    24  C   -1.310893   0.020167  -0.120264   0.001187   0.001662  -0.003393
    25  H    0.043334  -0.000489   0.004016  -0.000003  -0.000004   0.000041
    26  H    0.062524  -0.009697  -0.032366   0.000102  -0.000244  -0.001842
    27  F    0.028478  -0.000045   0.000029   0.000000   0.000000  -0.000002
    28  F    0.008641  -0.000016  -0.000554  -0.000000   0.000000  -0.000004
    29  F    0.008662  -0.000016  -0.000553  -0.000000   0.000000  -0.000004
               7          8          9         10         11         12
     1  C    0.000644  -0.004144  -1.382950  -2.138792  -0.225309  -0.438146
     2  N    0.018997   0.001674  -0.294510   0.080113  -0.110954   0.107160
     3  C   -0.001923  -0.068093   0.023994   0.558211  -0.733786  -0.101960
     4  O    0.020517   0.000892   0.416086   0.097733   0.006307  -0.007191
     5  O   -0.127596   0.021092   0.042933   0.008202  -0.002484   0.003909
     6  C   -0.147048  -0.045751  -0.073136   0.016819  -0.064878   0.002820
     7  C    5.735893   0.208952  -0.040861  -0.005937  -0.001302   0.001218
     8  C    0.208952   5.448274  -0.002332   0.000049  -0.000460  -0.000225
     9  C   -0.040861  -0.002332   9.040522   1.943515  -0.942307  -0.869072
    10  C   -0.005937   0.000049   1.943515  15.591711  -3.002023  -1.976808
    11  C   -0.001302  -0.000460  -0.942307  -3.002023  18.022274  -2.205969
    12  C    0.001218  -0.000225  -0.869072  -1.976808  -2.205969   9.448499
    13  C    0.020368  -0.001091  -1.949978  -3.415137  -0.047074   0.875769
    14  H   -0.000706  -0.000257   0.032482  -0.000088   0.008551   0.008418
    15  H   -0.037925  -0.006733  -0.002839  -0.000082  -0.000007   0.000011
    16  H   -0.037930  -0.006733  -0.002838  -0.000082  -0.000007   0.000011
    17  H    0.414597  -0.032236  -0.000260  -0.000001   0.000001   0.000002
    18  H    0.414595  -0.032243  -0.000260  -0.000001   0.000001   0.000002
    19  H   -0.025343   0.407326  -0.000050  -0.000001  -0.000000   0.000000
    20  H   -0.104145   0.395050   0.000033   0.000001   0.000000  -0.000000
    21  H   -0.025343   0.407337  -0.000050  -0.000001  -0.000000   0.000000
    22  H   -0.000046   0.000029   0.311022  -0.087200   0.003396  -0.011455
    23  Cl  -0.000083   0.000013   0.126485  -0.388164  -0.201514   0.089980
    24  C   -0.000320  -0.000021  -0.426153  -1.515372  -3.858270   0.989367
    25  H    0.000000   0.000000  -0.006394   0.006837   0.075768   0.279152
    26  H   -0.000021  -0.000005   0.016115  -0.015104   0.066896  -0.025782
    27  F   -0.000000  -0.000000  -0.001646   0.002645   0.040161  -0.050535
    28  F   -0.000000  -0.000000  -0.003301  -0.104944   0.191682  -0.042838
    29  F   -0.000000  -0.000000  -0.003275  -0.104910   0.191658  -0.042851
              13         14         15         16         17         18
     1  C    0.647712  -0.022967   0.005032   0.005043   0.000068   0.000072
     2  N    0.038665   0.272131   0.004324   0.004317  -0.000409  -0.000411
     3  C   -0.529348  -0.029799   0.041208   0.041219   0.002075   0.002093
     4  O   -0.061650   0.003750  -0.004937  -0.004938  -0.000308  -0.000308
     5  O   -0.025278   0.002978  -0.036304  -0.036302  -0.001447  -0.001448
     6  C   -0.083737  -0.011964   0.370221   0.370211  -0.050239  -0.050249
     7  C    0.020368  -0.000706  -0.037925  -0.037930   0.414597   0.414595
     8  C   -0.001091  -0.000257  -0.006733  -0.006733  -0.032236  -0.032243
     9  C   -1.949978   0.032482  -0.002839  -0.002838  -0.000260  -0.000260
    10  C   -3.415137  -0.000088  -0.000082  -0.000082  -0.000001  -0.000001
    11  C   -0.047074   0.008551  -0.000007  -0.000007   0.000001   0.000001
    12  C    0.875769   0.008418   0.000011   0.000011   0.000002   0.000002
    13  C   10.406674  -0.006951   0.000916   0.000914   0.000257   0.000256
    14  H   -0.006951   0.240555  -0.000002  -0.000002  -0.000005  -0.000005
    15  H    0.000916  -0.000002   0.489053  -0.035375   0.003151  -0.003635
    16  H    0.000914  -0.000002  -0.035375   0.489055  -0.003635   0.003151
    17  H    0.000257  -0.000005   0.003151  -0.003635   0.495837  -0.029244
    18  H    0.000256  -0.000005  -0.003635   0.003151  -0.029244   0.495838
    19  H    0.000011  -0.000000   0.000163   0.001387  -0.003215   0.003311
    20  H   -0.000010  -0.000000  -0.000115  -0.000115  -0.002579  -0.002579
    21  H    0.000011  -0.000000   0.001387   0.000163   0.003311  -0.003215
    22  H   -0.005034  -0.000097  -0.000003  -0.000003  -0.000000  -0.000000
    23  Cl   0.051959   0.000006  -0.000000  -0.000000   0.000000   0.000000
    24  C    0.289845   0.000975  -0.000003  -0.000003  -0.000000  -0.000000
    25  H   -0.053957  -0.000006   0.000000   0.000000  -0.000000  -0.000000
    26  H    0.242377   0.004032  -0.000000  -0.000000  -0.000000  -0.000000
    27  F    0.045958   0.000000  -0.000000  -0.000000  -0.000000  -0.000000
    28  F    0.004135   0.000000  -0.000000   0.000000  -0.000000   0.000000
    29  F    0.004127   0.000000   0.000000  -0.000000   0.000000  -0.000000
              19         20         21         22         23         24
     1  C   -0.000019   0.000060  -0.000020   0.044799   0.065326  -1.310893
     2  N   -0.000051   0.000026  -0.000051  -0.009702  -0.001033   0.020167
     3  C   -0.002138   0.004592  -0.002146   0.073605   0.019427  -0.120264
     4  O   -0.000067   0.000015  -0.000067  -0.004901   0.001447   0.001187
     5  O   -0.000786  -0.000152  -0.000785   0.000625   0.000264   0.001662
     6  C   -0.024975   0.067235  -0.024978   0.008770   0.002078  -0.003393
     7  C   -0.025343  -0.104145  -0.025343  -0.000046  -0.000083  -0.000320
     8  C    0.407326   0.395050   0.407337   0.000029   0.000013  -0.000021
     9  C   -0.000050   0.000033  -0.000050   0.311022   0.126485  -0.426153
    10  C   -0.000001   0.000001  -0.000001  -0.087200  -0.388164  -1.515372
    11  C   -0.000000   0.000000  -0.000000   0.003396  -0.201514  -3.858270
    12  C    0.000000  -0.000000   0.000000  -0.011455   0.089980   0.989367
    13  C    0.000011  -0.000010   0.000011  -0.005034   0.051959   0.289845
    14  H   -0.000000  -0.000000  -0.000000  -0.000097   0.000006   0.000975
    15  H    0.000163  -0.000115   0.001387  -0.000003  -0.000000  -0.000003
    16  H    0.001387  -0.000115   0.000163  -0.000003  -0.000000  -0.000003
    17  H   -0.003215  -0.002579   0.003311  -0.000000   0.000000  -0.000000
    18  H    0.003311  -0.002579  -0.003215  -0.000000   0.000000  -0.000000
    19  H    0.503852  -0.024716  -0.031363  -0.000000  -0.000000  -0.000000
    20  H   -0.024716   0.487715  -0.024716   0.000000   0.000000   0.000000
    21  H   -0.031363  -0.024716   0.503854  -0.000000  -0.000000  -0.000000
    22  H   -0.000000   0.000000  -0.000000   0.341862  -0.002612   0.002461
    23  Cl  -0.000000   0.000000  -0.000000  -0.002612  16.928469   0.025312
    24  C   -0.000000   0.000000  -0.000000   0.002461   0.025312  10.025801
    25  H    0.000000  -0.000000   0.000000   0.000007   0.000953  -0.020450
    26  H   -0.000000   0.000000  -0.000000  -0.000075  -0.000162   0.023170
    27  F   -0.000000   0.000000  -0.000000   0.000009   0.000836   0.050575
    28  F   -0.000000   0.000000  -0.000000   0.000008  -0.009767   0.066652
    29  F   -0.000000   0.000000  -0.000000   0.000008  -0.009761   0.066613
              25         26         27         28         29
     1  C    0.043334   0.062524   0.028478   0.008641   0.008662
     2  N   -0.000489  -0.009697  -0.000045  -0.000016  -0.000016
     3  C    0.004016  -0.032366   0.000029  -0.000554  -0.000553
     4  O   -0.000003   0.000102   0.000000  -0.000000  -0.000000
     5  O   -0.000004  -0.000244   0.000000   0.000000   0.000000
     6  C    0.000041  -0.001842  -0.000002  -0.000004  -0.000004
     7  C    0.000000  -0.000021  -0.000000  -0.000000  -0.000000
     8  C    0.000000  -0.000005  -0.000000  -0.000000  -0.000000
     9  C   -0.006394   0.016115  -0.001646  -0.003301  -0.003275
    10  C    0.006837  -0.015104   0.002645  -0.104944  -0.104910
    11  C    0.075768   0.066896   0.040161   0.191682   0.191658
    12  C    0.279152  -0.025782  -0.050535  -0.042838  -0.042851
    13  C   -0.053957   0.242377   0.045958   0.004135   0.004127
    14  H   -0.000006   0.004032   0.000000   0.000000   0.000000
    15  H    0.000000  -0.000000  -0.000000  -0.000000   0.000000
    16  H    0.000000  -0.000000  -0.000000   0.000000  -0.000000
    17  H   -0.000000  -0.000000  -0.000000  -0.000000   0.000000
    18  H   -0.000000  -0.000000  -0.000000   0.000000  -0.000000
    19  H    0.000000  -0.000000  -0.000000  -0.000000  -0.000000
    20  H   -0.000000   0.000000   0.000000   0.000000   0.000000
    21  H    0.000000  -0.000000  -0.000000  -0.000000  -0.000000
    22  H    0.000007  -0.000075   0.000009   0.000008   0.000008
    23  Cl   0.000953  -0.000162   0.000836  -0.009767  -0.009761
    24  C   -0.020450   0.023170   0.050575   0.066652   0.066613
    25  H    0.392899  -0.000741  -0.000454   0.000018   0.000018
    26  H   -0.000741   0.432455   0.000072   0.000015   0.000015
    27  F   -0.000454   0.000072   9.361465  -0.018829  -0.018831
    28  F    0.000018   0.000015  -0.018829   9.303638  -0.028835
    29  F    0.000018   0.000015  -0.018831  -0.028835   9.303633
 Mulliken charges:
               1
     1  C   -0.243300
     2  N   -0.919955
     3  C    0.738813
     4  O   -0.587045
     5  O   -0.480110
     6  C    0.054807
     7  C   -0.279252
     8  C   -0.690363
     9  C    0.049027
    10  C    0.448811
    11  C   -1.210350
    12  C   -0.033484
    13  C   -0.450709
    14  H    0.498971
    15  H    0.212492
    16  H    0.212492
    17  H    0.204278
    18  H    0.204277
    19  H    0.196672
    20  H    0.204400
    21  H    0.196671
    22  H    0.334524
    23  Cl   0.300543
    24  C    1.691356
    25  H    0.279454
    26  H    0.238267
    27  F   -0.439887
    28  F   -0.365701
    29  F   -0.365700
 Sum of Mulliken charges =  -0.00000
 Mulliken charges with hydrogens summed into heavy atoms:
               1
     1  C   -0.243300
     2  N   -0.420984
     3  C    0.738813
     4  O   -0.587045
     5  O   -0.480110
     6  C    0.479791
     7  C    0.129303
     8  C   -0.092619
     9  C    0.383552
    10  C    0.448811
    11  C   -1.210350
    12  C    0.245969
    13  C   -0.212442
    23  Cl   0.300543
    24  C    1.691356
    27  F   -0.439887
    28  F   -0.365701
    29  F   -0.365700
 Electronic spatial extent (au):  <R**2>=           8541.1849
 Charge=             -0.0000 electrons
 Dipole moment (field-independent basis, Debye):
    X=             -5.8170    Y=             -3.7974    Z=             -0.0001  Tot=              6.9468
 Quadrupole moment (field-independent basis, Debye-Ang):
   XX=           -109.1166   YY=           -107.9070   ZZ=           -113.7703
   XY=              0.7827   XZ=             -0.0005   YZ=             -0.0001
 Traceless Quadrupole moment (field-independent basis, Debye-Ang):
   XX=              1.1480   YY=              2.3577   ZZ=             -3.5057
   XY=              0.7827   XZ=             -0.0005   YZ=             -0.0001
 Octapole moment (field-independent basis, Debye-Ang**2):
  XXX=           -137.8829  YYY=            -19.8687  ZZZ=              0.0028  XYY=             27.5995
  XXY=             -2.1699  XXZ=              0.0009  XZZ=              9.9619  YZZ=              3.7700
  YYZ=             -0.0002  XYZ=              0.0003
 Hexadecapole moment (field-independent basis, Debye-Ang**3):
 XXXX=          -9102.2533 YYYY=           -967.7931 ZZZZ=           -201.8119 XXXY=              4.2324
 XXXZ=             -0.0027 YYYX=             18.3008 YYYZ=              0.0001 ZZZX=              0.0074
 ZZZY=             -0.0019 XXYY=          -1766.3077 XXZZ=          -1620.8654 YYZZ=           -215.0437
 XXYZ=             -0.0018 YYXZ=              0.0062 ZZXY=             -9.9763
 N-N= 1.439034064424D+03 E-N=-6.150738347270D+03  KE= 1.382615654427D+03
 1\1\GINC-R4298\SP\RMP2-FC\Gen\C11H11Cl1F3N1O2\ROOT\09-Dec-2019\0\\# MP
 2/Gen 6D SCF=Tight INT(grid=ultrafine) maxdisk=3489660928\\CP19CA.MP2_
 6-31pGd\\0,1\C,0,-6.298615771,1.2792363771,0.0196052719\N,0,-5.0005518
 645,0.7634560885,0.0439966176\C,0,-3.8183408511,1.4625764263,0.0025357
 782\O,0,-3.6965736178,2.6573374055,-0.0627471432\O,0,-2.7980977059,0.5
 907631029,0.0469194589\C,0,-1.4865965736,1.1760108927,0.0113261378\C,0
 ,-0.478379473,0.0490593663,0.0696261333\C,0,0.9476633498,0.5920979694,
 0.0359847812\C,0,-6.5744819764,2.6468797541,-0.0538669888\C,0,-7.89539
 22892,3.0707290688,-0.0731993507\C,0,-8.9578971681,2.1688472615,-0.021
 2777884\C,0,-8.6648023036,0.8099101308,0.0516854555\C,0,-7.3561195453,
 0.3651864962,0.0721827799\H,0,-4.9040983087,-0.2398115233,0.0981706318
 \H,0,-1.3825157253,1.8581318356,0.8585702577\H,0,-1.3876330063,1.76229
 83713,-0.9054173725\H,0,-0.6494076791,-0.6258006714,-0.7734539546\H,0,
 -0.6443128755,-0.5304384987,0.9818321872\H,0,1.1349757582,1.1591204278
 ,-0.8790768785\H,0,1.6760849049,-0.2185130859,0.0779241434\H,0,1.14007
 93239,1.254878052,0.8831188367\H,0,-5.7760323681,3.3716149943,-0.09543
 65743\Cl,0,-8.184342004,4.7811072467,-0.1652429118\C,0,-10.3899547129,
 2.6270679107,-0.0421712659\H,0,-9.4752001997,0.0935962777,0.0928336641
 \H,0,-7.1504007194,-0.6983030214,0.1293471464\F,0,-11.2341333454,1.584
 849866,0.0168168551\F,0,-10.6844115297,3.4221755871,0.9950473943\F,0,-
 10.6904317232,3.3052058912,-1.1577733024\\Version=ES64L-G09RevE.01\Sta
 te=1-A\HF=-1385.0000774\MP2=-1387.59145\RMSD=3.598e-09\PG=C01 [X(C11H1
 1Cl1F3N1O2)]\\@


 ONLY THE DAY DAWNS TO WHICH YOU ARE AWAKE.

                                 -- THOREAU
 Job cpu time:       0 days  0 hours 11 minutes 27.6 seconds.
 File lengths (MBytes):  RWF=     74 Int=      0 D2E=      0 Chk=      9 Scr=      1
 Normal termination of Gaussian 09 at Mon Dec  9 10:39:11 2019.
pbs_rusage has been removed.
Please contact help@nci.org.au if you require this functionality.
