 Entering Gaussian System, Link 0=/apps/gaussian/g16c01/g16/g16
 Initial command:
 /apps/gaussian/g16c01/g16/l1.exe "/jobfs/20783096.gadi-pbs/Gau-242180.inp" -scrdir="/jobfs/20783096.gadi-pbs/"
 Entering Link 1 = /apps/gaussian/g16c01/g16/l1.exe PID=    242181.
  
 Copyright (c) 1988-2019, Gaussian, Inc.  All Rights Reserved.
  
 This is part of the Gaussian(R) 16 program.  It is based on
 the Gaussian(R) 09 system (copyright 2009, Gaussian, Inc.),
 the Gaussian(R) 03 system (copyright 2003, Gaussian, Inc.),
 the Gaussian(R) 98 system (copyright 1998, Gaussian, Inc.),
 the Gaussian(R) 94 system (copyright 1995, Gaussian, Inc.),
 the Gaussian 92(TM) system (copyright 1992, Gaussian, Inc.),
 the Gaussian 90(TM) system (copyright 1990, Gaussian, Inc.),
 the Gaussian 88(TM) system (copyright 1988, Gaussian, Inc.),
 the Gaussian 86(TM) system (copyright 1986, Carnegie Mellon
 University), and the Gaussian 82(TM) system (copyright 1983,
 Carnegie Mellon University). Gaussian is a federally registered
 trademark of Gaussian, Inc.
  
 This software contains proprietary and confidential information,
 including trade secrets, belonging to Gaussian, Inc.
  
 This software is provided under written license and may be
 used, copied, transmitted, or stored only in accord with that
 written license.
  
 The following legend is applicable only to US Government
 contracts under FAR:
  
                    RESTRICTED RIGHTS LEGEND
  
 Use, reproduction and disclosure by the US Government is
 subject to restrictions as set forth in subparagraphs (a)
 and (c) of the Commercial Computer Software - Restricted
 Rights clause in FAR 52.227-19.
  
 Gaussian, Inc.
 340 Quinnipiac St., Bldg. 40, Wallingford CT 06492
  
  
 ---------------------------------------------------------------
 Warning -- This program may not be used in any manner that
 competes with the business of Gaussian, Inc. or will provide
 assistance to any competitor of Gaussian, Inc.  The licensee
 of this program is prohibited from giving any competitor of
 Gaussian, Inc. access to this program.  By using this program,
 the user acknowledges that Gaussian, Inc. is engaged in the
 business of creating and licensing software in the field of
 computational chemistry and represents and warrants to the
 licensee that it is not a competitor of Gaussian, Inc. and that
 it will not use this program in any manner prohibited above.
 ---------------------------------------------------------------
  

 Cite this work as:
 Gaussian 16, Revision C.01,
 M. J. Frisch, G. W. Trucks, H. B. Schlegel, G. E. Scuseria, 
 M. A. Robb, J. R. Cheeseman, G. Scalmani, V. Barone, 
 G. A. Petersson, H. Nakatsuji, X. Li, M. Caricato, A. V. Marenich, 
 J. Bloino, B. G. Janesko, R. Gomperts, B. Mennucci, H. P. Hratchian, 
 J. V. Ortiz, A. F. Izmaylov, J. L. Sonnenberg, D. Williams-Young, 
 F. Ding, F. Lipparini, F. Egidi, J. Goings, B. Peng, A. Petrone, 
 T. Henderson, D. Ranasinghe, V. G. Zakrzewski, J. Gao, N. Rega, 
 G. Zheng, W. Liang, M. Hada, M. Ehara, K. Toyota, R. Fukuda, 
 J. Hasegawa, M. Ishida, T. Nakajima, Y. Honda, O. Kitao, H. Nakai, 
 T. Vreven, K. Throssell, J. A. Montgomery, Jr., J. E. Peralta, 
 F. Ogliaro, M. J. Bearpark, J. J. Heyd, E. N. Brothers, K. N. Kudin, 
 V. N. Staroverov, T. A. Keith, R. Kobayashi, J. Normand, 
 K. Raghavachari, A. P. Rendell, J. C. Burant, S. S. Iyengar, 
 J. Tomasi, M. Cossi, J. M. Millam, M. Klene, C. Adamo, R. Cammi, 
 J. W. Ochterski, R. L. Martin, K. Morokuma, O. Farkas, 
 J. B. Foresman, and D. J. Fox, Gaussian, Inc., Wallingford CT, 2019.
 
 ******************************************
 Gaussian 16:  ES64L-G16RevC.01  3-Jul-2019
                13-Apr-2021 
 ******************************************
 %NprocShared=32
 Will use up to   32 processors via shared memory.
 %Mem=10000MB
 %chk=CP19CA_carboxy.M062X_6-311pGd_opt_GD3.chk
 ----------------------------------------------------------------------
 # M062X/6-311+G* SCF=Tight INT(grid=ultrafine) OPT=CalcFC IOP(2/17=4) 
 EmpiricalDispersion=GD3 MaxDisk=10000MB
 ----------------------------------------------------------------------
 1/10=4,18=20,19=15,26=4,38=1/1,3;
 2/9=110,12=2,17=4,18=5,40=1/2;
 3/5=4,6=6,7=11,11=2,25=1,30=1,71=2,74=-55,75=-5,124=31,140=1/1,2,3;
 4//1;
 5/5=2,32=2,38=5/2;
 8/6=4,10=90,11=11/1;
 11/6=1,8=1,9=11,15=111,16=1/1,2,10;
 10/6=1,13=1/2;
 6/7=2,8=2,9=2,10=2,28=1/1;
 7/10=1,25=1/1,2,3,16;
 1/10=4,18=20,19=15,26=4/3(2);
 2/9=110,17=4/2;
 99//99;
 2/9=110,17=4/2;
 3/5=4,6=6,7=11,11=2,25=1,30=1,71=1,74=-55,75=-5,124=31/1,2,3;
 4/5=5,16=3,69=1/1;
 5/5=2,32=2,38=5/2;
 7//1,2,3,16;
 1/18=20,19=15,26=4/3(-5);
 2/9=110,17=4/2;
 6/7=2,8=2,9=2,10=2,19=2,28=1/1;
 99/9=1/99;
 -------------------------------------
 CP19CA_carboxy.M062X_6-311pGd_opt_GD3
 -------------------------------------
 Symbolic Z-matrix:
 Charge = -1 Multiplicity = 1
 C                    -7.2396    0.64463   0.00801 
 N                    -5.96264   0.13787   0.21009 
 C                    -4.80634   0.70805  -0.21285 
 O                    -4.66686   1.7429   -0.83341 
 O                    -3.76141  -0.06028   0.16196 
 C                    -2.47839   0.41573  -0.21756 
 C                    -7.51082   1.83907  -0.67759 
 C                    -8.82387   2.25443  -0.82296 
 C                    -9.89392   1.52465  -0.30993 
 C                    -9.60355   0.33837   0.36959 
 C                    -8.30586  -0.10483   0.53281 
 H                    -5.88822  -0.77599   0.73966 
 H                    -6.7093    2.43205  -1.0893 
 Cl                   -9.0997    3.75324  -1.68769 
 C                    -11.31118   1.97566  -0.46862 
 H                    -10.41412  -0.25083   0.78019 
 H                    -8.10935  -1.03412   1.06865 
 F                    -12.17597   1.1194    0.1036 
 F                    -11.54738   3.17733   0.09273 
 F                    -11.68835   2.08324  -1.75746 
 O                    -7.78247  -2.81652   2.10712 
 O                    -5.70644  -2.17865   1.53936 
 C                    -6.54772  -2.95435   2.07309 
 C                    -5.97484  -4.20995   2.76234 
 H                    -6.29131  -4.16969   3.80984 
 H                    -6.49022  -5.07484   2.33281 
 C                    -4.46316  -4.35951   2.65348 
 H                    -4.15465  -4.40804   1.60763 
 H                    -3.95862  -3.49483   3.08767 
 H                    -4.11118  -5.26275   3.16303 
 C                    -1.32436   0.07612  -1.70371 
 H                    -1.4632   -0.79511  -2.30916 
 H                    -1.37193   0.69123  -2.57794 
 H                    -1.86829   0.16441   0.62477 
 H                    -2.82188   1.3659   -0.56982 
 C                     0.61599   0.068    -1.51824 
 H                     1.20187  -0.69326  -1.98953 
 H                     1.20881   0.81992  -1.99583 
 H                     0.68263   0.07215  -0.45032 
 
 Add virtual bond connecting atoms O22        and H12        Dist= 3.07D+00.
 Add virtual bond connecting atoms C31        and C6         Dist= 3.61D+00.
 Add virtual bond connecting atoms C36        and C31        Dist= 3.68D+00.

 GradGradGradGradGradGradGradGradGradGradGradGradGradGradGradGradGradGrad
 Berny optimization.
 Initialization pass.
                           ----------------------------
                           !    Initial Parameters    !
                           ! (Angstroms and Degrees)  !
 --------------------------                            --------------------------
 ! Name  Definition              Value          Derivative Info.                !
 --------------------------------------------------------------------------------
 ! R1    R(1,2)                  1.3886         calculate D2E/DX2 analytically  !
 ! R2    R(1,7)                  1.4037         calculate D2E/DX2 analytically  !
 ! R3    R(1,11)                 1.405          calculate D2E/DX2 analytically  !
 ! R4    R(2,3)                  1.3568         calculate D2E/DX2 analytically  !
 ! R5    R(2,12)                 1.0588         calculate D2E/DX2 analytically  !
 ! R6    R(3,4)                  1.2147         calculate D2E/DX2 analytically  !
 ! R7    R(3,5)                  1.3501         calculate D2E/DX2 analytically  !
 ! R8    R(5,6)                  1.4201         calculate D2E/DX2 analytically  !
 ! R9    R(6,31)                 1.912          calculate D2E/DX2 analytically  !
 ! R10   R(6,34)                 1.07           calculate D2E/DX2 analytically  !
 ! R11   R(6,35)                 1.07           calculate D2E/DX2 analytically  !
 ! R12   R(7,8)                  1.3848         calculate D2E/DX2 analytically  !
 ! R13   R(7,13)                 1.0787         calculate D2E/DX2 analytically  !
 ! R14   R(8,9)                  1.3931         calculate D2E/DX2 analytically  !
 ! R15   R(8,14)                 1.7522         calculate D2E/DX2 analytically  !
 ! R16   R(9,10)                 1.3976         calculate D2E/DX2 analytically  !
 ! R17   R(9,15)                 1.4957         calculate D2E/DX2 analytically  !
 ! R18   R(10,11)                1.381          calculate D2E/DX2 analytically  !
 ! R19   R(10,16)                1.0829         calculate D2E/DX2 analytically  !
 ! R20   R(11,17)                1.0906         calculate D2E/DX2 analytically  !
 ! R21   R(12,22)                1.6248         calculate D2E/DX2 analytically  !
 ! R22   R(15,18)                1.3448         calculate D2E/DX2 analytically  !
 ! R23   R(15,19)                1.3472         calculate D2E/DX2 analytically  !
 ! R24   R(15,20)                1.3472         calculate D2E/DX2 analytically  !
 ! R25   R(21,23)                1.2429         calculate D2E/DX2 analytically  !
 ! R26   R(22,23)                1.2627         calculate D2E/DX2 analytically  !
 ! R27   R(23,24)                1.5427         calculate D2E/DX2 analytically  !
 ! R28   R(24,25)                1.095          calculate D2E/DX2 analytically  !
 ! R29   R(24,26)                1.0946         calculate D2E/DX2 analytically  !
 ! R30   R(24,27)                1.523          calculate D2E/DX2 analytically  !
 ! R31   R(27,28)                1.0915         calculate D2E/DX2 analytically  !
 ! R32   R(27,29)                1.0912         calculate D2E/DX2 analytically  !
 ! R33   R(27,30)                1.0952         calculate D2E/DX2 analytically  !
 ! R34   R(31,32)                1.07           calculate D2E/DX2 analytically  !
 ! R35   R(31,33)                1.07           calculate D2E/DX2 analytically  !
 ! R36   R(31,36)                1.9492         calculate D2E/DX2 analytically  !
 ! R37   R(36,37)                1.07           calculate D2E/DX2 analytically  !
 ! R38   R(36,38)                1.07           calculate D2E/DX2 analytically  !
 ! R39   R(36,39)                1.07           calculate D2E/DX2 analytically  !
 ! A1    A(2,1,7)              124.0077         calculate D2E/DX2 analytically  !
 ! A2    A(2,1,11)             116.6704         calculate D2E/DX2 analytically  !
 ! A3    A(7,1,11)             119.322          calculate D2E/DX2 analytically  !
 ! A4    A(1,2,3)              125.7999         calculate D2E/DX2 analytically  !
 ! A5    A(1,2,12)             116.8971         calculate D2E/DX2 analytically  !
 ! A6    A(3,2,12)             117.3029         calculate D2E/DX2 analytically  !
 ! A7    A(2,3,4)              127.9602         calculate D2E/DX2 analytically  !
 ! A8    A(2,3,5)              109.5055         calculate D2E/DX2 analytically  !
 ! A9    A(4,3,5)              122.5343         calculate D2E/DX2 analytically  !
 ! A10   A(3,5,6)              115.7412         calculate D2E/DX2 analytically  !
 ! A11   A(5,6,31)             133.9065         calculate D2E/DX2 analytically  !
 ! A12   A(5,6,34)             103.0633         calculate D2E/DX2 analytically  !
 ! A13   A(5,6,35)              95.4862         calculate D2E/DX2 analytically  !
 ! A14   A(31,6,34)            103.0629         calculate D2E/DX2 analytically  !
 ! A15   A(31,6,35)             95.4856         calculate D2E/DX2 analytically  !
 ! A16   A(34,6,35)            130.6005         calculate D2E/DX2 analytically  !
 ! A17   A(1,7,8)              119.3212         calculate D2E/DX2 analytically  !
 ! A18   A(1,7,13)             120.7059         calculate D2E/DX2 analytically  !
 ! A19   A(8,7,13)             119.9728         calculate D2E/DX2 analytically  !
 ! A20   A(7,8,9)              122.1749         calculate D2E/DX2 analytically  !
 ! A21   A(7,8,14)             117.2337         calculate D2E/DX2 analytically  !
 ! A22   A(9,8,14)             120.5914         calculate D2E/DX2 analytically  !
 ! A23   A(8,9,10)             117.6521         calculate D2E/DX2 analytically  !
 ! A24   A(8,9,15)             122.0576         calculate D2E/DX2 analytically  !
 ! A25   A(10,9,15)            120.2903         calculate D2E/DX2 analytically  !
 ! A26   A(9,10,11)            121.6753         calculate D2E/DX2 analytically  !
 ! A27   A(9,10,16)            119.3826         calculate D2E/DX2 analytically  !
 ! A28   A(11,10,16)           118.9421         calculate D2E/DX2 analytically  !
 ! A29   A(1,11,10)            119.8545         calculate D2E/DX2 analytically  !
 ! A30   A(1,11,17)            120.0876         calculate D2E/DX2 analytically  !
 ! A31   A(10,11,17)           120.0579         calculate D2E/DX2 analytically  !
 ! A32   A(9,15,18)            111.8508         calculate D2E/DX2 analytically  !
 ! A33   A(9,15,19)            113.0094         calculate D2E/DX2 analytically  !
 ! A34   A(9,15,20)            113.0078         calculate D2E/DX2 analytically  !
 ! A35   A(18,15,19)           106.1347         calculate D2E/DX2 analytically  !
 ! A36   A(18,15,20)           106.1339         calculate D2E/DX2 analytically  !
 ! A37   A(19,15,20)           106.1599         calculate D2E/DX2 analytically  !
 ! A38   A(12,22,23)           131.5936         calculate D2E/DX2 analytically  !
 ! A39   A(21,23,22)           127.2546         calculate D2E/DX2 analytically  !
 ! A40   A(21,23,24)           116.5485         calculate D2E/DX2 analytically  !
 ! A41   A(22,23,24)           116.1966         calculate D2E/DX2 analytically  !
 ! A42   A(23,24,25)           106.8675         calculate D2E/DX2 analytically  !
 ! A43   A(23,24,26)           107.0339         calculate D2E/DX2 analytically  !
 ! A44   A(23,24,27)           114.6203         calculate D2E/DX2 analytically  !
 ! A45   A(25,24,26)           105.5666         calculate D2E/DX2 analytically  !
 ! A46   A(25,24,27)           111.0303         calculate D2E/DX2 analytically  !
 ! A47   A(26,24,27)           111.2052         calculate D2E/DX2 analytically  !
 ! A48   A(24,27,28)           110.6964         calculate D2E/DX2 analytically  !
 ! A49   A(24,27,29)           110.6515         calculate D2E/DX2 analytically  !
 ! A50   A(24,27,30)           111.5155         calculate D2E/DX2 analytically  !
 ! A51   A(28,27,29)           106.6069         calculate D2E/DX2 analytically  !
 ! A52   A(28,27,30)           108.5607         calculate D2E/DX2 analytically  !
 ! A53   A(29,27,30)           108.6511         calculate D2E/DX2 analytically  !
 ! A54   A(6,31,32)            120.4059         calculate D2E/DX2 analytically  !
 ! A55   A(6,31,33)            120.4057         calculate D2E/DX2 analytically  !
 ! A56   A(6,31,36)            121.844          calculate D2E/DX2 analytically  !
 ! A57   A(32,31,33)            89.9998         calculate D2E/DX2 analytically  !
 ! A58   A(32,31,36)           100.3474         calculate D2E/DX2 analytically  !
 ! A59   A(33,31,36)            97.1457         calculate D2E/DX2 analytically  !
 ! A60   A(31,36,37)           120.4057         calculate D2E/DX2 analytically  !
 ! A61   A(31,36,38)           120.4056         calculate D2E/DX2 analytically  !
 ! A62   A(31,36,39)            99.0297         calculate D2E/DX2 analytically  !
 ! A63   A(37,36,38)            90.0001         calculate D2E/DX2 analytically  !
 ! A64   A(37,36,39)           114.0956         calculate D2E/DX2 analytically  !
 ! A65   A(38,36,39)           114.0945         calculate D2E/DX2 analytically  !
 ! A66   L(2,12,22,5,-1)       177.5857         calculate D2E/DX2 analytically  !
 ! A67   L(2,12,22,5,-2)       180.2563         calculate D2E/DX2 analytically  !
 ! D1    D(7,1,2,3)              0.1164         calculate D2E/DX2 analytically  !
 ! D2    D(7,1,2,12)          -179.7316         calculate D2E/DX2 analytically  !
 ! D3    D(11,1,2,3)          -179.8788         calculate D2E/DX2 analytically  !
 ! D4    D(11,1,2,12)            0.2732         calculate D2E/DX2 analytically  !
 ! D5    D(2,1,7,8)            179.996          calculate D2E/DX2 analytically  !
 ! D6    D(2,1,7,13)            -0.0107         calculate D2E/DX2 analytically  !
 ! D7    D(11,1,7,8)            -0.0088         calculate D2E/DX2 analytically  !
 ! D8    D(11,1,7,13)          179.9844         calculate D2E/DX2 analytically  !
 ! D9    D(2,1,11,10)         -179.9869         calculate D2E/DX2 analytically  !
 ! D10   D(2,1,11,17)            0.0645         calculate D2E/DX2 analytically  !
 ! D11   D(7,1,11,10)            0.0176         calculate D2E/DX2 analytically  !
 ! D12   D(7,1,11,17)         -179.9309         calculate D2E/DX2 analytically  !
 ! D13   D(1,2,3,4)             -0.0362         calculate D2E/DX2 analytically  !
 ! D14   D(1,2,3,5)            179.953          calculate D2E/DX2 analytically  !
 ! D15   D(12,2,3,4)           179.8113         calculate D2E/DX2 analytically  !
 ! D16   D(12,2,3,5)            -0.1995         calculate D2E/DX2 analytically  !
 ! D17   D(1,2,22,23)           -1.1295         calculate D2E/DX2 analytically  !
 ! D18   D(3,2,22,23)          179.1603         calculate D2E/DX2 analytically  !
 ! D19   D(2,3,5,6)            179.8991         calculate D2E/DX2 analytically  !
 ! D20   D(4,3,5,6)             -0.111          calculate D2E/DX2 analytically  !
 ! D21   D(3,5,6,31)           -94.5306         calculate D2E/DX2 analytically  !
 ! D22   D(3,5,6,34)           142.4183         calculate D2E/DX2 analytically  !
 ! D23   D(3,5,6,35)             8.516          calculate D2E/DX2 analytically  !
 ! D24   D(5,6,31,32)          -18.3092         calculate D2E/DX2 analytically  !
 ! D25   D(5,6,31,33)           91.8339         calculate D2E/DX2 analytically  !
 ! D26   D(5,6,31,36)         -145.8724         calculate D2E/DX2 analytically  !
 ! D27   D(34,6,31,32)         104.7421         calculate D2E/DX2 analytically  !
 ! D28   D(34,6,31,33)        -145.1147         calculate D2E/DX2 analytically  !
 ! D29   D(34,6,31,36)         -22.8211         calculate D2E/DX2 analytically  !
 ! D30   D(35,6,31,32)        -121.356          calculate D2E/DX2 analytically  !
 ! D31   D(35,6,31,33)         -11.2129         calculate D2E/DX2 analytically  !
 ! D32   D(35,6,31,36)         111.0808         calculate D2E/DX2 analytically  !
 ! D33   D(1,7,8,9)             -0.0084         calculate D2E/DX2 analytically  !
 ! D34   D(1,7,8,14)           179.9842         calculate D2E/DX2 analytically  !
 ! D35   D(13,7,8,9)           179.9983         calculate D2E/DX2 analytically  !
 ! D36   D(13,7,8,14)           -0.0091         calculate D2E/DX2 analytically  !
 ! D37   D(7,8,9,10)             0.0165         calculate D2E/DX2 analytically  !
 ! D38   D(7,8,9,15)          -179.9924         calculate D2E/DX2 analytically  !
 ! D39   D(14,8,9,10)         -179.9759         calculate D2E/DX2 analytically  !
 ! D40   D(14,8,9,15)            0.0152         calculate D2E/DX2 analytically  !
 ! D41   D(8,9,10,11)           -0.0074         calculate D2E/DX2 analytically  !
 ! D42   D(8,9,10,16)          179.9762         calculate D2E/DX2 analytically  !
 ! D43   D(15,9,10,11)        -179.9987         calculate D2E/DX2 analytically  !
 ! D44   D(15,9,10,16)          -0.0151         calculate D2E/DX2 analytically  !
 ! D45   D(8,9,15,18)         -179.9983         calculate D2E/DX2 analytically  !
 ! D46   D(8,9,15,19)          -60.2904         calculate D2E/DX2 analytically  !
 ! D47   D(8,9,15,20)           60.296          calculate D2E/DX2 analytically  !
 ! D48   D(10,9,15,18)          -0.0074         calculate D2E/DX2 analytically  !
 ! D49   D(10,9,15,19)         119.7005         calculate D2E/DX2 analytically  !
 ! D50   D(10,9,15,20)        -119.7131         calculate D2E/DX2 analytically  !
 ! D51   D(9,10,11,1)           -0.0094         calculate D2E/DX2 analytically  !
 ! D52   D(9,10,11,17)         179.9391         calculate D2E/DX2 analytically  !
 ! D53   D(16,10,11,1)        -179.9931         calculate D2E/DX2 analytically  !
 ! D54   D(16,10,11,17)         -0.0446         calculate D2E/DX2 analytically  !
 ! D55   D(12,22,23,21)          0.2786         calculate D2E/DX2 analytically  !
 ! D56   D(12,22,23,24)       -179.5284         calculate D2E/DX2 analytically  !
 ! D57   D(21,23,24,25)        -58.517          calculate D2E/DX2 analytically  !
 ! D58   D(21,23,24,26)         54.2002         calculate D2E/DX2 analytically  !
 ! D59   D(21,23,24,27)        178.0169         calculate D2E/DX2 analytically  !
 ! D60   D(22,23,24,25)        121.3112         calculate D2E/DX2 analytically  !
 ! D61   D(22,23,24,26)       -125.9716         calculate D2E/DX2 analytically  !
 ! D62   D(22,23,24,27)         -2.1548         calculate D2E/DX2 analytically  !
 ! D63   D(23,24,27,28)        -59.2986         calculate D2E/DX2 analytically  !
 ! D64   D(23,24,27,29)         58.6639         calculate D2E/DX2 analytically  !
 ! D65   D(23,24,27,30)        179.7247         calculate D2E/DX2 analytically  !
 ! D66   D(25,24,27,28)        179.4937         calculate D2E/DX2 analytically  !
 ! D67   D(25,24,27,29)        -62.5439         calculate D2E/DX2 analytically  !
 ! D68   D(25,24,27,30)         58.5169         calculate D2E/DX2 analytically  !
 ! D69   D(26,24,27,28)         62.2641         calculate D2E/DX2 analytically  !
 ! D70   D(26,24,27,29)       -179.7734         calculate D2E/DX2 analytically  !
 ! D71   D(26,24,27,30)        -58.7126         calculate D2E/DX2 analytically  !
 ! D72   D(6,31,36,37)         136.5837         calculate D2E/DX2 analytically  !
 ! D73   D(6,31,36,38)        -113.2729         calculate D2E/DX2 analytically  !
 ! D74   D(6,31,36,39)          11.6547         calculate D2E/DX2 analytically  !
 ! D75   D(32,31,36,37)          0.6077         calculate D2E/DX2 analytically  !
 ! D76   D(32,31,36,38)        110.751          calculate D2E/DX2 analytically  !
 ! D77   D(32,31,36,39)       -124.3214         calculate D2E/DX2 analytically  !
 ! D78   D(33,31,36,37)        -90.7037         calculate D2E/DX2 analytically  !
 ! D79   D(33,31,36,38)         19.4396         calculate D2E/DX2 analytically  !
 ! D80   D(33,31,36,39)        144.3673         calculate D2E/DX2 analytically  !
 --------------------------------------------------------------------------------
 Trust Radius=3.00D-01 FncErr=1.00D-07 GrdErr=1.00D-06 EigMax=2.50D+02 EigMin=1.00D-04
 Number of steps in this run=    196 maximum allowed number of steps=    234.
 GradGradGradGradGradGradGradGradGradGradGradGradGradGradGradGradGradGrad

                          Input orientation:                          
 ---------------------------------------------------------------------
 Center     Atomic      Atomic             Coordinates (Angstroms)
 Number     Number       Type             X           Y           Z
 ---------------------------------------------------------------------
      1          6           0       -7.239600    0.644630    0.008010
      2          7           0       -5.962640    0.137870    0.210090
      3          6           0       -4.806340    0.708050   -0.212850
      4          8           0       -4.666860    1.742900   -0.833410
      5          8           0       -3.761410   -0.060280    0.161960
      6          6           0       -2.478390    0.415730   -0.217560
      7          6           0       -7.510820    1.839070   -0.677590
      8          6           0       -8.823870    2.254430   -0.822960
      9          6           0       -9.893920    1.524650   -0.309930
     10          6           0       -9.603550    0.338370    0.369590
     11          6           0       -8.305860   -0.104830    0.532810
     12          1           0       -5.888220   -0.775990    0.739660
     13          1           0       -6.709300    2.432050   -1.089300
     14         17           0       -9.099700    3.753240   -1.687690
     15          6           0      -11.311180    1.975660   -0.468620
     16          1           0      -10.414120   -0.250830    0.780190
     17          1           0       -8.109350   -1.034120    1.068650
     18          9           0      -12.175970    1.119400    0.103600
     19          9           0      -11.547380    3.177330    0.092730
     20          9           0      -11.688350    2.083240   -1.757460
     21          8           0       -7.782470   -2.816520    2.107120
     22          8           0       -5.706440   -2.178650    1.539360
     23          6           0       -6.547720   -2.954350    2.073090
     24          6           0       -5.974840   -4.209950    2.762340
     25          1           0       -6.291310   -4.169690    3.809840
     26          1           0       -6.490220   -5.074840    2.332810
     27          6           0       -4.463160   -4.359510    2.653480
     28          1           0       -4.154650   -4.408040    1.607630
     29          1           0       -3.958620   -3.494830    3.087670
     30          1           0       -4.111180   -5.262750    3.163030
     31          6           0       -1.324360    0.076120   -1.703710
     32          1           0       -1.463200   -0.795110   -2.309160
     33          1           0       -1.371930    0.691230   -2.577940
     34          1           0       -1.868290    0.164410    0.624770
     35          1           0       -2.821880    1.365900   -0.569820
     36          6           0        0.615990    0.068000   -1.518240
     37          1           0        1.201870   -0.693260   -1.989530
     38          1           0        1.208810    0.819920   -1.995830
     39          1           0        0.682630    0.072150   -0.450320
 ---------------------------------------------------------------------
                    Distance matrix (angstroms):
                    1          2          3          4          5
     1  C    0.000000
     2  N    1.388621   0.000000
     3  C    2.444086   1.356839   0.000000
     4  O    2.921160   2.311722   1.214687   0.000000
     5  O    3.552239   2.210655   1.350071   2.249902   0.000000
     6  C    4.772043   3.521376   2.346236   2.632499   1.420127
     7  C    1.403672   2.465546   2.968064   2.849849   4.286076
     8  C    2.406632   3.705895   4.347881   4.188377   5.653004
     9  C    2.814416   4.201017   5.153613   5.257739   6.351564
    10  C    2.410974   3.649913   4.846558   5.271700   5.859405
    11  C    1.404997   2.377758   3.669254   4.303834   4.559774
    12  H    2.092773   1.058831   2.068844   3.211086   2.317175
    13  H    2.163372   2.740288   2.713226   2.170707   4.058006
    14  Cl   3.999853   5.149137   5.466377   4.941794   6.816266
    15  C    4.310056   5.696051   6.632134   6.658396   7.844852
    16  H    3.387578   4.504639   5.775186   6.293621   6.684091
    17  H    2.167862   2.592113   3.948072   4.814604   4.546981
    18  F    4.960070   6.291281   7.387882   7.592988   8.497051
    19  F    4.997871   6.359356   7.185565   7.089209   8.432570
    20  F    4.997785   6.359204   7.186030   7.090206   8.432985
    21  O    4.084180   3.954608   5.163546   6.256361   5.248755
    22  O    3.559006   2.683070   3.494776   4.699927   3.188709
    23  C    4.206651   3.657173   4.655223   5.835198   4.448773
    24  C    5.723015   5.041594   5.865481   7.076486   5.374105
    25  H    6.207322   5.623282   6.494576   7.691380   6.049353
    26  H    6.219212   5.653019   6.538934   7.735061   6.107766
    27  C    6.304645   5.333387   5.832134   7.031309   5.018317
    28  H    6.132306   5.087951   5.469298   6.637401   4.598654
    29  H    6.114267   5.049066   5.410754   6.581055   4.516061
    30  H    7.391773   6.427632   6.894220   8.084519   6.016183
    31  C    6.184113   5.017976   3.840076   3.835086   3.072221
    32  H    6.388186   5.240423   4.222628   4.345431   3.453720
    33  H    6.412399   5.399439   4.170025   3.873752   3.712335
    34  H    5.427889   4.115382   3.103110   3.528444   1.961780
    35  H    4.513354   3.461313   2.120914   1.901463   1.858012
    36  C    8.023231   6.802233   5.613855   5.584155   4.690539
    37  H    8.777160   7.540511   6.420191   6.458597   5.446441
    38  H    8.684569   7.533988   6.274836   6.060248   5.489435
    39  H    7.956100   6.678329   5.530782   5.617402   4.487975
                    6          7          8          9         10
     6  C    0.000000
     7  C    5.250036   0.000000
     8  C    6.634187   1.384831   0.000000
     9  C    7.498555   2.431707   1.393121   0.000000
    10  C    7.149730   2.779965   2.387753   1.397613   0.000000
    11  C    5.898597   2.424026   2.769938   2.426386   1.380966
    12  H    3.736764   3.388210   4.499252   4.737111   3.896463
    13  H    4.767187   1.078687   2.138666   3.401852   3.858567
    14  Cl   7.559233   2.684937   1.752219   2.737813   4.018408
    15  C    8.972992   3.808551   2.527841   1.495733   2.509844
    16  H    8.025934   3.862895   3.372731   2.147394   1.082946
    17  H    5.955175   3.415086   3.860478   3.410642   2.145937
    18  F    9.728379   4.784538   3.658330   2.354355   2.701500
    19  F    9.485214   4.321822   3.017903   2.372218   3.451785
    20  F    9.485528   4.321747   3.017920   2.372203   3.451855
    21  O    6.632107   5.431659   5.948480   5.398714   4.035923
    22  O    4.498653   4.930794   5.911948   5.888064   4.784477
    23  C    5.758816   5.609873   6.379604   6.077605   4.804374
    24  C    6.519347   7.126219   7.922093   7.594977   6.291264
    25  H    7.196137   7.597989   8.315408   7.897899   6.567257
    26  H    7.262612   7.609618   8.314025   7.881784   6.545983
    27  C    5.914820   7.668550   8.651337   8.538050   7.328700
    28  H    5.423092   7.450670   8.491048   8.474259   7.331553
    29  H    5.329925   7.432752   8.486323   8.483316   7.344836
    30  H    6.807314   8.760352   9.726539   9.569239   8.327183
    31  C    1.912005   6.514077   7.858970   8.802171   8.538872
    32  H    2.621361   6.795192   8.104810   8.969685   8.644407
    33  H    2.621364   6.528004   7.813767   8.857921   8.750543
    34  H    1.070002   6.028165   7.405687   8.193574   7.741423
    35  H    1.069998   4.713986   6.072681   7.078594   6.923103
    36  C    3.374592   8.359930   9.714672  10.678954  10.395961
    37  H    4.232499   9.167598  10.515000  11.439263  11.107962
    38  H    4.113521   8.877408  10.202358  11.252089  11.078548
    39  H    3.188146   8.384884   9.760878  10.676745  10.322239
                   11         12         13         14         15
    11  C    0.000000
    12  H    2.517583   0.000000
    13  H    3.408226   3.782960   0.000000
    14  Cl   4.521671   6.059666   2.796002   0.000000
    15  C    3.789888   6.200001   4.665923   3.088133   0.000000
    16  H    2.127739   4.556447   4.941511   4.883719   2.705827
    17  H    1.090560   2.260151   4.316390   5.612221   4.655501
    18  F    4.081754   6.597945   5.747220   4.428236   1.344797
    19  F    4.633972   6.933495   5.035837   3.081023   1.347188
    20  F    4.634029   6.931978   5.035777   3.081376   1.347197
    21  O    3.178939   3.101918   6.238292   7.700482   6.484691
    22  O    3.474314   1.624814   5.401309   7.557472   7.259710
    23  C    3.685551   2.637845   6.248210   8.102335   7.311350
    24  C    5.220773   3.986329   7.713023   9.642609   8.785067
    25  H    5.596465   4.594093   8.231601  10.044039   9.014968
    26  H    5.589056   4.623921   8.253013  10.045337   8.988838
    27  C    6.112764   4.305243   8.073341  10.303396   9.837544
    28  H    6.074981   4.117089   7.783733  10.095501   9.812154
    29  H    6.076011   4.077818   7.755077  10.088076   9.830239
    30  H    7.149653   5.400149   9.167469  11.388718  10.836211
    31  C    7.333219   5.246424   5.909779   8.601010  10.240619
    32  H    7.441457   5.373683   6.278868   8.910098  10.394588
    33  H    7.641326   5.792761   5.808100   8.359837  10.241469
    34  H    6.443854   4.130059   5.613876   8.397646   9.676998
    35  H    5.783846   3.962937   4.064304   6.808821   8.511772
    36  C    9.156205   6.936511   7.709254  10.392514  12.124284
    37  H    9.854206   7.597677   8.553630  11.224296  12.884592
    38  H    9.888282   7.771594   8.131250  10.722159  12.665633
    39  H    9.043828   6.731379   7.785760  10.524994  12.143935
                   16         17         18         19         20
    16  H    0.000000
    17  H    2.451268   0.000000
    18  F    2.332256   4.701741   0.000000
    19  F    3.675481   5.523475   2.151818   0.000000
    20  F    3.675760   5.523954   2.151814   2.154091   0.000000
    21  O    3.907568   2.088593   6.229639   7.359249   7.361965
    22  O    5.143450   2.702868   7.402254   8.055795   8.050837
    23  C    4.891795   2.671118   7.221601   8.155730   8.153312
    24  C    6.269829   4.184569   8.597958   9.630780   9.626891
    25  H    6.444673   4.544358   8.737271   9.768412   9.961024
    26  H    6.409266   4.532891   8.698606   9.934341   9.746229
    27  C    7.470234   5.183108   9.798356  10.655870  10.638082
    28  H    7.559631   5.226231   9.856788  10.699776  10.498437
    29  H    7.584292   5.230688   9.885375  10.539291  10.692936
    30  H    8.397876   6.184909  10.729995  11.660136  11.644239
    31  C    9.428700   7.413144  11.050441  10.833044  10.556690
    32  H    9.484687   7.459091  11.146757  11.101353  10.636868
    33  H    9.691528   7.852852  11.140075  10.809854  10.442193
    34  H    8.557324   6.370583  10.364936  10.151135  10.285451
    35  H    7.878988   6.033409   9.381538   8.936140   8.974372
    36  C   11.271546   9.167237  12.937158  12.657438  12.470573
    37  H   11.949825   9.806501  13.661388  13.485572  13.187895
    38  H   11.997720   9.982816  13.551739  13.139248  12.961078
    39  H   11.169437   8.990551  12.913061  12.629734  12.601359
                   21         22         23         24         25
    21  O    0.000000
    22  O    2.244801   0.000000
    23  C    1.242885   1.262668   0.000000
    24  C    2.374550   2.386189   1.542656   0.000000
    25  H    2.637022   3.075938   2.135204   1.095002   0.000000
    26  H    2.611677   3.103513   2.137110   1.094599   1.743697
    27  C    3.700966   2.746481   2.580062   1.522956   2.171482
    28  H    3.992932   2.717148   2.838424   2.164645   3.077638
    29  H    4.005423   2.680386   2.832831   2.163881   2.533458
    30  H    4.536227   3.833123   3.528938   2.177652   2.523115
    31  C    8.037224   5.899501   7.122602   7.742284   8.549662
    32  H    7.970119   5.893248   7.051154   7.598430   8.493562
    33  H    8.680387   6.631466   7.855644   8.586439   9.414488
    34  H    6.786813   4.588878   5.807010   6.369300   6.963634
    35  H    7.018981   5.033206   6.287401   7.220426   7.865184
    36  C    9.591549   7.373566   8.564519   8.947808   9.698312
    37  H   10.099957   7.898367   9.037342   9.297986  10.092869
    38  H   10.530955   8.325243   9.537556   9.977204  10.716987
    39  H    9.302840   7.060109   8.234395   8.542802   9.207497
                   26         27         28         29         30
    26  H    0.000000
    27  C    2.173361   0.000000
    28  H    2.534836   1.091483   0.000000
    29  H    3.078188   1.091216   1.750114   0.000000
    30  H    2.526738   1.095159   1.775299   1.776090   0.000000
    31  C    8.337385   6.965054   6.251656   6.530569   7.743065
    32  H    8.070620   6.806798   5.969791   6.530037   7.544300
    33  H    9.141112   7.901483   7.159964   7.504212   8.712755
    34  H    7.192314   5.595969   5.205839   4.881126   6.397451
    35  H    7.960221   6.772280   6.313157   6.188385   7.715923
    36  C    9.580063   7.924888   7.250173   7.405081   8.525099
    37  H    9.851351   8.190940   7.445230   7.762565   8.698139
    38  H   10.618869   8.978520   8.311630   8.435720   9.587231
    39  H    9.256732   7.466749   6.906992   6.839731   8.031069
                   31         32         33         34         35
    31  C    0.000000
    32  H    1.069994   0.000000
    33  H    1.070001   1.513202   0.000000
    34  H    2.392796   3.113314   3.283484   0.000000
    35  H    2.278553   3.088896   2.567115   1.944211   0.000000
    36  C    1.949211   2.386115   2.337350   3.282291   3.795128
    37  H    2.656215   2.686100   2.981189   4.122626   4.737751
    38  H    2.656223   3.137855   2.648704   4.094604   4.310227
    39  H    2.366223   2.968503   3.021795   2.769751   3.737601
                   36         37         38         39
    36  C    0.000000
    37  H    1.069994   0.000000
    38  H    1.070005   1.513209   0.000000
    39  H    1.070005   1.795725   1.795725   0.000000
 Stoichiometry    C14H16ClF3NO4(1-)
 Framework group  C1[X(C14H16ClF3NO4)]
 Deg. of freedom   111
 Full point group                 C1      NOp   1
 Largest Abelian subgroup         C1      NOp   1
 Largest concise Abelian subgroup C1      NOp   1
                         Standard orientation:                         
 ---------------------------------------------------------------------
 Center     Atomic      Atomic             Coordinates (Angstroms)
 Number     Number       Type             X           Y           Z
 ---------------------------------------------------------------------
      1          6           0       -0.356807   -0.118280   -0.110491
      2          7           0        1.029553   -0.138941   -0.186957
      3          6           0        1.801353   -1.248354   -0.307547
      4          8           0        1.440411   -2.406507   -0.369716
      5          8           0        3.102120   -0.889761   -0.353479
      6          6           0        4.031850   -1.956065   -0.477415
      7          6           0       -1.162261   -1.267307   -0.146199
      8          6           0       -2.538105   -1.133912   -0.062438
      9          6           0       -3.157069    0.108419    0.057068
     10          6           0       -2.338212    1.240525    0.090702
     11          6           0       -0.963065    1.143511    0.009306
     12          1           0        1.525587    0.795565   -0.144867
     13          1           0       -0.720416   -2.247066   -0.237910
     14         17           0       -3.490758   -2.603671   -0.112750
     15          6           0       -4.643390    0.249444    0.147511
     16          1           0       -2.789924    2.220467    0.182587
     17          1           0       -0.349307    2.044537    0.037130
     18          9           0       -5.018331    1.536282    0.256808
     19          9           0       -5.285194   -0.237070   -0.932447
     20          9           0       -5.168659   -0.385356    1.213373
     21          8           0        0.783658    3.798375    0.088718
     22          8           0        2.346813    2.196017   -0.078981
     23          6           0        1.956315    3.393059    0.015524
     24          6           0        3.060719    4.469890    0.038226
     25          1           0        2.870465    5.138028   -0.808193
     26          1           0        2.898015    5.077228    0.934226
     27          6           0        4.481321    3.922776   -0.005924
     28          1           0        4.667890    3.264792    0.844714
     29          1           0        4.634778    3.322428   -0.904137
     30          1           0        5.222719    4.728705    0.007569
     31          6           0        5.056245   -2.974405    0.775326
     32          1           0        5.218749   -2.607510    1.767228
     33          1           0        4.668678   -3.887478    1.176563
     34          1           0        4.778586   -1.551430   -1.128229
     35          1           0        3.296096   -2.713997   -0.648004
     36          6           0        6.840160   -3.634562    0.349576
     37          1           0        7.630063   -3.562160    1.067697
     38          1           0        7.020950   -4.685080    0.256628
     39          1           0        7.014396   -3.080159   -0.548861
 ---------------------------------------------------------------------
 Rotational constants (GHZ):           0.2627079           0.1076542           0.0781420
 Standard basis: 6-311+G(d) (5D, 7F)
 There are   585 symmetry adapted cartesian basis functions of A   symmetry.
 There are   562 symmetry adapted basis functions of A   symmetry.
   562 basis functions,   925 primitive gaussians,   585 cartesian basis functions
    92 alpha electrons       92 beta electrons
       nuclear repulsion energy      2067.6141362448 Hartrees.
 NAtoms=   39 NActive=   39 NUniq=   39 SFac= 1.00D+00 NAtFMM=   60 NAOKFM=F Big=F
 Integral buffers will be    131072 words long.
 Raffenetti 2 integral format.
 Two-electron integral symmetry is turned on.
 Nuclear repulsion after empirical dispersion term =     2067.6119290322 Hartrees.
 One-electron integrals computed using PRISM.
 NBasis=   562 RedAO= T EigKep=  1.26D-06  NBF=   562
 NBsUse=   560 1.00D-06 EigRej=  4.67D-07 NBFU=   560
 ExpMin= 4.38D-02 ExpMax= 1.06D+05 ExpMxC= 3.62D+03 IAcc=3 IRadAn=         5 AccDes= 0.00D+00
 Harris functional with IExCor= 1009 and IRadAn=       5 diagonalized for initial guess.
 HarFok:  IExCor= 1009 AccDes= 0.00D+00 IRadAn=         5 IDoV= 1 UseB2=F ITyADJ=14
 ICtDFT=  3500011 ScaDFX=  1.000000  1.000000  1.000000  1.000000
 FoFCou: FMM=F IPFlag=           0 FMFlag=      100000 FMFlg1=           0
         NFxFlg=           0 DoJE=T BraDBF=F KetDBF=T FulRan=T
         wScrn=  0.000000 ICntrl=       500 IOpCl=  0 I1Cent=   200000004 NGrid=           0
         NMat0=    1 NMatS0=      1 NMatT0=    0 NMatD0=    1 NMtDS0=    0 NMtDT0=    0
 Petite list used in FoFCou.
 Requested convergence on RMS density matrix=1.00D-08 within 128 cycles.
 Requested convergence on MAX density matrix=1.00D-06.
 Requested convergence on             energy=1.00D-06.
 No special actions if energy rises.
 SCF Done:  E(RM062X) =  -1658.35834436     A.U. after   17 cycles
            NFock= 17  Conv=0.40D-08     -V/T= 2.0031
 DoSCS=F DFT=T ScalE2(SS,OS)=  1.000000  1.000000
 Range of M.O.s used for correlation:     1   560
 NBasis=   562 NAE=    92 NBE=    92 NFC=     0 NFV=     0
 NROrb=    560 NOA=    92 NOB=    92 NVA=   468 NVB=   468

 **** Warning!!: The largest alpha MO coefficient is  0.18109269D+03

 Symmetrizing basis deriv contribution to polar:
 IMax=3 JMax=2 DiffMx= 0.00D+00
 G2DrvN: will do    40 centers at a time, making    1 passes.
 Calling FoFCou, ICntrl=  3107 FMM=F I1Cent=   0 AccDes= 0.00D+00.
 End of G2Drv F.D. properties file   721 does not exist.
 End of G2Drv F.D. properties file   722 does not exist.
 End of G2Drv F.D. properties file   788 does not exist.
          IDoAtm=111111111111111111111111111111111111111
          Differentiating once with respect to nuclear coordinates.
 CalDSu exits because no D1Ps are significant.
          There are   120 degrees of freedom in the 1st order CPHF.  IDoFFX=6 NUNeed=     0.
    114 vectors produced by pass  0 Test12= 4.31D-14 1.00D-09 XBig12= 5.69D-01 1.46D-01.
 AX will form    64 AO Fock derivatives at one time.
    114 vectors produced by pass  1 Test12= 4.31D-14 1.00D-09 XBig12= 5.44D-02 7.18D-02.
    114 vectors produced by pass  2 Test12= 4.31D-14 1.00D-09 XBig12= 1.65D-03 4.22D-03.
    114 vectors produced by pass  3 Test12= 4.31D-14 1.00D-09 XBig12= 1.68D-05 3.93D-04.
    114 vectors produced by pass  4 Test12= 4.31D-14 1.00D-09 XBig12= 1.08D-07 3.02D-05.
    114 vectors produced by pass  5 Test12= 4.31D-14 1.00D-09 XBig12= 5.58D-10 2.05D-06.
    100 vectors produced by pass  6 Test12= 4.31D-14 1.00D-09 XBig12= 2.51D-12 1.53D-07.
     33 vectors produced by pass  7 Test12= 4.31D-14 1.00D-09 XBig12= 9.66D-15 1.01D-08.
 InvSVY:  IOpt=1 It=  1 EMax= 1.78D-15
 Solved reduced A of dimension   817 with   120 vectors.
 End of Minotr F.D. properties file   721 does not exist.
 End of Minotr F.D. properties file   722 does not exist.
 End of Minotr F.D. properties file   788 does not exist.

 **********************************************************************

            Population analysis using the SCF Density.

 **********************************************************************

 Orbital symmetries:
       Occupied  (A) (A) (A) (A) (A) (A) (A) (A) (A) (A) (A) (A)
                 (A) (A) (A) (A) (A) (A) (A) (A) (A) (A) (A) (A)
                 (A) (A) (A) (A) (A) (A) (A) (A) (A) (A) (A) (A)
                 (A) (A) (A) (A) (A) (A) (A) (A) (A) (A) (A) (A)
                 (A) (A) (A) (A) (A) (A) (A) (A) (A) (A) (A) (A)
                 (A) (A) (A) (A) (A) (A) (A) (A) (A) (A) (A) (A)
                 (A) (A) (A) (A) (A) (A) (A) (A) (A) (A) (A) (A)
                 (A) (A) (A) (A) (A) (A) (A) (A)
       Virtual   (A) (A) (A) (A) (A) (A) (A) (A) (A) (A) (A) (A)
                 (A) (A) (A) (A) (A) (A) (A) (A) (A) (A) (A) (A)
                 (A) (A) (A) (A) (A) (A) (A) (A) (A) (A) (A) (A)
                 (A) (A) (A) (A) (A) (A) (A) (A) (A) (A) (A) (A)
                 (A) (A) (A) (A) (A) (A) (A) (A) (A) (A) (A) (A)
                 (A) (A) (A) (A) (A) (A) (A) (A) (A) (A) (A) (A)
                 (A) (A) (A) (A) (A) (A) (A) (A) (A) (A) (A) (A)
                 (A) (A) (A) (A) (A) (A) (A) (A) (A) (A) (A) (A)
                 (A) (A) (A) (A) (A) (A) (A) (A) (A) (A) (A) (A)
                 (A) (A) (A) (A) (A) (A) (A) (A) (A) (A) (A) (A)
                 (A) (A) (A) (A) (A) (A) (A) (A) (A) (A) (A) (A)
                 (A) (A) (A) (A) (A) (A) (A) (A) (A) (A) (A) (A)
                 (A) (A) (A) (A) (A) (A) (A) (A) (A) (A) (A) (A)
                 (A) (A) (A) (A) (A) (A) (A) (A) (A) (A) (A) (A)
                 (A) (A) (A) (A) (A) (A) (A) (A) (A) (A) (A) (A)
                 (A) (A) (A) (A) (A) (A) (A) (A) (A) (A) (A) (A)
                 (A) (A) (A) (A) (A) (A) (A) (A) (A) (A) (A) (A)
                 (A) (A) (A) (A) (A) (A) (A) (A) (A) (A) (A) (A)
                 (A) (A) (A) (A) (A) (A) (A) (A) (A) (A) (A) (A)
                 (A) (A) (A) (A) (A) (A) (A) (A) (A) (A) (A) (A)
                 (A) (A) (A) (A) (A) (A) (A) (A) (A) (A) (A) (A)
                 (A) (A) (A) (A) (A) (A) (A) (A) (A) (A) (A) (A)
                 (A) (A) (A) (A) (A) (A) (A) (A) (A) (A) (A) (A)
                 (A) (A) (A) (A) (A) (A) (A) (A) (A) (A) (A) (A)
                 (A) (A) (A) (A) (A) (A) (A) (A) (A) (A) (A) (A)
                 (A) (A) (A) (A) (A) (A) (A) (A) (A) (A) (A) (A)
                 (A) (A) (A) (A) (A) (A) (A) (A) (A) (A) (A) (A)
                 (A) (A) (A) (A) (A) (A) (A) (A) (A) (A) (A) (A)
                 (A) (A) (A) (A) (A) (A) (A) (A) (A) (A) (A) (A)
                 (A) (A) (A) (A) (A) (A) (A) (A) (A) (A) (A) (A)
                 (A) (A) (A) (A) (A) (A) (A) (A) (A) (A) (A) (A)
                 (A) (A) (A) (A) (A) (A) (A) (A) (A) (A) (A) (A)
                 (A) (A) (A) (A) (A) (A) (A) (A) (A) (A) (A) (A)
                 (A) (A) (A) (A) (A) (A) (A) (A) (A) (A) (A) (A)
                 (A) (A) (A) (A) (A) (A) (A) (A) (A) (A) (A) (A)
                 (A) (A) (A) (A) (A) (A) (A) (A) (A) (A) (A) (A)
                 (A) (A) (A) (A) (A) (A) (A) (A) (A) (A) (A) (A)
                 (A) (A) (A) (A) (A) (A) (A) (A) (A) (A) (A) (A)
                 (A) (A) (A) (A) (A) (A) (A) (A) (A) (A) (A) (A)
 The electronic state is 1-A.
 Alpha  occ. eigenvalues -- -102.59140 -25.19070 -25.18509 -25.18508 -19.58091
 Alpha  occ. eigenvalues --  -19.51512 -19.43245 -19.42292 -14.67410 -10.71504
 Alpha  occ. eigenvalues --  -10.60647 -10.53624 -10.52865 -10.50850 -10.49202
 Alpha  occ. eigenvalues --  -10.49023 -10.48051 -10.46998 -10.46624 -10.45848
 Alpha  occ. eigenvalues --  -10.44147 -10.40705 -10.40601  -9.73428  -7.45937
 Alpha  occ. eigenvalues --   -7.45270  -7.45257  -1.38043  -1.28714  -1.28276
 Alpha  occ. eigenvalues --   -1.15900  -1.05533  -1.01910  -0.96156  -0.92307
 Alpha  occ. eigenvalues --   -0.91356  -0.84937  -0.79927  -0.74733  -0.74671
 Alpha  occ. eigenvalues --   -0.73832  -0.72562  -0.70035  -0.65647  -0.63349
 Alpha  occ. eigenvalues --   -0.62311  -0.60371  -0.60226  -0.59796  -0.56624
 Alpha  occ. eigenvalues --   -0.56098  -0.54497  -0.51281  -0.48749  -0.48680
 Alpha  occ. eigenvalues --   -0.47509  -0.46648  -0.46067  -0.45537  -0.44382
 Alpha  occ. eigenvalues --   -0.44225  -0.44028  -0.42393  -0.42241  -0.41884
 Alpha  occ. eigenvalues --   -0.40908  -0.40464  -0.40125  -0.39367  -0.39047
 Alpha  occ. eigenvalues --   -0.38123  -0.36515  -0.35906  -0.35602  -0.34275
 Alpha  occ. eigenvalues --   -0.33112  -0.33047  -0.32625  -0.32293  -0.31464
 Alpha  occ. eigenvalues --   -0.29871  -0.29427  -0.28452  -0.28323  -0.27734
 Alpha  occ. eigenvalues --   -0.27658  -0.25077  -0.21664  -0.18835  -0.18516
 Alpha  occ. eigenvalues --   -0.18129  -0.17064
 Alpha virt. eigenvalues --    0.07557   0.08229   0.09472   0.09938   0.10282
 Alpha virt. eigenvalues --    0.10346   0.11139   0.11294   0.11806   0.12662
 Alpha virt. eigenvalues --    0.13202   0.13392   0.13815   0.13833   0.14048
 Alpha virt. eigenvalues --    0.14173   0.14878   0.15038   0.15547   0.15695
 Alpha virt. eigenvalues --    0.16118   0.16628   0.16906   0.17100   0.17289
 Alpha virt. eigenvalues --    0.18040   0.18278   0.18632   0.18804   0.19414
 Alpha virt. eigenvalues --    0.19533   0.20205   0.20471   0.20621   0.21049
 Alpha virt. eigenvalues --    0.21585   0.22010   0.22468   0.22673   0.23079
 Alpha virt. eigenvalues --    0.23168   0.23603   0.23672   0.24518   0.24718
 Alpha virt. eigenvalues --    0.25255   0.26106   0.26436   0.26713   0.27324
 Alpha virt. eigenvalues --    0.27698   0.28205   0.28755   0.29101   0.29634
 Alpha virt. eigenvalues --    0.29873   0.30344   0.30566   0.30772   0.31129
 Alpha virt. eigenvalues --    0.31565   0.31825   0.32115   0.32170   0.32553
 Alpha virt. eigenvalues --    0.32749   0.32796   0.33499   0.33766   0.34386
 Alpha virt. eigenvalues --    0.34516   0.34978   0.35394   0.35761   0.36002
 Alpha virt. eigenvalues --    0.36420   0.36635   0.37042   0.37206   0.37500
 Alpha virt. eigenvalues --    0.38145   0.38352   0.38593   0.38976   0.39320
 Alpha virt. eigenvalues --    0.39855   0.40299   0.40403   0.40777   0.40980
 Alpha virt. eigenvalues --    0.41359   0.42201   0.42514   0.42748   0.43229
 Alpha virt. eigenvalues --    0.43442   0.43759   0.44428   0.44691   0.45039
 Alpha virt. eigenvalues --    0.45694   0.45970   0.46188   0.46481   0.46948
 Alpha virt. eigenvalues --    0.47435   0.47892   0.48585   0.48766   0.49365
 Alpha virt. eigenvalues --    0.49882   0.50121   0.50883   0.51862   0.52058
 Alpha virt. eigenvalues --    0.52410   0.52507   0.53566   0.53803   0.54086
 Alpha virt. eigenvalues --    0.54535   0.54715   0.55007   0.56105   0.56708
 Alpha virt. eigenvalues --    0.57484   0.57592   0.58751   0.59198   0.59354
 Alpha virt. eigenvalues --    0.60350   0.61132   0.61571   0.62323   0.65163
 Alpha virt. eigenvalues --    0.65429   0.65770   0.66234   0.66988   0.67164
 Alpha virt. eigenvalues --    0.67694   0.68240   0.69029   0.69666   0.70384
 Alpha virt. eigenvalues --    0.70711   0.71475   0.71575   0.71991   0.72819
 Alpha virt. eigenvalues --    0.74097   0.74497   0.75092   0.75971   0.76748
 Alpha virt. eigenvalues --    0.77840   0.78168   0.78430   0.78560   0.78825
 Alpha virt. eigenvalues --    0.79030   0.79811   0.80171   0.81080   0.81699
 Alpha virt. eigenvalues --    0.82142   0.82698   0.83659   0.83748   0.84257
 Alpha virt. eigenvalues --    0.84424   0.84909   0.85553   0.86066   0.86594
 Alpha virt. eigenvalues --    0.87446   0.87890   0.88907   0.89162   0.89678
 Alpha virt. eigenvalues --    0.90514   0.91070   0.92614   0.93448   0.96246
 Alpha virt. eigenvalues --    0.97579   0.98907   1.00451   1.00782   1.01423
 Alpha virt. eigenvalues --    1.02460   1.04093   1.04450   1.05858   1.05904
 Alpha virt. eigenvalues --    1.06094   1.06674   1.08144   1.08687   1.09995
 Alpha virt. eigenvalues --    1.10978   1.11394   1.12886   1.14980   1.15363
 Alpha virt. eigenvalues --    1.15737   1.16990   1.19073   1.20561   1.20788
 Alpha virt. eigenvalues --    1.22608   1.23505   1.25145   1.25693   1.26046
 Alpha virt. eigenvalues --    1.27085   1.27652   1.29097   1.29890   1.31354
 Alpha virt. eigenvalues --    1.31755   1.33089   1.34708   1.35308   1.36094
 Alpha virt. eigenvalues --    1.36253   1.38745   1.39283   1.39363   1.39783
 Alpha virt. eigenvalues --    1.40128   1.41770   1.43460   1.43950   1.45847
 Alpha virt. eigenvalues --    1.47321   1.48302   1.48886   1.50193   1.51114
 Alpha virt. eigenvalues --    1.51619   1.53323   1.54637   1.56797   1.57609
 Alpha virt. eigenvalues --    1.57839   1.58197   1.58657   1.59192   1.59821
 Alpha virt. eigenvalues --    1.60529   1.62569   1.63833   1.64792   1.64920
 Alpha virt. eigenvalues --    1.65283   1.66925   1.66995   1.67369   1.67927
 Alpha virt. eigenvalues --    1.69485   1.70024   1.71766   1.72007   1.72259
 Alpha virt. eigenvalues --    1.73536   1.73944   1.74565   1.75822   1.77501
 Alpha virt. eigenvalues --    1.78125   1.79903   1.80593   1.83967   1.85387
 Alpha virt. eigenvalues --    1.85755   1.86459   1.89811   1.90019   1.90647
 Alpha virt. eigenvalues --    1.91770   1.91983   1.93191   1.94770   1.95327
 Alpha virt. eigenvalues --    1.96459   1.98572   1.99639   1.99885   2.00386
 Alpha virt. eigenvalues --    2.01012   2.02824   2.03270   2.04792   2.05358
 Alpha virt. eigenvalues --    2.06789   2.08674   2.09165   2.11086   2.14924
 Alpha virt. eigenvalues --    2.19080   2.19243   2.19478   2.20989   2.24266
 Alpha virt. eigenvalues --    2.29590   2.31805   2.32226   2.33364   2.35634
 Alpha virt. eigenvalues --    2.41000   2.41228   2.45948   2.47222   2.47384
 Alpha virt. eigenvalues --    2.52527   2.53117   2.55691   2.56348   2.57046
 Alpha virt. eigenvalues --    2.59536   2.61213   2.61688   2.64789   2.65773
 Alpha virt. eigenvalues --    2.66550   2.67331   2.68100   2.71451   2.71843
 Alpha virt. eigenvalues --    2.72102   2.73653   2.77073   2.79363   2.81023
 Alpha virt. eigenvalues --    2.81558   2.81856   2.85739   2.87652   2.87895
 Alpha virt. eigenvalues --    2.90226   2.93200   2.95767   2.96403   2.97372
 Alpha virt. eigenvalues --    3.02441   3.04587   3.05908   3.08038   3.08704
 Alpha virt. eigenvalues --    3.10877   3.11268   3.12294   3.12340   3.12726
 Alpha virt. eigenvalues --    3.14385   3.15406   3.17469   3.20128   3.21794
 Alpha virt. eigenvalues --    3.22853   3.22924   3.23465   3.24555   3.25762
 Alpha virt. eigenvalues --    3.30317   3.32491   3.33771   3.34859   3.37276
 Alpha virt. eigenvalues --    3.37683   3.38632   3.44167   3.45582   3.47864
 Alpha virt. eigenvalues --    3.50122   3.51076   3.52207   3.52464   3.52643
 Alpha virt. eigenvalues --    3.53587   3.54428   3.58436   3.60441   3.62279
 Alpha virt. eigenvalues --    3.62817   3.70132   3.77177   3.79624   3.82293
 Alpha virt. eigenvalues --    3.88254   3.89533   3.91774   3.93255   3.93594
 Alpha virt. eigenvalues --    3.93620   3.95847   3.96827   3.97728   4.00938
 Alpha virt. eigenvalues --    4.02068   4.06658   4.09657   4.09718   4.11317
 Alpha virt. eigenvalues --    4.11517   4.18410   4.23290   4.27076   4.31175
 Alpha virt. eigenvalues --    4.31837   4.35662   4.37584   4.40323   4.80033
 Alpha virt. eigenvalues --    4.87131   4.92451   5.06873   5.10716   5.20799
 Alpha virt. eigenvalues --    5.23222   5.26626   5.32034   5.35085   5.48979
 Alpha virt. eigenvalues --    5.53097   5.58905   5.60949   5.87596   5.91687
 Alpha virt. eigenvalues --    6.06766   6.16576   6.53539   6.57615   6.59058
 Alpha virt. eigenvalues --    6.62215   6.64809   6.67204   6.73239   6.95297
 Alpha virt. eigenvalues --    6.99490  10.09416  23.56346  23.60128  23.61730
 Alpha virt. eigenvalues --   23.73158  23.74959  23.75961  23.92937  24.01904
 Alpha virt. eigenvalues --   24.03624  24.09388  24.12134  24.18488  24.22976
 Alpha virt. eigenvalues --   24.30738  26.05026  26.42146  26.89593  35.82962
 Alpha virt. eigenvalues --   50.11121  50.22171  50.25075  50.30732  66.97949
 Alpha virt. eigenvalues --   67.00916  67.06491 216.20406
          Condensed to atoms (all electrons):
               1          2          3          4          5          6
     1  C   32.705780   0.012865  -0.932319  -0.331407  -0.444082  -0.711765
     2  N    0.012865   7.906941   0.205960  -0.074646  -0.114567  -0.263364
     3  C   -0.932319   0.205960   9.022218   0.456272   0.337920  -0.639142
     4  O   -0.331407  -0.074646   0.456272   8.141933  -0.149053  -0.150159
     5  O   -0.444082  -0.114567   0.337920  -0.149053   8.151404   0.293938
     6  C   -0.711765  -0.263364  -0.639142  -0.150159   0.293938   7.638059
     7  C   -1.392938  -0.374964  -0.267238   0.439381   0.138468   0.000850
     8  C   -8.621179   0.110372   1.240076   0.089397   0.066036   0.112650
     9  C   -0.990526  -0.088902  -1.140501  -0.007786  -0.008542  -0.076671
    10  C  -10.939836   0.169615  -0.943448  -0.008584  -0.046493  -0.075701
    11  C   -0.057725   0.076338  -1.396790  -0.077237  -0.148051  -0.243887
    12  H   -0.151249   0.016215  -0.001737   0.001730  -0.025598  -0.010035
    13  H    0.044149  -0.027283   0.120509   0.002938   0.003983   0.012272
    14  Cl  -0.470445  -0.003066   0.006991   0.002449   0.000333   0.001281
    15  C   -1.477544   0.031637  -0.294728  -0.001679   0.001021  -0.006686
    16  H    0.106400  -0.001968   0.005376  -0.000022  -0.000003   0.000051
    17  H    0.128326  -0.035640  -0.011706   0.000392  -0.001164  -0.000813
    18  F    0.059490  -0.000042  -0.000361   0.000003   0.000000  -0.000003
    19  F    0.028294   0.000005  -0.000406  -0.000005   0.000000  -0.000003
    20  F    0.027248  -0.000024  -0.000483  -0.000005  -0.000000  -0.000003
    21  O    0.208468  -0.004300   0.009824  -0.000029   0.000543   0.001236
    22  O    0.000352   0.070465  -0.049075   0.000660   0.014031  -0.003394
    23  C   -0.162198   0.008125   0.028311  -0.000187  -0.004542   0.007751
    24  C    0.049179  -0.032232   0.036500   0.000306   0.000016   0.014641
    25  H    0.000760   0.000140   0.000013   0.000000   0.000013   0.000009
    26  H    0.000812   0.000119  -0.000067   0.000000   0.000015   0.000012
    27  C    0.014955   0.007233  -0.008230   0.000287  -0.001920  -0.012754
    28  H    0.002782  -0.000062  -0.000664  -0.000001   0.000358   0.001095
    29  H    0.003214  -0.000071  -0.001024  -0.000003   0.000412   0.001439
    30  H   -0.001198  -0.000115   0.000147  -0.000000  -0.000028  -0.000052
    31  C    0.017050   0.009055   0.236382  -0.007612  -0.054421  -0.435238
    32  H   -0.000747   0.000044   0.010649  -0.000614   0.000651  -0.028173
    33  H   -0.000501   0.000060  -0.006469   0.000910   0.000959  -0.003484
    34  H    0.008151  -0.006183   0.038210   0.004026  -0.087336   0.418709
    35  H    0.024892   0.034752   0.088193   0.000067  -0.103362   0.282012
    36  C   -0.005989  -0.002393  -0.073353  -0.000229   0.000838   0.198734
    37  H   -0.000017  -0.000001   0.000548   0.000017   0.000026   0.001386
    38  H    0.000053   0.000006   0.003080  -0.000027   0.000035  -0.011560
    39  H   -0.000057  -0.000033  -0.002176  -0.000037  -0.000524   0.021133
               7          8          9         10         11         12
     1  C   -1.392938  -8.621179  -0.990526 -10.939836  -0.057725  -0.151249
     2  N   -0.374964   0.110372  -0.088902   0.169615   0.076338   0.016215
     3  C   -0.267238   1.240076  -1.140501  -0.943448  -1.396790  -0.001737
     4  O    0.439381   0.089397  -0.007786  -0.008584  -0.077237   0.001730
     5  O    0.138468   0.066036  -0.008542  -0.046493  -0.148051  -0.025598
     6  C    0.000850   0.112650  -0.076671  -0.075701  -0.243887  -0.010035
     7  C   17.157738   5.790219  -8.475369  -1.477970  -5.053412   0.011939
     8  C    5.790219  42.954606 -17.529698  -7.244942 -11.190290   0.005551
     9  C   -8.475369 -17.529698  43.231853  -0.460364   0.519860  -0.010433
    10  C   -1.477970  -7.244942  -0.460364  29.860929  -1.644686   0.103811
    11  C   -5.053412 -11.190290   0.519860  -1.644686  26.754612   0.006402
    12  H    0.011939   0.005551  -0.010433   0.103811   0.006402   0.306742
    13  H    0.268918  -0.019133   0.059451  -0.073943  -0.060502  -0.001079
    14  Cl   0.524754  -1.769647   0.347289   0.547488   0.498340   0.000310
    15  C   -0.707212   0.846375  -7.584950  -1.306840  -2.024711   0.001203
    16  H   -0.022142  -0.040346   0.123850   0.197565  -0.063564  -0.000139
    17  H    0.013603   0.004499  -0.012690  -0.168831   0.245704   0.026339
    18  F   -0.010469  -0.131732  -0.286191   0.079162   0.212626  -0.000002
    19  F    0.020355  -0.125603   0.169786   0.006519   0.007268   0.000002
    20  F    0.019858  -0.139641   0.175736   0.011175   0.010485   0.000002
    21  O   -0.007765   0.000631   0.019073  -0.202371  -0.041628   0.006649
    22  O    0.077572   0.023787   0.005179  -0.029939  -0.055005   0.068596
    23  C   -0.067534  -0.025444  -0.088051   0.068732   0.241117  -0.021610
    24  C   -0.023056  -0.008614  -0.038721  -0.064876  -0.200464   0.057226
    25  H    0.000084   0.000014  -0.000121  -0.000875   0.000071  -0.000023
    26  H    0.000078   0.000005  -0.000157  -0.001226   0.000546   0.000026
    27  C    0.003821   0.000442  -0.000817   0.000073   0.001682  -0.004327
    28  H    0.000385   0.000064  -0.000092  -0.000933  -0.003684  -0.000715
    29  H    0.000378   0.000064  -0.000099  -0.001092  -0.004005  -0.000718
    30  H   -0.000067  -0.000007   0.000022   0.000353   0.001567   0.000109
    31  C    0.009720   0.002554   0.000251   0.000426   0.003881  -0.000503
    32  H   -0.000246  -0.000020  -0.000014   0.000014   0.000219   0.000027
    33  H    0.000568   0.000128   0.000016  -0.000019  -0.000224  -0.000004
    34  H    0.003202  -0.000015   0.000249  -0.000062  -0.000654  -0.000065
    35  H   -0.028652  -0.000893  -0.000605   0.000086   0.005275   0.000152
    36  C   -0.000094   0.000420  -0.000124  -0.000177  -0.001286  -0.000109
    37  H    0.000009  -0.000000   0.000000   0.000000   0.000001   0.000000
    38  H   -0.000007  -0.000001   0.000000   0.000000   0.000002  -0.000000
    39  H    0.000008   0.000003  -0.000000  -0.000001  -0.000012   0.000000
              13         14         15         16         17         18
     1  C    0.044149  -0.470445  -1.477544   0.106400   0.128326   0.059490
     2  N   -0.027283  -0.003066   0.031637  -0.001968  -0.035640  -0.000042
     3  C    0.120509   0.006991  -0.294728   0.005376  -0.011706  -0.000361
     4  O    0.002938   0.002449  -0.001679  -0.000022   0.000392   0.000003
     5  O    0.003983   0.000333   0.001021  -0.000003  -0.001164   0.000000
     6  C    0.012272   0.001281  -0.006686   0.000051  -0.000813  -0.000003
     7  C    0.268918   0.524754  -0.707212  -0.022142   0.013603  -0.010469
     8  C   -0.019133  -1.769647   0.846375  -0.040346   0.004499  -0.131732
     9  C    0.059451   0.347289  -7.584950   0.123850  -0.012690  -0.286191
    10  C   -0.073943   0.547488  -1.306840   0.197565  -0.168831   0.079162
    11  C   -0.060502   0.498340  -2.024711  -0.063564   0.245704   0.212626
    12  H   -0.001079   0.000310   0.001203  -0.000139   0.026339  -0.000002
    13  H    0.368064  -0.021389   0.006439   0.000079   0.000034   0.000021
    14  Cl  -0.021389  17.755166  -0.792612  -0.000987   0.000363   0.010782
    15  C    0.006439  -0.792612  18.030278   0.012675   0.001901   0.205955
    16  H    0.000079  -0.000987   0.012675   0.404014  -0.002456   0.010006
    17  H    0.000034   0.000363   0.001901  -0.002456   0.307823   0.000171
    18  F    0.000021   0.010782   0.205955   0.010006   0.000171   9.062449
    19  F   -0.000022  -0.018886   0.049974   0.000229   0.000009  -0.034801
    20  F   -0.000023  -0.018440   0.051890   0.000223   0.000010  -0.034800
    21  O   -0.000007   0.000063  -0.001073   0.000584   0.029036  -0.000023
    22  O    0.000171   0.000003   0.001996   0.000036   0.004445   0.000002
    23  C    0.000367   0.000554  -0.024021  -0.001497   0.013348   0.000210
    24  C    0.000049  -0.000121  -0.004501   0.000293   0.037449   0.000026
    25  H   -0.000000   0.000000  -0.000003   0.000000  -0.000086  -0.000000
    26  H   -0.000000   0.000000  -0.000004   0.000000  -0.000116  -0.000000
    27  C   -0.000006   0.000024  -0.000004  -0.000047  -0.000194   0.000000
    28  H    0.000000  -0.000000  -0.000002   0.000000  -0.000022  -0.000000
    29  H    0.000000  -0.000000  -0.000002   0.000000  -0.000025  -0.000000
    30  H   -0.000000   0.000000   0.000000   0.000000   0.000000   0.000000
    31  C    0.000233   0.000034  -0.000038   0.000000  -0.000024  -0.000000
    32  H   -0.000002   0.000000  -0.000000   0.000000  -0.000000  -0.000000
    33  H    0.000007  -0.000001   0.000000   0.000000   0.000000   0.000000
    34  H    0.000004  -0.000002   0.000008  -0.000000  -0.000001   0.000000
    35  H   -0.000271   0.000029  -0.000112   0.000000   0.000004  -0.000000
    36  C    0.000027   0.000004  -0.000005   0.000000  -0.000001  -0.000000
    37  H    0.000000   0.000000   0.000000   0.000000  -0.000000  -0.000000
    38  H   -0.000000  -0.000000   0.000000  -0.000000   0.000000   0.000000
    39  H    0.000000  -0.000000  -0.000000   0.000000   0.000000  -0.000000
              19         20         21         22         23         24
     1  C    0.028294   0.027248   0.208468   0.000352  -0.162198   0.049179
     2  N    0.000005  -0.000024  -0.004300   0.070465   0.008125  -0.032232
     3  C   -0.000406  -0.000483   0.009824  -0.049075   0.028311   0.036500
     4  O   -0.000005  -0.000005  -0.000029   0.000660  -0.000187   0.000306
     5  O    0.000000  -0.000000   0.000543   0.014031  -0.004542   0.000016
     6  C   -0.000003  -0.000003   0.001236  -0.003394   0.007751   0.014641
     7  C    0.020355   0.019858  -0.007765   0.077572  -0.067534  -0.023056
     8  C   -0.125603  -0.139641   0.000631   0.023787  -0.025444  -0.008614
     9  C    0.169786   0.175736   0.019073   0.005179  -0.088051  -0.038721
    10  C    0.006519   0.011175  -0.202371  -0.029939   0.068732  -0.064876
    11  C    0.007268   0.010485  -0.041628  -0.055005   0.241117  -0.200464
    12  H    0.000002   0.000002   0.006649   0.068596  -0.021610   0.057226
    13  H   -0.000022  -0.000023  -0.000007   0.000171   0.000367   0.000049
    14  Cl  -0.018886  -0.018440   0.000063   0.000003   0.000554  -0.000121
    15  C    0.049974   0.051890  -0.001073   0.001996  -0.024021  -0.004501
    16  H    0.000229   0.000223   0.000584   0.000036  -0.001497   0.000293
    17  H    0.000009   0.000010   0.029036   0.004445   0.013348   0.037449
    18  F   -0.034801  -0.034800  -0.000023   0.000002   0.000210   0.000026
    19  F    9.001445  -0.052343  -0.000002   0.000000  -0.000051  -0.000003
    20  F   -0.052343   9.000788  -0.000002   0.000000  -0.000045  -0.000003
    21  O   -0.000002  -0.000002   8.303515  -0.144836   0.568236  -0.329652
    22  O    0.000000   0.000000  -0.144836   8.421063   0.295149  -0.267929
    23  C   -0.000051  -0.000045   0.568236   0.295149   6.813345  -1.967254
    24  C   -0.000003  -0.000003  -0.329652  -0.267929  -1.967254   8.899243
    25  H   -0.000000  -0.000000  -0.003892   0.001691  -0.045098   0.429000
    26  H   -0.000000  -0.000000  -0.003678   0.004164  -0.055502   0.430868
    27  C   -0.000000  -0.000000   0.032125   0.043816   0.357665  -0.615204
    28  H   -0.000000  -0.000000  -0.000169  -0.009477  -0.027765  -0.005978
    29  H   -0.000000  -0.000000  -0.000174  -0.009847  -0.025784  -0.011420
    30  H    0.000000   0.000000  -0.000464   0.004942   0.087781  -0.147929
    31  C    0.000000  -0.000000  -0.000046  -0.000487   0.000268  -0.002598
    32  H   -0.000000  -0.000000  -0.000000  -0.000045   0.000017  -0.000083
    33  H    0.000000   0.000000   0.000000   0.000007   0.000010   0.000016
    34  H    0.000000   0.000000   0.000002   0.000234  -0.000114  -0.000317
    35  H   -0.000000  -0.000000  -0.000004  -0.000407   0.000458   0.000042
    36  C    0.000000  -0.000000   0.000002   0.000136   0.000117   0.000124
    37  H   -0.000000   0.000000   0.000000   0.000000  -0.000000   0.000000
    38  H    0.000000  -0.000000  -0.000000  -0.000000   0.000000  -0.000001
    39  H   -0.000000   0.000000  -0.000000  -0.000001  -0.000002   0.000007
              25         26         27         28         29         30
     1  C    0.000760   0.000812   0.014955   0.002782   0.003214  -0.001198
     2  N    0.000140   0.000119   0.007233  -0.000062  -0.000071  -0.000115
     3  C    0.000013  -0.000067  -0.008230  -0.000664  -0.001024   0.000147
     4  O    0.000000   0.000000   0.000287  -0.000001  -0.000003  -0.000000
     5  O    0.000013   0.000015  -0.001920   0.000358   0.000412  -0.000028
     6  C    0.000009   0.000012  -0.012754   0.001095   0.001439  -0.000052
     7  C    0.000084   0.000078   0.003821   0.000385   0.000378  -0.000067
     8  C    0.000014   0.000005   0.000442   0.000064   0.000064  -0.000007
     9  C   -0.000121  -0.000157  -0.000817  -0.000092  -0.000099   0.000022
    10  C   -0.000875  -0.001226   0.000073  -0.000933  -0.001092   0.000353
    11  C    0.000071   0.000546   0.001682  -0.003684  -0.004005   0.001567
    12  H   -0.000023   0.000026  -0.004327  -0.000715  -0.000718   0.000109
    13  H   -0.000000  -0.000000  -0.000006   0.000000   0.000000  -0.000000
    14  Cl   0.000000   0.000000   0.000024  -0.000000  -0.000000   0.000000
    15  C   -0.000003  -0.000004  -0.000004  -0.000002  -0.000002   0.000000
    16  H    0.000000   0.000000  -0.000047   0.000000   0.000000   0.000000
    17  H   -0.000086  -0.000116  -0.000194  -0.000022  -0.000025   0.000000
    18  F   -0.000000  -0.000000   0.000000  -0.000000  -0.000000   0.000000
    19  F   -0.000000  -0.000000  -0.000000  -0.000000  -0.000000   0.000000
    20  F   -0.000000  -0.000000  -0.000000  -0.000000  -0.000000   0.000000
    21  O   -0.003892  -0.003678   0.032125  -0.000169  -0.000174  -0.000464
    22  O    0.001691   0.004164   0.043816  -0.009477  -0.009847   0.004942
    23  C   -0.045098  -0.055502   0.357665  -0.027765  -0.025784   0.087781
    24  C    0.429000   0.430868  -0.615204  -0.005978  -0.011420  -0.147929
    25  H    0.466369  -0.036813  -0.048612   0.005966  -0.007333  -0.003084
    26  H   -0.036813   0.466034  -0.041505  -0.007513   0.005928  -0.003464
    27  C   -0.048612  -0.041505   6.050454   0.393635   0.398209   0.403849
    28  H    0.005966  -0.007513   0.393635   0.461669  -0.030201  -0.035335
    29  H   -0.007333   0.005928   0.398209  -0.030201   0.462909  -0.036250
    30  H   -0.003084  -0.003464   0.403849  -0.035335  -0.036250   0.505476
    31  C    0.000000  -0.000002   0.001641  -0.000036  -0.000044  -0.000006
    32  H    0.000000   0.000000   0.000119  -0.000003  -0.000001   0.000000
    33  H   -0.000000  -0.000000  -0.000019   0.000000   0.000000  -0.000000
    34  H    0.000000  -0.000000   0.000243  -0.000004  -0.000017  -0.000000
    35  H    0.000000   0.000000   0.000047  -0.000000   0.000000  -0.000000
    36  C    0.000000  -0.000000  -0.000215   0.000020   0.000005  -0.000000
    37  H   -0.000000   0.000000  -0.000000  -0.000000   0.000000  -0.000000
    38  H    0.000000   0.000000   0.000001  -0.000000  -0.000000   0.000000
    39  H   -0.000000  -0.000000  -0.000008   0.000000   0.000000  -0.000000
              31         32         33         34         35         36
     1  C    0.017050  -0.000747  -0.000501   0.008151   0.024892  -0.005989
     2  N    0.009055   0.000044   0.000060  -0.006183   0.034752  -0.002393
     3  C    0.236382   0.010649  -0.006469   0.038210   0.088193  -0.073353
     4  O   -0.007612  -0.000614   0.000910   0.004026   0.000067  -0.000229
     5  O   -0.054421   0.000651   0.000959  -0.087336  -0.103362   0.000838
     6  C   -0.435238  -0.028173  -0.003484   0.418709   0.282012   0.198734
     7  C    0.009720  -0.000246   0.000568   0.003202  -0.028652  -0.000094
     8  C    0.002554  -0.000020   0.000128  -0.000015  -0.000893   0.000420
     9  C    0.000251  -0.000014   0.000016   0.000249  -0.000605  -0.000124
    10  C    0.000426   0.000014  -0.000019  -0.000062   0.000086  -0.000177
    11  C    0.003881   0.000219  -0.000224  -0.000654   0.005275  -0.001286
    12  H   -0.000503   0.000027  -0.000004  -0.000065   0.000152  -0.000109
    13  H    0.000233  -0.000002   0.000007   0.000004  -0.000271   0.000027
    14  Cl   0.000034   0.000000  -0.000001  -0.000002   0.000029   0.000004
    15  C   -0.000038  -0.000000   0.000000   0.000008  -0.000112  -0.000005
    16  H    0.000000   0.000000   0.000000  -0.000000   0.000000   0.000000
    17  H   -0.000024  -0.000000   0.000000  -0.000001   0.000004  -0.000001
    18  F   -0.000000  -0.000000   0.000000   0.000000  -0.000000  -0.000000
    19  F    0.000000  -0.000000   0.000000   0.000000  -0.000000   0.000000
    20  F   -0.000000  -0.000000   0.000000   0.000000  -0.000000  -0.000000
    21  O   -0.000046  -0.000000   0.000000   0.000002  -0.000004   0.000002
    22  O   -0.000487  -0.000045   0.000007   0.000234  -0.000407   0.000136
    23  C    0.000268   0.000017   0.000010  -0.000114   0.000458   0.000117
    24  C   -0.002598  -0.000083   0.000016  -0.000317   0.000042   0.000124
    25  H    0.000000   0.000000  -0.000000   0.000000   0.000000   0.000000
    26  H   -0.000002   0.000000  -0.000000  -0.000000   0.000000  -0.000000
    27  C    0.001641   0.000119  -0.000019   0.000243   0.000047  -0.000215
    28  H   -0.000036  -0.000003   0.000000  -0.000004  -0.000000   0.000020
    29  H   -0.000044  -0.000001   0.000000  -0.000017   0.000000   0.000005
    30  H   -0.000006   0.000000  -0.000000  -0.000000  -0.000000  -0.000000
    31  C    6.073697   0.384793   0.384050  -0.064383  -0.033271  -0.045940
    32  H    0.384793   0.465636  -0.076938   0.001022   0.004805  -0.035955
    33  H    0.384050  -0.076938   0.478895   0.001134  -0.005953  -0.048049
    34  H   -0.064383   0.001022   0.001134   0.454351  -0.014786   0.001449
    35  H   -0.033271   0.004805  -0.005953  -0.014786   0.450787  -0.004515
    36  C   -0.045940  -0.035955  -0.048049   0.001449  -0.004515   5.777134
    37  H   -0.006124  -0.003241   0.001895  -0.000147  -0.000118   0.361354
    38  H    0.006601   0.002184  -0.004230   0.000127   0.000186   0.361525
    39  H   -0.073669   0.001519   0.003629   0.001167   0.000218   0.395122
              37         38         39
     1  C   -0.000017   0.000053  -0.000057
     2  N   -0.000001   0.000006  -0.000033
     3  C    0.000548   0.003080  -0.002176
     4  O    0.000017  -0.000027  -0.000037
     5  O    0.000026   0.000035  -0.000524
     6  C    0.001386  -0.011560   0.021133
     7  C    0.000009  -0.000007   0.000008
     8  C   -0.000000  -0.000001   0.000003
     9  C    0.000000   0.000000  -0.000000
    10  C    0.000000   0.000000  -0.000001
    11  C    0.000001   0.000002  -0.000012
    12  H    0.000000  -0.000000   0.000000
    13  H    0.000000  -0.000000   0.000000
    14  Cl   0.000000  -0.000000  -0.000000
    15  C    0.000000   0.000000  -0.000000
    16  H    0.000000  -0.000000   0.000000
    17  H   -0.000000   0.000000   0.000000
    18  F   -0.000000   0.000000  -0.000000
    19  F   -0.000000   0.000000  -0.000000
    20  F    0.000000  -0.000000   0.000000
    21  O    0.000000  -0.000000  -0.000000
    22  O    0.000000  -0.000000  -0.000001
    23  C   -0.000000   0.000000  -0.000002
    24  C    0.000000  -0.000001   0.000007
    25  H   -0.000000   0.000000  -0.000000
    26  H    0.000000   0.000000  -0.000000
    27  C   -0.000000   0.000001  -0.000008
    28  H   -0.000000  -0.000000   0.000000
    29  H    0.000000  -0.000000   0.000000
    30  H   -0.000000   0.000000  -0.000000
    31  C   -0.006124   0.006601  -0.073669
    32  H   -0.003241   0.002184   0.001519
    33  H    0.001895  -0.004230   0.003629
    34  H   -0.000147   0.000127   0.001167
    35  H   -0.000118   0.000186   0.000218
    36  C    0.361354   0.361525   0.395122
    37  H    0.490624  -0.072784  -0.022168
    38  H   -0.072784   0.496642  -0.024680
    39  H   -0.022168  -0.024680   0.444754
 Mulliken charges:
               1
     1  C   -0.751496
     2  N   -0.630090
     3  C   -0.077264
     4  O   -0.331442
     5  O    0.178683
     6  C   -0.334373
     7  C   -0.572775
     8  C    1.599313
     9  C   -1.851186
    10  C   -0.352739
    11  C   -0.318178
    12  H    0.615317
    13  H    0.315946
    14  Cl   0.399337
    15  C    0.985376
    16  H    0.271789
    17  H    0.420312
    18  F   -0.142478
    19  F   -0.051762
    20  F   -0.051603
    21  O   -0.439870
    22  O   -0.468054
    23  C    0.025139
    24  C   -0.234032
    25  H    0.241810
    26  H    0.241440
    27  C   -0.976457
    28  H    0.256681
    29  H    0.255552
    30  H    0.223752
    31  C   -0.406195
    32  H    0.274384
    33  H    0.273608
    34  H    0.241799
    35  H    0.300943
    36  C   -0.878578
    37  H    0.248740
    38  H    0.242847
    39  H    0.255807
 Sum of Mulliken charges =  -1.00000
 Mulliken charges with hydrogens summed into heavy atoms:
               1
     1  C   -0.751496
     2  N   -0.014773
     3  C   -0.077264
     4  O   -0.331442
     5  O    0.178683
     6  C    0.208369
     7  C   -0.256828
     8  C    1.599313
     9  C   -1.851186
    10  C   -0.080950
    11  C    0.102134
    14  Cl   0.399337
    15  C    0.985376
    18  F   -0.142478
    19  F   -0.051762
    20  F   -0.051603
    21  O   -0.439870
    22  O   -0.468054
    23  C    0.025139
    24  C    0.249218
    27  C   -0.240472
    31  C    0.141797
    36  C   -0.131184
 APT charges:
               1
     1  C   -2.218035
     2  N   -0.994213
     3  C    0.053584
     4  O   -0.184648
     5  O    0.751664
     6  C   -1.234609
     7  C   -0.472926
     8  C    3.165405
     9  C    0.131115
    10  C   -0.309497
    11  C   -1.190494
    12  H    0.547440
    13  H    0.574033
    14  Cl  -0.323663
    15  C   -0.999429
    16  H    0.720960
    17  H    0.519906
    18  F    0.018444
    19  F    0.060220
    20  F    0.046258
    21  O   -0.558551
    22  O   -0.429360
    23  C   -0.328049
    24  C   -0.388343
    25  H    0.658571
    26  H    0.644568
    27  C   -1.892391
    28  H    0.177127
    29  H    0.188453
    30  H    1.036560
    31  C   -1.068922
    32  H    0.616497
    33  H    0.792041
    34  H    0.746613
    35  H    0.146033
    36  C   -2.688123
    37  H    1.338357
    38  H    1.308891
    39  H    0.038511
 Sum of APT charges =  -1.00000
 APT charges with hydrogens summed into heavy atoms:
               1
     1  C   -2.218035
     2  N   -0.446773
     3  C    0.053584
     4  O   -0.184648
     5  O    0.751664
     6  C   -0.341962
     7  C    0.101107
     8  C    3.165405
     9  C    0.131115
    10  C    0.411463
    11  C   -0.670587
    14  Cl  -0.323663
    15  C   -0.999429
[...]
 00323726,0.00343199,0.00223343,-0.00061708,-0.01340162,-0.00851385,0.0
 0207248,-0.01170988,-0.31126398,-0.02943036,-0.00009224,0.00005889,-0.
 00003855,0.00006770,-0.00004558,0.00006126,-0.00009052,0.00004108,-0.0
 0002256,0.00004149,-0.00002786,0.00002407,-0.00011869,0.00001951,0.000
 00327,0.00018382,0.00005756,-0.00022639,0.00001915,-0.00001829,-0.0000
 3365,-0.00001319,0.00005228,-0.00002807,0.00014351,-0.00007448,0.00001
 204,-0.00000598,-0.00000121,-0.00000165,0.00001370,-0.00000421,-0.0000
 1004,-0.00003774,0.00000152,0.00000480,-0.00004046,0.00004793,0.000008
 64,-0.00004037,0.00002021,-0.00003186,-0.00019227,-0.00003335,0.000040
 11,-0.00022666,-0.00022820,0.00022302,0.00027692,0.00020879,-0.0001371
 0,0.00000142,-0.00002519,0.00001408,-0.00000733,-0.00000495,0.00001405
 ,-0.00000090,-0.00000900,-0.00000169,-0.00000112,-0.00000392,-0.000017
 50,-0.00000095,0.00002560,0.00001246,0.00000139,0.00000705,-0.00001755
 ,0.00000083,-0.00001963,0.00001397,0.00033507,-0.00865273,-0.00134842,
 0.00024874,0.00102094,-0.00124245,-0.00007819,0.00053764,0.00012645,0.
 00053291,-0.01101100,-0.00169006,0.01631282,0.33844271,-0.00039666,0.0
 0012150,-0.00012935,0.00080678,0.00042017,-0.00028714,-0.00205794,-0.0
 0044780,0.00113664,-0.00005752,0.00015100,-0.00068014,0.00518436,0.011
 08490,0.00097469,-0.00142578,-0.02773603,-0.05524316,0.00007332,-0.000
 11415,0.00005753,-0.00003817,0.00006661,-0.00004824,0.00009865,-0.0000
 5437,0.00003105,-0.00005156,0.00004569,-0.00002539,0.00013691,0.000006
 04,-0.00000981,-0.00003601,-0.00017519,0.00017650,-0.00003725,0.000025
 72,0.00000148,0.00001342,-0.00003659,0.00002131,-0.00015898,0.00005495
 ,-0.00002164,0.00000619,0.00000046,-0.00000076,-0.00000141,-0.00001868
 ,0.00001238,0.00004795,0.00000759,-0.00000673,0.00004311,-0.00004115,-
 0.00000631,0.00004444,-0.00001562,0.00003486,0.00009109,0.00004861,-0.
 00003264,0.00011958,0.00021875,-0.00015217,-0.00014852,-0.00013596,0.0
 0008889,0.00000186,0.00002471,-0.00001053,0.00000107,0.00000514,-0.000
 00776,0.00000417,0.00000982,-0.00000078,0.00000598,-0.00000197,-0.0000
 0797,-0.00000298,-0.00001390,-0.00000569,-0.00000393,-0.00000190,0.000
 02031,-0.00000250,0.00001384,-0.00000627,-0.00019686,-0.03365457,-0.00
 439355,0.00168931,-0.00174685,-0.00593617,-0.00064571,0.00035035,0.001
 36543,0.00165042,0.02143330,0.00360851,-0.00404249,0.02946114,0.058302
 69,-0.00014941,0.00006788,-0.00004317,0.00030488,-0.00005670,-0.000025
 90,-0.00037700,0.00041363,-0.00035674,0.00013252,-0.00013276,0.0003065
 5,0.00190682,0.00044675,0.00035018,-0.01352889,-0.00204229,0.00700997,
 0.00004269,-0.00004618,0.00001661,-0.00002437,0.00004206,-0.00000991,0
 .00004439,-0.00002417,0.00000781,-0.00002446,0.00002043,-0.00000882,0.
 00005552,-0.00000148,-0.00000599,-0.00002577,-0.00004686,0.00005427,-0
 .00001048,0.00000431,-0.00000807,0.00000514,-0.00002318,0.00001453,-0.
 00006969,0.00002805,-0.00001394,0.00000210,0.00000012,0.00000019,-0.00
 000305,-0.00000381,0.00000506,0.00001975,0.00000184,-0.00000103,0.0000
 1953,-0.00002054,-0.00000185,0.00001958,-0.00000820,0.00001698,0.00005
 371,0.00002801,-0.00002093,0.00007473,0.00010301,-0.00010020,-0.000092
 88,-0.00010036,0.00006394,0.00000474,0.00001304,-0.00000939,0.00000036
 ,0.00000139,-0.00000500,-0.00000299,0.00000295,0.00000111,-0.00000788,
 0.00000501,0.00000874,0.00000494,-0.00001149,0.00000334,0.00000389,-0.
 00000878,0.00000145,-0.00000011,0.00001256,-0.00000954,-0.19021622,-0.
 03223257,0.02505090,-0.00420241,-0.00086631,0.00076803,-0.02134336,-0.
 00731993,0.00726831,0.00135409,-0.00040981,-0.00146625,0.00073392,0.00
 007539,-0.00123896,0.49544753,-0.00035223,0.00020068,-0.00005313,0.000
 84481,0.00013553,0.00010284,-0.00143888,0.00033728,-0.00007832,0.00038
 234,-0.00051886,-0.00040071,0.00281502,0.00018754,-0.00259343,0.007056
 78,0.00206693,0.00125348,0.00007583,-0.00010377,0.00004209,-0.00005500
 ,0.00007950,-0.00004405,0.00009200,-0.00005854,0.00001742,-0.00005012,
 0.00004471,-0.00002207,0.00013319,-0.00000924,-0.00001332,-0.00001684,
 -0.00021830,0.00006345,-0.00001872,0.00003646,0.00000045,0.00001030,-0
 .00004631,0.00002457,-0.00012546,0.00005844,-0.00002369,0.00000606,-0.
 00000081,0.00000066,0.00000005,-0.00002183,0.00001323,0.00003326,0.000
 00259,-0.00000287,0.00003498,-0.00003936,-0.00000326,0.00003434,-0.000
 01681,0.00003117,0.00000652,0.00003614,-0.00001821,0.00001272,0.000164
 59,-0.00000969,-0.00002431,-0.00005313,0.00002869,0.00000367,0.0000126
 9,-0.00000299,-0.00000583,0.00000271,-0.00000051,0.00000302,0.00000658
 ,-0.00000173,0.00000492,-0.00000612,-0.00002660,-0.00000095,0.00000806
 ,0.00000362,0.00000096,0.00000135,0.00000808,-0.00000459,0.00000242,0.
 00000472,-0.03220614,-0.09027790,0.00707567,-0.03307293,-0.00610362,0.
 00923847,0.01322566,0.00440370,-0.00506786,-0.00022558,0.00007042,0.00
 021475,0.00078821,0.00030211,-0.00061129,-0.02408486,0.56663672,-0.000
 42442,0.00031751,-0.00002956,0.00142653,-0.00018148,0.00032251,-0.0029
 3019,0.00322885,-0.00328479,-0.00014413,-0.00116539,0.00158160,0.00802
 952,-0.00261649,-0.00661576,0.03004412,0.01013959,-0.00464790,0.000119
 32,-0.00010379,0.00006213,-0.00005585,0.00006491,-0.00004125,0.0001093
 1,-0.00006270,0.00003366,-0.00006631,0.00005061,-0.00004381,0.00018875
 ,-0.00000795,0.00000287,-0.00014625,-0.00029289,0.00004010,-0.00001269
 ,0.00000049,-0.00002249,0.00001005,-0.00004500,0.00003010,-0.00015074,
 0.00005580,-0.00003993,0.00000834,-0.00000142,0.00000046,-0.00000573,-
 0.00002127,0.00001323,0.00003921,0.00000591,-0.00000166,0.00004011,-0.
 00003969,-0.00000042,0.00004263,-0.00001775,0.00004240,0.00006011,0.00
 006301,-0.00003169,0.00009414,0.00026688,-0.00008579,-0.00011390,-0.00
 015745,0.00008905,0.00001165,0.00002398,-0.00001399,-0.00000687,0.0000
 0436,-0.00000379,-0.00000187,0.00000905,-0.00000132,-0.00000671,0.0000
 0101,-0.00001710,0.00000450,-0.00000329,0.00001105,0.00000706,-0.00001
 023,0.00000644,-0.00000388,0.00001492,-0.00000498,0.02394814,0.0068148
 1,-0.08684548,-0.00232433,-0.00010220,-0.00014154,-0.01919267,-0.00739
 977,0.00677885,0.00020827,0.00048372,0.00091561,-0.00022917,0.00023055
 ,0.00116430,0.01329886,0.00739928,0.57685647,0.00036122,-0.00019267,0.
 00005870,-0.00082599,-0.00002814,-0.00005631,0.00165281,-0.00097653,0.
 00079706,-0.00022023,0.00044744,-0.00033767,-0.00274520,0.00064911,0.0
 0219480,-0.00473720,-0.00278332,-0.00255905,-0.00008281,0.00009000,-0.
 00005544,0.00005063,-0.00007075,0.00004530,-0.00009384,0.00005048,-0.0
 0003159,0.00005288,-0.00004155,0.00002707,-0.00013459,0.00000039,0.000
 00300,0.00006029,0.00017256,-0.00006385,0.00002315,-0.00001393,0.00001
 709,-0.00001078,0.00004480,-0.00002955,0.00013813,-0.00005009,0.000045
 69,-0.00000540,0.00000061,0.00000088,0.00000448,0.00001487,-0.00000623
 ,-0.00003687,-0.00000413,0.00000003,-0.00003672,0.00003482,-0.00000103
 ,-0.00004032,0.00001575,-0.00004346,-0.00007632,-0.00004119,0.00002000
 ,-0.00009449,-0.00019003,0.00009378,0.00012722,0.00012013,-0.00007032,
 -0.00000257,-0.00001620,0.00001098,0.00000104,-0.00000260,0.00000476,-
 0.00000153,-0.00000826,-0.00000033,0.00000068,0.00000058,0.00000448,-0
 .00000026,0.00000815,-0.00000148,-0.00000262,0.00000386,-0.00000905,0.
 00000241,-0.00001107,0.00000567,-0.00711397,0.01045613,0.03167822,0.00
 137314,-0.00028493,-0.00044958,0.00105835,0.00079145,-0.00059459,0.000
 20581,-0.00024761,0.00023367,0.00002890,0.00014638,-0.00023486,-0.0611
 2119,0.01815475,0.05824875,0.06732869,-0.00000533,-0.00001525,-0.00001
 029,-0.00007192,0.00000182,-0.00003430,0.00006429,-0.00022002,0.000229
 92,0.00006502,0.00011821,-0.00001773,-0.00079143,0.00062578,0.00040051
 ,-0.00138909,-0.00071174,-0.00029681,-0.00000034,-0.00000130,0.0000029
 6,0.00000021,0.00001046,-0.00000473,-0.00000038,-0.00000202,0.00000355
 ,-0.00000141,-0.00000022,0.00000023,-0.00000435,0.00000083,0.00000127,
 -0.00000018,0.00003061,-0.00000337,-0.00000138,-0.00000116,-0.00000634
 ,0.00000085,-0.00000658,0.00000531,-0.00000108,0.00000460,-0.00000858,
 -0.00000079,0.00000018,-0.00000028,-0.00000186,0.00000551,-0.00000297,
 -0.00000096,-0.00000217,0.00000219,0.00000052,-0.00000154,0.00000137,0
 .00000136,-0.00000130,0.00000488,0.00001984,-0.00000956,0.00000301,0.0
 0001402,-0.00001272,-0.00000550,-0.00002401,0.00000408,0.00000116,-0.0
 0000216,-0.00000238,-0.00000043,0.00000212,-0.00000075,-0.00000140,-0.
 00000012,-0.00000053,0.00000111,-0.00000008,-0.00000045,0.00000736,-0.
 00000005,-0.00000026,-0.00000333,-0.00000032,-0.00000031,-0.00000086,0
 .00000060,-0.00000026,-0.00000030,-0.00208084,0.00201244,0.01084334,0.
 00058825,0.00021677,0.00026228,0.00056756,0.00009118,-0.00045927,-0.00
 005137,-0.00008664,-0.00033305,-0.00010199,0.00044438,0.00036527,0.018
 36753,-0.06903092,-0.07101850,-0.01817781,0.07072503,-0.00030548,0.000
 14893,-0.00007423,0.00063547,0.00002716,-0.00000802,-0.00107104,0.0004
 4221,-0.00031155,0.00025762,-0.00018274,0.00011136,0.00115945,-0.00059
 705,-0.00028095,0.00084158,0.00101956,0.00160988,0.00006963,-0.0000789
 6,0.00004914,-0.00005270,0.00006536,-0.00003864,0.00008709,-0.00004111
 ,0.00002471,-0.00004292,0.00003656,-0.00002038,0.00011129,0.00000090,-
 0.00000073,-0.00004068,-0.00014143,0.00006844,-0.00002615,0.00001415,-
 0.00001354,0.00001166,-0.00004002,0.00002530,-0.00014596,0.00004580,-0
 .00004052,0.00000462,-0.00000032,-0.00000138,-0.00000370,-0.00001396,0
 .00000586,0.00004224,0.00000611,-0.00000179,0.00003910,-0.00003408,-0.
 00000011,0.00004228,-0.00001469,0.00004104,0.00008621,0.00004076,-0.00
 002001,0.00010316,0.00018496,-0.00008992,-0.00013914,-0.00012428,0.000
 07172,-0.00000118,0.00001895,-0.00000975,-0.00000032,0.00000143,-0.000
 00545,0.00000474,0.00000902,0.00000189,0.00000086,-0.00000681,-0.00000
 601,-0.00000082,-0.00001195,0.00000022,0.00000068,0.00000019,0.0000147
 3,-0.00000198,0.00001331,-0.00000811,0.00043086,-0.00128543,-0.0050401
 8,0.00012092,0.00046722,0.00000798,0.00032918,-0.00003223,0.00047887,-
 0.00008947,0.00000336,0.00042020,-0.00012223,-0.00001807,0.00007578,0.
 05878721,-0.07077456,-0.28287793,-0.06530231,0.07733635,0.30478370,-0.
 00001279,0.00000009,-0.00001125,0.00009382,0.00013554,-0.00004724,0.00
 005566,-0.00057346,0.00024422,0.00017441,0.00036620,-0.00021709,0.0000
 0514,0.00082857,-0.00005683,0.00086274,-0.00139757,-0.00100842,-0.0000
 0137,-0.00001594,-0.00000530,-0.00000477,-0.00000102,0.00000540,0.0000
 0910,0.00000535,0.00000361,0.00000268,0.00000412,0.00000197,0.00000694
 ,0.00000220,-0.00000269,0.00002070,-0.00006847,0.00000782,-0.00001329,
 -0.00000171,0.00000040,0.00000216,0.00000674,-0.00000406,-0.00001968,-
 0.00000577,-0.00000221,0.00000113,-0.00000020,-0.00000052,0.00000359,-
 0.00001094,0.00000267,0.00000859,0.00000456,-0.00000238,0.00000463,0.0
 0000046,-0.00000034,0.00000511,0.00000099,0.00000218,-0.00003309,0.000
 01083,-0.00000071,-0.00003560,0.00002111,0.00002907,0.00004476,0.00001
 492,-0.00001300,0.00000114,0.00000066,0.00000029,-0.00000259,0.0000004
 8,0.00000201,0.00000045,0.00000087,-0.00000127,0.00000334,-0.00000147,
 -0.00001097,-0.00000196,0.00000742,0.00000118,0.,0.00000117,0.00000005
 ,-0.00000194,-0.00000284,0.00000481,-0.00300834,-0.03387790,-0.0019446
 0,-0.00601813,-0.00119350,0.00209173,0.00133848,0.00035866,-0.00077602
 ,-0.00002714,0.00015893,0.00008464,-0.00010400,0.00062858,0.00065139,-
 0.05024214,-0.02525904,-0.00236504,-0.00054677,0.00769609,-0.00057544,
 0.05534934,0.00012606,-0.00006095,0.00002334,-0.00018350,0.00005616,-0
 .00000168,0.00033417,-0.00038106,0.00006006,-0.00004511,0.00023989,-0.
 00000280,-0.00030030,0.00063452,0.00010685,0.00073318,-0.00007472,-0.0
 0073763,-0.00003047,0.00004021,-0.00000485,0.00002211,-0.00004194,0.00
 002184,-0.00003382,0.00002315,-0.00001245,0.00002265,-0.00001406,0.000
 00833,-0.00004286,0.00000493,0.00000591,0.00001793,-0.00001616,-0.0000
 2374,0.00000309,-0.00001428,-0.00000139,-0.00000481,0.00002930,-0.0000
 1622,0.00005289,-0.00003835,0.00000797,-0.00000050,-0.00000123,-0.0000
 0098,0.00000547,-0.00000804,-0.00000024,-0.00001207,0.00000420,0.00000
 016,-0.00001655,0.00002429,0.00000402,-0.00001489,0.00001000,-0.000012
 49,-0.00007464,0.00000838,0.00000759,-0.00007154,-0.00002907,0.0000620
 3,0.00010300,0.00003777,-0.00003148,0.00000632,-0.00000356,0.00000356,
 -0.00000686,0.00000028,0.00000664,-0.00000112,-0.00000098,-0.00000270,
 -0.00000215,0.00000109,-0.00001794,0.00000148,0.00000920,0.00001134,0.
 00000208,0.00000068,-0.00000509,-0.00000098,-0.00000522,0.00000459,-0.
 00172507,-0.00836723,-0.00024842,-0.00174127,0.00136770,0.00021167,-0.
 00026795,0.00052976,-0.00009255,-0.00006531,-0.00007239,-0.00002696,-0
 .00032926,0.00034176,0.00074463,-0.02582221,-0.31073086,-0.01648975,-0
 .00024970,-0.00796575,-0.00032876,0.03060952,0.33706390,0.00008890,-0.
 00004081,0.00002694,-0.00019326,0.00001001,-0.00000570,0.00035447,-0.0
 0020015,0.00015969,-0.00006995,0.00004899,-0.00016542,-0.00042667,-0.0
 0027989,-0.00016345,0.00015916,0.00170941,0.00042230,-0.00002275,0.000
 02300,-0.00001472,0.00001143,-0.00002378,0.00001610,-0.00002117,0.0000
 1101,-0.00001406,0.00001357,-0.00001067,0.00000638,-0.00003018,0.00000
 168,-0.00000203,0.00001371,0.00003547,-0.00000945,0.00000312,-0.000002
 10,0.00001343,-0.00000293,0.00001602,-0.00001211,0.00003049,-0.0000138
 5,0.00001882,-0.00000111,0.00000051,0.00000041,0.00000181,0.00000203,0
 .00000039,-0.00000675,0.00000074,-0.00000188,-0.00000786,0.00000845,-0
 .00000212,-0.00000967,0.00000462,-0.00001363,-0.00001914,-0.00000698,0
 .00000216,-0.00002037,-0.00004232,0.00001050,0.00003054,0.00002439,-0.
 00001404,-0.00000111,-0.00000319,0.00000150,0.00000123,-0.00000008,0.0
 0000073,-0.00000051,-0.00000193,-0.00000043,0.00000130,0.00000243,0.00
 000368,-0.00000106,-0.00000041,-0.00000207,-0.00000130,0.00000057,-0.0
 0000139,0.00000048,-0.00000232,0.00000056,0.00024457,0.00752329,-0.000
 39604,0.00150284,0.00028773,0.00025929,-0.00035078,-0.00052902,0.00011
 208,-0.00005308,0.00002267,-0.00002597,0.00032004,-0.00031461,-0.00002
 007,-0.00201927,-0.01644720,-0.05009328,-0.00352579,-0.03158484,-0.000
 59763,0.00058033,0.01802282,0.04907362,0.00016722,-0.00004849,0.000017
 75,-0.00018582,-0.00021124,0.00013284,0.00042221,0.00075084,-0.0007988
 9,-0.00029379,-0.00018491,0.00064185,0.00076613,-0.00051166,0.00054016
 ,0.00013493,0.00063412,-0.00226884,-0.00002515,0.00004728,-0.00001348,
 0.00003518,-0.00003246,0.00002268,-0.00004771,0.00001719,-0.00000831,0
 .00001900,-0.00001503,0.00000856,-0.00004285,-0.00000265,0.00001311,-0
 .00002359,0.00010683,-0.00009801,0.00002177,-0.00002242,-0.00000838,-0
 .00000658,0.00001592,-0.00000720,0.00009108,-0.00003005,0.00000112,-0.
 00000242,-0.00000051,-0.00000101,-0.00000372,0.00001935,-0.00001617,-0
 .00002984,-0.00000628,0.00000666,-0.00002541,0.00002323,0.00000582,-0.
 00002381,0.00000810,-0.00001214,0.00002261,-0.00004500,0.00003224,0.00
 000712,-0.00010217,0.00008418,-0.00000105,0.00007895,-0.00004864,-0.00
 001059,-0.00001329,0.00000561,0.00000541,-0.00000250,0.00000218,0.0000
 0678,-0.00000145,0.00000074,0.00000780,-0.00001016,0.00000269,-0.00000
 887,-0.00000035,-0.00001174,-0.00000525,0.00000955,0.00000860,0.000004
 22,-0.00000648,0.00000442,-0.02167062,0.01466443,-0.02037680,0.0012687
 1,-0.00037466,-0.00022436,-0.00511799,-0.00276474,0.00260960,0.0000199
 9,-0.00010002,0.00135327,0.00001185,0.00002662,0.00010809,-0.15878852,
 0.07322209,-0.10775865,0.00545984,-0.00467901,0.00475568,0.00207970,-0
 .00099700,0.00342673,0.17576203,-0.00000509,0.00000218,0.00000350,0.00
 001790,0.00001508,-0.00002001,-0.00000414,-0.00005367,-0.00001933,-0.0
 0001721,0.00008711,0.00000359,0.00006070,-0.00001826,-0.00026375,0.000
 29585,0.00006772,0.00012329,-0.00000077,-0.00000435,-0.00000258,-0.000
 00191,-0.00000422,0.00000161,0.00000462,0.00000123,-0.00000002,-0.0000
 0028,-0.00000039,-0.00000270,0.00000191,0.00000254,-0.00000108,0.00000
 098,-0.00000161,0.00001062,-0.00000511,-0.00000150,0.00000560,0.000000
 84,0.00000290,-0.00000238,-0.00001744,0.00000381,0.00000672,0.00000008
 ,0.00000084,0.00000036,0.00000010,-0.00000050,0.00000210,0.00000680,0.
 00000195,-0.00000261,0.00000534,-0.00000439,-0.00000297,0.00000396,-0.
 00000062,-0.00000140,0.00001169,0.00000135,-0.00000576,0.00001235,0.00
 000374,-0.00002489,-0.00001648,-0.00000922,0.00000974,-0.00000214,0.00
 000114,-0.00000349,0.00000338,0.00000023,-0.00000252,-0.00000100,-0.00
 000040,0.00000058,0.00000147,0.00000293,0.00001072,-0.00000137,-0.0000
 0338,-0.00000613,-0.00000046,-0.00000185,-0.00000007,0.00000007,0.0000
 0195,-0.00000164,-0.00681224,0.00461091,-0.00744822,0.00046812,0.00042
 347,-0.00066550,-0.00226768,0.00037907,0.00065663,0.00028703,0.0001266
 1,-0.00008123,0.00006955,-0.00008629,0.00014582,0.07362852,-0.09756075
 ,0.07056174,-0.00781173,0.00378196,-0.00615582,0.02154578,-0.01260132,
 0.02174832,-0.07946201,0.10083398,0.00012823,-0.00006196,0.00002919,-0
 .00029023,-0.00003811,0.00002766,0.00048563,-0.00017020,0.00004552,-0.
 00010718,0.00007324,-0.00002797,-0.00066470,0.00006230,0.00003939,0.00
 121124,-0.00055415,0.00099228,-0.00003185,0.00003911,-0.00001434,0.000
 02824,-0.00002369,0.00000980,-0.00004315,0.00001442,-0.00000643,0.0000
 1707,-0.00001590,0.00000727,-0.00004796,-0.00000092,0.00000395,0.00001
 538,0.00008937,-0.00004769,0.00001430,-0.00000722,0.00000108,-0.000005
 64,0.00001178,-0.00000618,0.00007995,-0.00002060,0.00000509,-0.0000025
 6,-0.00000033,-0.00000012,-0.00000011,0.00001280,-0.00000800,-0.000026
 13,-0.00000598,0.00000500,-0.00002180,0.00001840,0.00000368,-0.0000214
 1,0.00000646,-0.00001258,-0.00002183,-0.00003415,0.00002097,-0.0000392
 8,-0.00010869,0.00005875,0.00004821,0.00008034,-0.00004709,-0.00000332
 ,-0.00001442,0.00000569,0.00000235,-0.00000115,0.00000293,0.00000003,-
 0.00000380,-0.00000076,0.00000377,0.00000165,0.00000492,-0.00000315,0.
 00000592,-0.00000463,-0.00000178,0.00000362,-0.00000514,0.00000158,-0.
 00001011,0.00000601,0.00485821,-0.00458562,0.00523494,-0.00072167,-0.0
 0024561,0.00021353,0.00201353,0.00005284,0.00031845,-0.00015720,0.0003
 5064,0.00009872,-0.00009000,-0.00008185,-0.00004009,-0.10768908,0.0706
 7285,-0.15310639,-0.02011743,0.01432081,-0.01834398,0.00333165,-0.0012
 5525,0.00142690,0.11786806,-0.07857684,0.16310965\\0.00000011,0.000000
 29,0.00000047,0.00000037,0.00000010,0.00000002,0.00000044,-0.00000014,
 0.00000215,-0.00000095,0.00000076,-0.00000043,0.00000081,-0.00000174,-
 0.00000230,0.00000381,0.00000294,0.00000119,0.,0.00000030,0.00000072,0
 .00000048,0.00000092,0.00000176,-0.00000013,0.00000023,0.00000074,0.00
 000005,0.00000030,0.00000064,0.00000009,0.00000011,0.00000023,0.000000
 06,-0.00000035,-0.00000047,0.00000010,0.00000032,0.00000065,-0.0000003
 2,0.00000057,0.00000066,-0.00000005,0.00000007,0.00000108,0.00000009,0
 .00000025,0.00000047,0.00000008,-0.00000001,-0.00000001,0.,0.00000091,
 0.00000105,0.00000048,0.00000055,0.00000108,0.00000008,0.00000113,0.00
 000121,-0.00000010,-0.00000006,-0.00000009,-0.00000015,0.00000002,0.00
 000033,0.00000025,-0.00000072,-0.00000102,0.00000038,-0.00000066,-0.00
 000096,-0.00000027,-0.00000082,-0.00000092,-0.00000026,-0.00000046,-0.
 00000108,-0.00000036,-0.00000045,-0.00000073,-0.00000015,-0.00000048,-
 0.00000111,0.00000030,-0.00000094,-0.00000102,-0.00000007,-0.00000085,
 -0.00000138,-0.00000107,-0.00000017,-0.00000380,0.00000274,0.00000082,
 -0.00000130,-0.00000056,-0.00000163,-0.00000115,-0.00000208,-0.0000023
 6,0.00000032,-0.00000028,0.00000017,-0.00000004,-0.00000422,0.00000187
 ,0.00000575,-0.00000361,-0.00000004,0.00000083,0.00000380,-0.00000003,
 -0.00000243,0.00000007,-0.00000069,-0.00000112\\\@


 THE FIRST MORNING OF CREATION WROTE WHAT THE LAST DAWN OF
 RECKONING SHALL READ. -- OMAR KHAYYAM
 Job cpu time:       0 days  7 hours 39 minutes  4.4 seconds.
 Elapsed time:       0 days  7 hours 39 minutes  5.6 seconds.
 File lengths (MBytes):  RWF=   1240 Int=      0 D2E=      0 Chk=     27 Scr=      1
 Normal termination of Gaussian 16 at Tue Apr 13 19:57:24 2021.
