 Entering Gaussian System, Link 0=/apps/gaussian/g16c01/g16/g16
 Initial command:
 /apps/gaussian/g16c01/g16/l1.exe "/jobfs/21661246.gadi-pbs/Gau-547989.inp" -scrdir="/jobfs/21661246.gadi-pbs/"
 Entering Link 1 = /apps/gaussian/g16c01/g16/l1.exe PID=    547990.
  
 Copyright (c) 1988-2019, Gaussian, Inc.  All Rights Reserved.
  
 This is part of the Gaussian(R) 16 program.  It is based on
 the Gaussian(R) 09 system (copyright 2009, Gaussian, Inc.),
 the Gaussian(R) 03 system (copyright 2003, Gaussian, Inc.),
 the Gaussian(R) 98 system (copyright 1998, Gaussian, Inc.),
 the Gaussian(R) 94 system (copyright 1995, Gaussian, Inc.),
 the Gaussian 92(TM) system (copyright 1992, Gaussian, Inc.),
 the Gaussian 90(TM) system (copyright 1990, Gaussian, Inc.),
 the Gaussian 88(TM) system (copyright 1988, Gaussian, Inc.),
 the Gaussian 86(TM) system (copyright 1986, Carnegie Mellon
 University), and the Gaussian 82(TM) system (copyright 1983,
 Carnegie Mellon University). Gaussian is a federally registered
 trademark of Gaussian, Inc.
  
 This software contains proprietary and confidential information,
 including trade secrets, belonging to Gaussian, Inc.
  
 This software is provided under written license and may be
 used, copied, transmitted, or stored only in accord with that
 written license.
  
 The following legend is applicable only to US Government
 contracts under FAR:
  
                    RESTRICTED RIGHTS LEGEND
  
 Use, reproduction and disclosure by the US Government is
 subject to restrictions as set forth in subparagraphs (a)
 and (c) of the Commercial Computer Software - Restricted
 Rights clause in FAR 52.227-19.
  
 Gaussian, Inc.
 340 Quinnipiac St., Bldg. 40, Wallingford CT 06492
  
  
 ---------------------------------------------------------------
 Warning -- This program may not be used in any manner that
 competes with the business of Gaussian, Inc. or will provide
 assistance to any competitor of Gaussian, Inc.  The licensee
 of this program is prohibited from giving any competitor of
 Gaussian, Inc. access to this program.  By using this program,
 the user acknowledges that Gaussian, Inc. is engaged in the
 business of creating and licensing software in the field of
 computational chemistry and represents and warrants to the
 licensee that it is not a competitor of Gaussian, Inc. and that
 it will not use this program in any manner prohibited above.
 ---------------------------------------------------------------
  

 Cite this work as:
 Gaussian 16, Revision C.01,
 M. J. Frisch, G. W. Trucks, H. B. Schlegel, G. E. Scuseria, 
 M. A. Robb, J. R. Cheeseman, G. Scalmani, V. Barone, 
 G. A. Petersson, H. Nakatsuji, X. Li, M. Caricato, A. V. Marenich, 
 J. Bloino, B. G. Janesko, R. Gomperts, B. Mennucci, H. P. Hratchian, 
 J. V. Ortiz, A. F. Izmaylov, J. L. Sonnenberg, D. Williams-Young, 
 F. Ding, F. Lipparini, F. Egidi, J. Goings, B. Peng, A. Petrone, 
 T. Henderson, D. Ranasinghe, V. G. Zakrzewski, J. Gao, N. Rega, 
 G. Zheng, W. Liang, M. Hada, M. Ehara, K. Toyota, R. Fukuda, 
 J. Hasegawa, M. Ishida, T. Nakajima, Y. Honda, O. Kitao, H. Nakai, 
 T. Vreven, K. Throssell, J. A. Montgomery, Jr., J. E. Peralta, 
 F. Ogliaro, M. J. Bearpark, J. J. Heyd, E. N. Brothers, K. N. Kudin, 
 V. N. Staroverov, T. A. Keith, R. Kobayashi, J. Normand, 
 K. Raghavachari, A. P. Rendell, J. C. Burant, S. S. Iyengar, 
 J. Tomasi, M. Cossi, J. M. Millam, M. Klene, C. Adamo, R. Cammi, 
 J. W. Ochterski, R. L. Martin, K. Morokuma, O. Farkas, 
 J. B. Foresman, and D. J. Fox, Gaussian, Inc., Wallingford CT, 2019.
 
 ******************************************
 Gaussian 16:  ES64L-G16RevC.01  3-Jul-2019
                28-Apr-2021 
 ******************************************
 %NprocShared=32
 Will use up to   32 processors via shared memory.
 %Mem=1194000MB
 %chk=CP19CA_carboxy_c2.DSDPBEP86_AUG-cc-PVTZ.chk
 ----------------------------------------------------------------------
 # DSDPBEP86/AUG-cc-PVTZ SCF=Tight INT(grid=ultrafine) Pop=NBO MaxDisk=
 1400000MB
 ----------------------------------------------------------------------
 1/38=1,172=1/1;
 2/12=2,17=6,18=5,40=1/2;
 3/5=16,6=1,7=10,11=9,25=1,30=1,74=-77,75=-5/1,2,3;
 4//1;
 5/5=2,32=2,38=5/2;
 8/10=1/1;
 9/16=-3/6;
 6/7=2,8=2,9=2,10=2,40=1/1,7;
 99/5=1,9=1/99;
 ---------------------------------------
 CP19CA_carboxy_c2.DSDPBEP86_AUG-cc-PVTZ
 ---------------------------------------
 Symbolic Z-matrix:
 Charge = -1 Multiplicity = 1
 C                    -6.34514   1.20173   0.16585 
 N                    -5.1086    0.59269   0.33384 
 C                    -3.90687   1.18239   0.1154 
 O                    -3.68322   2.32293  -0.23935 
 O                    -2.91889   0.29426   0.36159 
 C                    -1.59688   0.76998   0.1594 
 C                    -0.65546  -0.37137   0.48843 
 C                     0.80172   0.03703   0.29347 
 C                    -7.46619   0.4666    0.59526 
 C                    -8.7299    0.99622   0.43766 
 C                    -8.93591   2.25728  -0.13546 
 C                    -7.81651   2.97456  -0.54441 
 C                    -6.53287   2.46926  -0.40376 
 H                    -5.09968  -0.44008   0.59684 
 H                    -1.41422   1.6379    0.80102 
 H                    -1.47852   1.09967  -0.87786 
 H                    -0.90636  -1.22616  -0.14488 
 H                    -0.83304  -0.68603   1.52011 
 H                     0.99477   0.33576  -0.74067 
 H                     1.47943  -0.78486   0.53243 
 H                     1.06613   0.88214   0.93527 
 H                    -7.32994  -0.50353   1.07695 
 Cl                   -10.08676   0.04503   0.98905 
 C                    -10.30261   2.83888  -0.31089 
 H                    -7.9514    3.95323  -0.98822 
 H                    -5.68219   3.04746  -0.72817 
 F                    -10.25647   4.05677  -0.88885 
 F                    -11.09984   2.08807  -1.09298 
 F                    -10.96021   3.00553   0.85124 
 O                    -6.82515  -2.21185   2.14594 
 O                    -5.02782  -2.02427   0.81997 
 C                    -5.80833  -2.65587   1.58749 
 C                    -5.46183  -4.13461   1.84932 
 C                    -4.16659  -4.60663   1.20205 
 H                    -6.31391  -4.7275    1.50083 
 H                    -5.43443  -4.26926   2.93515 
 H                    -4.20784  -4.47658   0.11953 
 H                    -3.96983  -5.66157   1.42053 
 H                    -3.32034  -4.01476   1.55596 
 
                          Input orientation:                          
 ---------------------------------------------------------------------
 Center     Atomic      Atomic             Coordinates (Angstroms)
 Number     Number       Type             X           Y           Z
 ---------------------------------------------------------------------
      1          6           0       -6.345139    1.201732    0.165854
      2          7           0       -5.108603    0.592692    0.333837
      3          6           0       -3.906874    1.182386    0.115396
      4          8           0       -3.683225    2.322926   -0.239347
      5          8           0       -2.918886    0.294256    0.361593
      6          6           0       -1.596878    0.769980    0.159401
      7          6           0       -0.655459   -0.371367    0.488428
      8          6           0        0.801719    0.037033    0.293473
      9          6           0       -7.466190    0.466602    0.595261
     10          6           0       -8.729897    0.996220    0.437657
     11          6           0       -8.935913    2.257279   -0.135459
     12          6           0       -7.816505    2.974563   -0.544411
     13          6           0       -6.532867    2.469265   -0.403765
     14          1           0       -5.099684   -0.440079    0.596841
     15          1           0       -1.414224    1.637898    0.801018
     16          1           0       -1.478515    1.099674   -0.877865
     17          1           0       -0.906364   -1.226158   -0.144876
     18          1           0       -0.833042   -0.686034    1.520108
     19          1           0        0.994766    0.335764   -0.740671
     20          1           0        1.479426   -0.784863    0.532431
     21          1           0        1.066131    0.882138    0.935274
     22          1           0       -7.329940   -0.503530    1.076948
     23         17           0      -10.086762    0.045032    0.989050
     24          6           0      -10.302606    2.838880   -0.310888
     25          1           0       -7.951402    3.953232   -0.988224
     26          1           0       -5.682187    3.047455   -0.728172
     27          9           0      -10.256472    4.056774   -0.888853
     28          9           0      -11.099838    2.088072   -1.092984
     29          9           0      -10.960206    3.005534    0.851240
     30          8           0       -6.825155   -2.211846    2.145937
     31          8           0       -5.027823   -2.024269    0.819972
     32          6           0       -5.808326   -2.655872    1.587488
     33          6           0       -5.461825   -4.134613    1.849321
     34          6           0       -4.166594   -4.606630    1.202049
     35          1           0       -6.313905   -4.727503    1.500831
     36          1           0       -5.434434   -4.269258    2.935150
     37          1           0       -4.207839   -4.476583    0.119527
     38          1           0       -3.969834   -5.661566    1.420532
     39          1           0       -3.320338   -4.014756    1.555961
 ---------------------------------------------------------------------
                    Distance matrix (angstroms):
                    1          2          3          4          5
     1  C    0.000000
     2  N    1.388585   0.000000
     3  C    2.438863   1.356321   0.000000
     4  O    2.916685   2.313861   1.215193   0.000000
     5  O    3.549794   2.210135   1.351114   2.249632   0.000000
     6  C    4.767854   3.520522   2.346934   2.631252   1.419471
     7  C    5.911950   4.558926   3.622845   4.117795   2.362677
     8  C    7.242264   5.936522   4.849165   5.062008   3.730108
     9  C    1.407680   2.375386   3.662150   4.295735   4.556564
    10  C    2.408979   3.645186   4.837360   5.261880   5.853749
    11  C    2.813730   4.199927   5.148743   5.254126   6.348632
    12  C    2.410876   3.711786   4.351144   4.195438   5.656108
    13  C    1.402265   2.468625   2.970088   2.858131   4.286875
    14  H    2.105338   1.065770   2.070502   3.215551   2.313108
    15  H    4.990752   3.867707   2.625048   2.588434   2.064577
    16  H    4.978332   3.860413   2.624945   2.600922   2.063885
    17  H    5.964182   4.603932   3.856409   4.507314   2.572628
    18  H    5.981712   4.617662   3.861691   4.502562   2.579510
    19  H    7.446200   6.202556   5.047346   5.107224   4.066126
    20  H    8.081136   6.733441   5.749454   6.075110   4.531979
    21  H    7.457953   6.210704   5.049072   5.100194   4.068792
    22  H    2.169757   2.586166   3.935006   4.797918   4.539338
    23  Cl   4.001918   5.050871   6.344120   6.906740   7.199602
    24  C    4.309186   5.695498   6.620504   6.639844   7.838792
    25  H    3.388618   4.595930   5.025312   4.629908   6.366814
    26  H    2.155338   2.735457   2.709580   2.181683   4.050126
    27  F    4.956027   6.324191   7.041875   6.829031   8.340283
    28  F    4.997743   6.337734   7.349774   7.469271   8.500679
    29  F    5.002230   6.350651   7.322214   7.389844   8.500212
    30  O    3.975381   3.754422   4.915309   6.010446   4.972260
    31  O    3.545457   2.662956   3.469235   4.672066   3.167536
    32  C    4.146121   3.551678   4.529326   5.713301   4.307544
    33  C    5.664882   4.976834   5.804727   7.016108   5.319282
    34  C    6.289422   5.354823   5.895844   7.094366   5.126581
    35  H    6.077743   5.578450   6.529932   7.723811   6.167826
    36  H    6.199203   5.523727   6.324941   7.523368   5.811785
    37  H    6.067410   5.153141   5.666969   6.829154   4.947818
    38  H    7.370288   6.449298   6.967569   8.160236   6.139842
    39  H    6.188179   5.091174   5.424900   6.597047   4.489461
                    6          7          8          9         10
     6  C    0.000000
     7  C    1.515652   0.000000
     8  C    2.511664   1.525832   0.000000
     9  C    5.893287   6.862920   8.284560   0.000000
    10  C    7.142028   8.189592   9.580842   1.379235   0.000000
    11  C    7.494026   8.710048   9.996747   2.429107   1.400419
    12  C    6.636211   7.971360   9.143573   2.776948   2.390101
    13  C    5.250592   6.588560   7.758740   2.424831   2.775750
    14  H    3.731655   4.446079   5.928425   2.534250   3.907267
    15  H    1.094677   2.170388   2.780427   6.167704   7.352745
    16  H    1.094819   2.169824   2.775015   6.198639   7.370470
    17  H    2.134001   1.093021   2.169181   6.815024   8.153893
    18  H    2.134232   1.093122   2.167926   6.795776   8.146287
    19  H    2.777642   2.175766   1.093601   8.566774   9.818031
    20  H    3.467036   2.175005   1.091742   9.032949  10.363952
    21  H    2.776000   2.175963   1.093629   8.549198   9.809321
    22  H    5.944049   6.701681   8.187180   1.091670   2.148912
    23  Cl   8.561075   9.453756  10.910679   2.683317   1.746390
    24  C    8.960537  10.198629  11.468288   3.807107   2.535574
    25  H    7.199313   8.608916   9.674528   3.859980   3.373887
    26  H    4.760717   6.199714   7.221318   3.405136   3.854252
    27  F    9.321503  10.662307  11.825388   4.783054   3.668386
    28  F    9.675334  10.845956  12.156319   4.322353   3.025165
    29  F    9.651334  10.850019  12.143557   4.326644   3.030293
    30  O    6.338177   6.648297   8.164452   3.160633   4.103406
    31  O    4.473876   4.686105   6.205621   3.492930   4.793210
    32  C    5.613571   5.742729   7.253889   3.671903   4.816166
    33  C    6.469055   6.254216   7.684743   5.173135   6.244881
    34  C    6.049669   5.547503   6.860995   6.082204   7.266357
    35  H    7.366960   7.212413   8.648157   5.396901   6.303043
    36  H    6.915601   6.634653   8.025721   5.659636   6.694983
    37  H    5.860472   5.441351   6.745269   5.939550   7.106461
    38  H    6.970376   6.311902   7.517446   7.103521   8.243200
    39  H    5.273935   4.638480   5.916267   6.180097   7.458137
                   11         12         13         14         15
    11  C    0.000000
    12  C    1.390975   0.000000
    13  C    2.427252   1.386662   0.000000
    14  H    4.746436   4.510360   3.394040   0.000000
    15  H    7.605027   6.677279   5.323832   4.235835   0.000000
    16  H    7.583139   6.617893   5.258044   4.202197   1.764218
    17  H    8.752604   8.096649   6.736521   4.330358   3.058669
    18  H    8.778412   8.150519   6.793026   4.372317   2.501104
    19  H   10.132960   9.200015   7.831385   6.287543   3.142545
    20  H   10.871062  10.084999   8.698428   6.588453   3.783533
    21  H   10.152751   9.244940   7.877612   6.315067   2.596412
    22  H    3.416306   3.868162   3.415457   2.282229   6.297424
    23  Cl   2.735509   4.010950   4.521837   5.025943   8.819609
    24  C    1.495622   2.500728   3.788954   6.216586   9.037811
    25  H    2.138394   1.083033   2.134477   5.472285   7.162183
    26  H    3.400356   2.143454   1.078518   3.775959   4.747713
    27  F    2.355772   2.691331   4.076853   7.001531   9.321587
    28  F    2.372353   3.444862   4.634388   6.726731   9.879324
    29  F    2.373020   3.439717   4.632920   6.803138   9.643585
    30  O    5.443633   5.926177   5.338465   2.918237   6.775508
    31  O    5.875173   5.884437   4.894337   1.601439   5.144894
    32  C    6.073664   6.346618   5.545906   2.528496   6.193798
    33  C    7.540883   7.862242   7.059372   3.917836   7.127686
    34  C    8.464548   8.593396   7.631918   4.312434   6.835972
    35  H    7.638033   8.109416   7.447744   4.546816   8.063185
    36  H    8.017772   8.381798   7.600171   4.499151   7.457286
    37  H    8.231926   8.305592   7.343323   4.161320   6.756893
    38  H    9.475819   9.656117   8.718234   5.405456   7.758680
    39  H    8.586850   8.571910   7.496892   4.106616   6.012962
                   16         17         18         19         20
    16  H    0.000000
    17  H    2.504820   0.000000
    18  H    3.058703   1.751936   0.000000
    19  H    2.592200   2.531574   3.081570   0.000000
    20  H    3.780189   2.519024   2.516502   1.763942   0.000000
    21  H    3.132094   3.082592   2.531413   1.764202   1.764083
    22  H    6.374224   6.578554   6.514552   8.562061   8.830661
    23  Cl   8.871277   9.337099   9.297732  11.219480  11.604910
    24  C    9.011707  10.239211  10.268895  11.579331  12.355524
    25  H    7.074831   8.784638   8.859208   9.653045  10.663135
    26  H    4.635419   6.435253   6.519809   7.206603   8.219762
    27  F    9.262671  10.765100  10.821200  11.851507  12.774694
    28  F    9.674351  10.760574  10.951302  12.225963  13.005138
    29  F    9.824691  10.953502  10.799746  12.352458  13.008197
    30  O    6.978259   6.422732   6.214916   8.716306   8.579379
    31  O    5.023869   4.307475   4.458392   6.654093   6.630468
    32  C    6.239339   5.392068   5.351472   7.787957   7.597707
    33  C    7.120538   5.760917   5.781584   8.269214   7.818951
    34  C    6.641816   4.885786   5.156046   7.405476   6.850681
    35  H    7.936950   6.649005   6.809824   9.169388   8.787390
    36  H    7.682045   6.265017   6.001221   8.720809   8.106512
    37  H    6.287976   4.640573   5.264898   7.139029   6.792957
    38  H    7.563310   5.613216   5.882626   8.079976   7.366504
    39  H    5.955939   4.061576   4.155516   6.543827   5.875164
                   21         22         23         24         25
    21  H    0.000000
    22  H    8.510826   0.000000
    23  Cl  11.184393   2.812244   0.000000
    24  C   11.603014   4.683432   3.089016   0.000000
    25  H    9.718403   4.951149   4.872720   2.688628   0.000000
    26  H    7.279796   4.310806   5.600329   4.643910   2.457111
    27  F   11.899877   5.764143   4.432764   1.348865   2.309533
    28  F   12.392696   5.063313   3.087912   1.345722   3.660935
    29  F   12.212643   5.054039   3.089736   1.345642   3.651666
    30  O    8.562174   2.077471   4.131582   6.605943   7.007109
    31  O    6.752538   2.770997   5.468405   7.263084   6.895462
    32  C    7.758934   2.684871   5.094902   7.348107   7.409947
    33  C    8.283567   4.155861   6.292817   8.759525   8.925407
    34  C    7.588093   5.182455   7.532046   9.766025   9.612144
    35  H    9.287242   4.365083   6.105199   8.743124   9.177796
    36  H    8.531924   4.607229   6.636607   9.206600   9.451843
    37  H    7.562810   5.142890   7.467450   9.531393   9.289949
    38  H    8.271425   6.165525   8.376649  10.740549  10.681728
    39  H    6.603479   5.351174   7.911243   9.960397   9.560777
                   26         27         28         29         30
    26  H    0.000000
    27  F    4.687070   0.000000
    28  F    5.514024   2.151448   0.000000
    29  F    5.509427   2.151342   2.154354   0.000000
    30  O    6.101404   7.763986   6.874068   6.782031   0.000000
    31  O    5.342969   8.199874   7.578925   7.777728   2.241377
    32  C    6.156796   8.424837   7.595395   7.689957   1.242161
    33  C    7.633750   9.878516   8.897537   9.066976   2.375644
    34  C    8.037898  10.794122   9.907375  10.208882   3.700522
    35  H    8.112798   9.920582   8.722677   9.044885   2.646898
    36  H    8.186306  10.353640   9.420101   9.370135   2.605745
    37  H    7.713848  10.508139   9.595027  10.105046   4.010700
    38  H    9.132148  11.802593  10.826431  11.149350   4.536479
    39  H    7.789122  10.919554  10.236310  10.399456   3.985260
                   31         32         33         34         35
    31  O    0.000000
    32  C    1.263799   0.000000
    33  C    2.387776   1.541200   0.000000
    34  C    2.748871   2.578625   1.522953   0.000000
    35  H    3.070025   2.134192   1.094990   2.171365   0.000000
    36  H    3.111156   2.135182   1.094488   2.173678   1.743768
    37  H    2.678964   2.833983   2.163704   1.091086   2.531102
    38  H    3.835355   3.527340   2.177495   1.095143   2.524597
    39  H    2.723826   2.835074   2.164808   1.091659   3.077741
                   36         37         38         39
    36  H    0.000000
    37  H    3.078190   0.000000
    38  H    2.525400   1.775794   0.000000
    39  H    2.536994   1.750511   1.775435   0.000000
 Stoichiometry    C14H16ClF3NO4(1-)
 Framework group  C1[X(C14H16ClF3NO4)]
 Deg. of freedom   111
 Full point group                 C1      NOp   1
 Largest Abelian subgroup         C1      NOp   1
 Largest concise Abelian subgroup C1      NOp   1
                         Standard orientation:                         
 ---------------------------------------------------------------------
 Center     Atomic      Atomic             Coordinates (Angstroms)
 Number     Number       Type             X           Y           Z
 ---------------------------------------------------------------------
      1          6           0       -0.329813   -0.739586   -0.004316
      2          7           0        1.054515   -0.633986   -0.029850
      3          6           0        1.920905   -1.676923   -0.065319
      4          8           0        1.665820   -2.864560   -0.099123
      5          8           0        3.188312   -1.208747   -0.065302
      6          6           0        4.210114   -2.193833   -0.085917
      7          6           0        5.537324   -1.461916   -0.082399
      8          6           0        6.709842   -2.438239   -0.095025
      9          6           0       -1.049712    0.463873   -0.126773
     10          6           0       -2.428117    0.441020   -0.084762
     11          6           0       -3.142510   -0.753406    0.070684
     12          6           0       -2.415712   -1.934400    0.179454
     13          6           0       -1.029525   -1.945605    0.144911
     14          1           0        1.475709    0.342084    0.045978
     15          1           0        4.100721   -2.821243   -0.976258
     16          1           0        4.110794   -2.846105    0.787756
     17          1           0        5.579495   -0.817088    0.799141
     18          1           0        5.575909   -0.801642   -0.952724
     19          1           0        6.691359   -3.091364    0.781929
     20          1           0        7.665540   -1.910469   -0.094398
     21          1           0        6.684477   -3.077220   -0.982203
     22          1           0       -0.517350    1.403885   -0.283970
     23         17           0       -3.273599    1.960822   -0.243624
     24          6           0       -4.636996   -0.787332    0.118059
     25          1           0       -2.947022   -2.870678    0.297999
     26          1           0       -0.490856   -2.876083    0.230056
     27          9           0       -5.102986   -2.042770    0.279821
     28          9           0       -5.149799   -0.068539    1.133607
     29          9           0       -5.212998   -0.320736   -1.005001
     30          8           0        0.681958    3.025298   -0.782534
     31          8           0        2.160928    1.761296    0.330442
     32          6           0        1.742808    2.847885   -0.161175
     33          6           0        2.644274    4.081584    0.040422
     34          6           0        3.965222    3.793956    0.741673
     35          1           0        2.055835    4.817852    0.597785
     36          1           0        2.807838    4.523057   -0.947633
     37          1           0        3.790898    3.362836    1.728696
     38          1           0        4.564388    4.703266    0.857832
     39          1           0        4.549114    3.062485    0.179766
 ---------------------------------------------------------------------
 Rotational constants (GHZ):           0.3218808           0.1098400           0.0839981
 Standard basis: Aug-CC-pVTZ (5D, 7F)
 There are  1669 symmetry adapted cartesian basis functions of A   symmetry.
 There are  1430 symmetry adapted basis functions of A   symmetry.
  1430 basis functions,  2130 primitive gaussians,  1669 cartesian basis functions
    92 alpha electrons       92 beta electrons
       nuclear repulsion energy      2114.2738222731 Hartrees.
 NAtoms=   39 NActive=   39 NUniq=   39 SFac= 1.00D+00 NAtFMM=   60 NAOKFM=F Big=F
 Integral buffers will be    131072 words long.
 Regular integral format.
 Two-electron integral symmetry is turned on.
 Nuclear repulsion after empirical dispersion term =     2114.2454719024 Hartrees.
 One-electron integrals computed using PRISM.
 NBasis=  1430 RedAO= T EigKep=  1.00D-06  NBF=  1430
 NBsUse=  1426 1.00D-06 EigRej=  7.62D-07 NBFU=  1426
 ExpMin= 2.53D-02 ExpMax= 4.56D+05 ExpMxC= 1.44D+03 IAcc=3 IRadAn=         5 AccDes= 0.00D+00
 Harris functional with IExCor= 1004 and IRadAn=       5 diagonalized for initial guess.
 HarFok:  IExCor= 1004 AccDes= 0.00D+00 IRadAn=         5 IDoV= 1 UseB2=F ITyADJ=14
 ICtDFT=  3500011 ScaDFX=  1.000000  1.000000  1.000000  1.000000
 FoFCou: FMM=F IPFlag=           0 FMFlag=      100000 FMFlg1=           0
         NFxFlg=           0 DoJE=T BraDBF=F KetDBF=T FulRan=T
         wScrn=  0.000000 ICntrl=       500 IOpCl=  0 I1Cent=   200000004 NGrid=           0
         NMat0=    1 NMatS0=      1 NMatT0=    0 NMatD0=    1 NMtDS0=    0 NMtDT0=    0
 Petite list used in FoFCou.
 Requested convergence on RMS density matrix=1.00D-08 within 128 cycles.
 Requested convergence on MAX density matrix=1.00D-06.
 Requested convergence on             energy=1.00D-06.
 No special actions if energy rises.
 SCF Done:  E(RDSDPBEP86) =  -1654.65407959     A.U. after   14 cycles
            NFock= 14  Conv=0.37D-08     -V/T= 2.0026
 DoSCS=T DFT=T ScalE2(SS,OS)=  0.220000  0.520000
 ExpMin= 2.53D-02 ExpMax= 4.56D+05 ExpMxC= 1.44D+03 IAcc=3 IRadAn=         5 AccDes= 0.00D+00
 HarFok:  IExCor=  205 AccDes= 0.00D+00 IRadAn=         5 IDoV=-2 UseB2=F ITyADJ=14
 ICtDFT= 12500011 ScaDFX=  1.000000  1.000000  1.000000  1.000000
 GSVD:  LWork=        -945 too small for GESVD, short by        4050 words or        4050 for optimal perf.
 Range of M.O.s used for correlation:    28  1426
 NBasis=  1430 NAE=    92 NBE=    92 NFC=    27 NFV=     0
 NROrb=   1399 NOA=    65 NOB=    65 NVA=  1334 NVB=  1334

 **** Warning!!: The largest alpha MO coefficient is  0.10486224D+03

 DoSCS=T DFT=T ScalE2(SS,OS)=  0.220000  0.520000
 Fully direct method using O(OVN) memory.
 JobTyp=1 Pass  1:  I=   1 to  59 NPSUse= 32 ParTrn=T ParDer=T DoDerP=F.
 JobTyp=1 Pass  2:  I=  60 to  65 NPSUse= 32 ParTrn=T ParDer=T DoDerP=F.
 Spin components of T(2) and E(2):
     alpha-alpha T2 =       0.2267344862D+00 E2=     -0.1434255293D+00
     alpha-beta  T2 =       0.1180775371D+01 E2=     -0.1932021694D+01
     beta-beta   T2 =       0.2267344862D+00 E2=     -0.1434255293D+00
 E2(DSDPBEP86) =    -0.2218872752D+01 E(DSDPBEP86) =    -0.16568729523451D+04

 **********************************************************************

            Population analysis using the SCF Density.

 **********************************************************************

 Orbital symmetries:
       Occupied  (A) (A) (A) (A) (A) (A) (A) (A) (A) (A) (A) (A)
                 (A) (A) (A) (A) (A) (A) (A) (A) (A) (A) (A) (A)
                 (A) (A) (A) (A) (A) (A) (A) (A) (A) (A) (A) (A)
                 (A) (A) (A) (A) (A) (A) (A) (A) (A) (A) (A) (A)
                 (A) (A) (A) (A) (A) (A) (A) (A) (A) (A) (A) (A)
                 (A) (A) (A) (A) (A) (A) (A) (A) (A) (A) (A) (A)
                 (A) (A) (A) (A) (A) (A) (A) (A) (A) (A) (A) (A)
                 (A) (A) (A) (A) (A) (A) (A) (A)
       Virtual   (A) (A) (A) (A) (A) (A) (A) (A) (A) (A) (A) (A)
                 (A) (A) (A) (A) (A) (A) (A) (A) (A) (A) (A) (A)
                 (A) (A) (A) (A) (A) (A) (A) (A) (A) (A) (A) (A)
                 (A) (A) (A) (A) (A) (A) (A) (A) (A) (A) (A) (A)
                 (A) (A) (A) (A) (A) (A) (A) (A) (A) (A) (A) (A)
                 (A) (A) (A) (A) (A) (A) (A) (A) (A) (A) (A) (A)
                 (A) (A) (A) (A) (A) (A) (A) (A) (A) (A) (A) (A)
                 (A) (A) (A) (A) (A) (A) (A) (A) (A) (A) (A) (A)
                 (A) (A) (A) (A) (A) (A) (A) (A) (A) (A) (A) (A)
                 (A) (A) (A) (A) (A) (A) (A) (A) (A) (A) (A) (A)
                 (A) (A) (A) (A) (A) (A) (A) (A) (A) (A) (A) (A)
                 (A) (A) (A) (A) (A) (A) (A) (A) (A) (A) (A) (A)
                 (A) (A) (A) (A) (A) (A) (A) (A) (A) (A) (A) (A)
                 (A) (A) (A) (A) (A) (A) (A) (A) (A) (A) (A) (A)
                 (A) (A) (A) (A) (A) (A) (A) (A) (A) (A) (A) (A)
                 (A) (A) (A) (A) (A) (A) (A) (A) (A) (A) (A) (A)
                 (A) (A) (A) (A) (A) (A) (A) (A) (A) (A) (A) (A)
                 (A) (A) (A) (A) (A) (A) (A) (A) (A) (A) (A) (A)
                 (A) (A) (A) (A) (A) (A) (A) (A) (A) (A) (A) (A)
                 (A) (A) (A) (A) (A) (A) (A) (A) (A) (A) (A) (A)
                 (A) (A) (A) (A) (A) (A) (A) (A) (A) (A) (A) (A)
                 (A) (A) (A) (A) (A) (A) (A) (A) (A) (A) (A) (A)
                 (A) (A) (A) (A) (A) (A) (A) (A) (A) (A) (A) (A)
                 (A) (A) (A) (A) (A) (A) (A) (A) (A) (A) (A) (A)
                 (A) (A) (A) (A) (A) (A) (A) (A) (A) (A) (A) (A)
                 (A) (A) (A) (A) (A) (A) (A) (A) (A) (A) (A) (A)
                 (A) (A) (A) (A) (A) (A) (A) (A) (A) (A) (A) (A)
                 (A) (A) (A) (A) (A) (A) (A) (A) (A) (A) (A) (A)
                 (A) (A) (A) (A) (A) (A) (A) (A) (A) (A) (A) (A)
                 (A) (A) (A) (A) (A) (A) (A) (A) (A) (A) (A) (A)
                 (A) (A) (A) (A) (A) (A) (A) (A) (A) (A) (A) (A)
                 (A) (A) (A) (A) (A) (A) (A) (A) (A) (A) (A) (A)
                 (A) (A) (A) (A) (A) (A) (A) (A) (A) (A) (A) (A)
                 (A) (A) (A) (A) (A) (A) (A) (A) (A) (A) (A) (A)
                 (A) (A) (A) (A) (A) (A) (A) (A) (A) (A) (A) (A)
                 (A) (A) (A) (A) (A) (A) (A) (A) (A) (A) (A) (A)
                 (A) (A) (A) (A) (A) (A) (A) (A) (A) (A) (A) (A)
                 (A) (A) (A) (A) (A) (A) (A) (A) (A) (A) (A) (A)
                 (A) (A) (A) (A) (A) (A) (A) (A) (A) (A) (A) (A)
                 (A) (A) (A) (A) (A) (A) (A) (A) (A) (A) (A) (A)
                 (A) (A) (A) (A) (A) (A) (A) (A) (A) (A) (A) (A)
                 (A) (A) (A) (A) (A) (A) (A) (A) (A) (A) (A) (A)
                 (A) (A) (A) (A) (A) (A) (A) (A) (A) (A) (A) (A)
                 (A) (A) (A) (A) (A) (A) (A) (A) (A) (A) (A) (A)
                 (A) (A) (A) (A) (A) (A) (A) (A) (A) (A) (A) (A)
                 (A) (A) (A) (A) (A) (A) (A) (A) (A) (A) (A) (A)
                 (A) (A) (A) (A) (A) (A) (A) (A) (A) (A) (A) (A)
                 (A) (A) (A) (A) (A) (A) (A) (A) (A) (A) (A) (A)
                 (A) (A) (A) (A) (A) (A) (A) (A) (A) (A) (A) (A)
                 (A) (A) (A) (A) (A) (A) (A) (A) (A) (A) (A) (A)
                 (A) (A) (A) (A) (A) (A) (A) (A) (A) (A) (A) (A)
                 (A) (A) (A) (A) (A) (A) (A) (A) (A) (A) (A) (A)
                 (A) (A) (A) (A) (A) (A) (A) (A) (A) (A) (A) (A)
                 (A) (A) (A) (A) (A) (A) (A) (A) (A) (A) (A) (A)
                 (A) (A) (A) (A) (A) (A) (A) (A) (A) (A) (A) (A)
                 (A) (A) (A) (A) (A) (A) (A) (A) (A) (A) (A) (A)
                 (A) (A) (A) (A) (A) (A) (A) (A) (A) (A) (A) (A)
                 (A) (A) (A) (A) (A) (A) (A) (A) (A) (A) (A) (A)
                 (A) (A) (A) (A) (A) (A) (A) (A) (A) (A) (A) (A)
                 (A) (A) (A) (A) (A) (A) (A) (A) (A) (A) (A) (A)
                 (A) (A) (A) (A) (A) (A) (A) (A) (A) (A) (A) (A)
                 (A) (A) (A) (A) (A) (A) (A) (A) (A) (A) (A) (A)
                 (A) (A) (A) (A) (A) (A) (A) (A) (A) (A) (A) (A)
                 (A) (A) (A) (A) (A) (A) (A) (A) (A) (A) (A) (A)
                 (A) (A) (A) (A) (A) (A) (A) (A) (A) (A) (A) (A)
                 (A) (A) (A) (A) (A) (A) (A) (A) (A) (A) (A) (A)
                 (A) (A) (A) (A) (A) (A) (A) (A) (A) (A) (A) (A)
                 (A) (A) (A) (A) (A) (A) (A) (A) (A) (A) (A) (A)
                 (A) (A) (A) (A) (A) (A) (A) (A) (A) (A) (A) (A)
                 (A) (A) (A) (A) (A) (A) (A) (A) (A) (A) (A) (A)
                 (A) (A) (A) (A) (A) (A) (A) (A) (A) (A) (A) (A)
                 (A) (A) (A) (A) (A) (A) (A) (A) (A) (A) (A) (A)
                 (A) (A) (A) (A) (A) (A) (A) (A) (A) (A) (A) (A)
                 (A) (A) (A) (A) (A) (A) (A) (A) (A) (A) (A) (A)
                 (A) (A) (A) (A) (A) (A) (A) (A) (A) (A) (A) (A)
                 (A) (A) (A) (A) (A) (A) (A) (A) (A) (A) (A) (A)
                 (A) (A) (A) (A) (A) (A) (A) (A) (A) (A) (A) (A)
                 (A) (A) (A) (A) (A) (A) (A) (A) (A) (A) (A) (A)
                 (A) (A) (A) (A) (A) (A) (A) (A) (A) (A) (A) (A)
                 (A) (A) (A) (A) (A) (A) (A) (A) (A) (A) (A) (A)
                 (A) (A) (A) (A) (A) (A) (A) (A) (A) (A) (A) (A)
                 (A) (A) (A) (A) (A) (A) (A) (A) (A) (A) (A) (A)
                 (A) (A) (A) (A) (A) (A) (A) (A) (A) (A) (A) (A)
                 (A) (A) (A) (A) (A) (A) (A) (A) (A) (A) (A) (A)
                 (A) (A) (A) (A) (A) (A) (A) (A) (A) (A) (A) (A)
                 (A) (A) (A) (A) (A) (A) (A) (A) (A) (A) (A) (A)
                 (A) (A) (A) (A) (A) (A) (A) (A) (A) (A) (A) (A)
                 (A) (A) (A) (A) (A) (A) (A) (A) (A) (A) (A) (A)
                 (A) (A) (A) (A) (A) (A) (A) (A) (A) (A) (A) (A)
                 (A) (A) (A) (A) (A) (A) (A) (A) (A) (A) (A) (A)
                 (A) (A) (A) (A) (A) (A) (A) (A) (A) (A) (A) (A)
                 (A) (A) (A) (A) (A) (A) (A) (A) (A) (A) (A) (A)
                 (A) (A) (A) (A) (A) (A) (A) (A) (A) (A) (A) (A)
                 (A) (A) (A) (A) (A) (A) (A) (A) (A) (A) (A) (A)
                 (A) (A) (A) (A) (A) (A) (A) (A) (A) (A) (A) (A)
                 (A) (A) (A) (A) (A) (A) (A) (A) (A) (A) (A) (A)
                 (A) (A) (A) (A) (A) (A) (A) (A) (A) (A) (A) (A)
                 (A) (A) (A) (A) (A) (A) (A) (A) (A) (A) (A) (A)
                 (A) (A) (A) (A) (A) (A) (A) (A) (A) (A) (A) (A)
                 (A) (A) (A) (A) (A) (A) (A) (A) (A) (A) (A) (A)
                 (A) (A) (A) (A) (A) (A) (A) (A) (A) (A) (A) (A)
                 (A) (A) (A) (A) (A) (A) (A) (A) (A) (A) (A) (A)
                 (A) (A) (A) (A) (A) (A) (A) (A) (A) (A) (A) (A)
                 (A) (A) (A) (A) (A) (A) (A) (A) (A) (A) (A) (A)
                 (A) (A) (A) (A) (A) (A) (A) (A) (A) (A) (A) (A)
                 (A) (A) (A) (A) (A) (A) (A) (A) (A) (A) (A) (A)
                 (A) (A) (A) (A) (A) (A) (A) (A) (A) (A) (A) (A)
                 (A) (A) (A) (A) (A) (A) (A) (A) (A) (A) (A) (A)
                 (A) (A) (A) (A) (A) (A) (A) (A) (A) (A) (A) (A)
                 (A) (A) (A) (A) (A) (A) (A) (A) (A) (A) (A) (A)
                 (A) (A) (A) (A) (A) (A) (A) (A) (A) (A) (A) (A)
                 (A) (A)
 The electronic state is 1-A.
 Alpha  occ. eigenvalues -- -103.46727 -25.61788 -25.61118 -25.61108 -19.94093
 Alpha  occ. eigenvalues --  -19.87436 -19.80546 -19.79622 -14.98891 -10.99086
 Alpha  occ. eigenvalues --  -10.87326 -10.79582 -10.78000 -10.77890 -10.77030
 Alpha  occ. eigenvalues --  -10.74723 -10.74285 -10.73717 -10.73241 -10.71897
 Alpha  occ. eigenvalues --  -10.71497 -10.68524 -10.68327 -10.04237  -7.61917
 Alpha  occ. eigenvalues --   -7.61451  -7.61426  -1.47857  -1.38539  -1.38133
 Alpha  occ. eigenvalues --   -1.23162  -1.12675  -1.10741  -1.03264  -1.00739
 Alpha  occ. eigenvalues --   -0.97991  -0.91303  -0.88561  -0.85491  -0.80938
 Alpha  occ. eigenvalues --   -0.80731  -0.78037  -0.75425  -0.69121  -0.67102
 Alpha  occ. eigenvalues --   -0.65855  -0.65179  -0.63993  -0.63567  -0.61925
 Alpha  occ. eigenvalues --   -0.59334  -0.56868  -0.53594  -0.52794  -0.52628
 Alpha  occ. eigenvalues --   -0.52439  -0.49850  -0.49432  -0.48471  -0.48019
 Alpha  occ. eigenvalues --   -0.47238  -0.46942  -0.46495  -0.46236  -0.44983
 Alpha  occ. eigenvalues --   -0.43778  -0.43466  -0.43007  -0.42820  -0.41831
 Alpha  occ. eigenvalues --   -0.39952  -0.39257  -0.38808  -0.38504  -0.38074
 Alpha  occ. eigenvalues --   -0.35833  -0.35592  -0.35372  -0.34968  -0.34573
 Alpha  occ. eigenvalues --   -0.33172  -0.32744  -0.30346  -0.30218  -0.30086
 Alpha  occ. eigenvalues --   -0.29211  -0.28541  -0.21132  -0.20970  -0.20575
 Alpha  occ. eigenvalues --   -0.19572  -0.18195
 Alpha virt. eigenvalues --    0.07419   0.09022   0.09398   0.09478   0.09776
 Alpha virt. eigenvalues --    0.10816   0.11385   0.11671   0.11817   0.12271
 Alpha virt. eigenvalues --    0.12476   0.12970   0.13221   0.13888   0.13913
 Alpha virt. eigenvalues --    0.14144   0.14426   0.14541   0.15012   0.15418
 Alpha virt. eigenvalues --    0.15896   0.16118   0.16782   0.17442   0.17633
 Alpha virt. eigenvalues --    0.17715   0.18001   0.18229   0.18446   0.18498
 Alpha virt. eigenvalues --    0.18748   0.18965   0.19288   0.19412   0.19913
 Alpha virt. eigenvalues --    0.20285   0.20559   0.20952   0.21091   0.21349
 Alpha virt. eigenvalues --    0.21511   0.21761   0.22072   0.22509   0.22652
 Alpha virt. eigenvalues --    0.22697   0.23338   0.23759   0.23971   0.24141
 Alpha virt. eigenvalues --    0.24416   0.24790   0.25008   0.25165   0.25565
 Alpha virt. eigenvalues --    0.26035   0.26183   0.26333   0.26589   0.26616
 Alpha virt. eigenvalues --    0.26950   0.27070   0.27782   0.28123   0.28530
 Alpha virt. eigenvalues --    0.28800   0.28956   0.29052   0.29285   0.29535
 Alpha virt. eigenvalues --    0.29889   0.30202   0.30662   0.30918   0.31436
 Alpha virt. eigenvalues --    0.31712   0.32005   0.32258   0.32506   0.32987
 Alpha virt. eigenvalues --    0.33040   0.33231   0.33505   0.33750   0.33966
 Alpha virt. eigenvalues --    0.34002   0.34364   0.34605   0.34939   0.35186
 Alpha virt. eigenvalues --    0.35400   0.35574   0.35881   0.36103   0.36269
 Alpha virt. eigenvalues --    0.36771   0.37130   0.37290   0.37548   0.37720
 Alpha virt. eigenvalues --    0.38001   0.38081   0.38149   0.38451   0.38953
 Alpha virt. eigenvalues --    0.39048   0.39329   0.39457   0.39680   0.39816
 Alpha virt. eigenvalues --    0.40087   0.40526   0.40754   0.40982   0.41139
 Alpha virt. eigenvalues --    0.41218   0.41676   0.41880   0.42091   0.42523
 Alpha virt. eigenvalues --    0.42720   0.42832   0.42901   0.43446   0.43554
 Alpha virt. eigenvalues --    0.43795   0.44065   0.44125   0.44264   0.44738
 Alpha virt. eigenvalues --    0.44840   0.45297   0.45367   0.45658   0.45804
 Alpha virt. eigenvalues --    0.45963   0.46076   0.46550   0.46806   0.47017
 Alpha virt. eigenvalues --    0.47255   0.47611   0.47759   0.48059   0.48199
 Alpha virt. eigenvalues --    0.48277   0.48697   0.48853   0.49208   0.49487
 Alpha virt. eigenvalues --    0.49786   0.49988   0.50263   0.50432   0.50801
 Alpha virt. eigenvalues --    0.51058   0.51542   0.51765   0.51905   0.51996
 Alpha virt. eigenvalues --    0.52588   0.52869   0.53114   0.53139   0.53386
 Alpha virt. eigenvalues --    0.53599   0.53815   0.53889   0.54150   0.54356
 Alpha virt. eigenvalues --    0.54570   0.54707   0.54882   0.54990   0.55250
 Alpha virt. eigenvalues --    0.55628   0.55800   0.56133   0.56421   0.56528
 Alpha virt. eigenvalues --    0.56650   0.56896   0.57181   0.57244   0.57729
 Alpha virt. eigenvalues --    0.57925   0.58143   0.58455   0.58614   0.58796
 Alpha virt. eigenvalues --    0.58964   0.59372   0.59627   0.59909   0.60250
 Alpha virt. eigenvalues --    0.60404   0.60464   0.60760   0.60913   0.61398
 Alpha virt. eigenvalues --    0.61846   0.62051   0.62372   0.62548   0.62684
 Alpha virt. eigenvalues --    0.63129   0.63504   0.63676   0.64674   0.64772
 Alpha virt. eigenvalues --    0.64959   0.65120   0.65413   0.65755   0.65975
 Alpha virt. eigenvalues --    0.66157   0.66395   0.66609   0.67321   0.67398
 Alpha virt. eigenvalues --    0.67907   0.68173   0.68477   0.68687   0.68996
 Alpha virt. eigenvalues --    0.69315   0.69772   0.69924   0.70135   0.70601
 Alpha virt. eigenvalues --    0.70823   0.71457   0.72082   0.72544   0.72680
 Alpha virt. eigenvalues --    0.72978   0.73721   0.73951   0.74359   0.74413
 Alpha virt. eigenvalues --    0.74595   0.75299   0.75597   0.75753   0.75969
 Alpha virt. eigenvalues --    0.76472   0.76732   0.76940   0.77398   0.78038
 Alpha virt. eigenvalues --    0.78695   0.78924   0.79507   0.79735   0.80112
 Alpha virt. eigenvalues --    0.80237   0.80901   0.81467   0.81642   0.82115
 Alpha virt. eigenvalues --    0.82746   0.82817   0.83087   0.83473   0.83678
 Alpha virt. eigenvalues --    0.84513   0.84561   0.84721   0.85492   0.85788
 Alpha virt. eigenvalues --    0.85821   0.86647   0.87026   0.87082   0.87428
 Alpha virt. eigenvalues --    0.87666   0.87943   0.88136   0.88723   0.89133
 Alpha virt. eigenvalues --    0.89524   0.89869   0.90272   0.90791   0.90797
 Alpha virt. eigenvalues --    0.91179   0.91570   0.91767   0.92045   0.92315
 Alpha virt. eigenvalues --    0.92553   0.92780   0.92980   0.93319   0.93703
 Alpha virt. eigenvalues --    0.93829   0.94125   0.94432   0.94615   0.94862
 Alpha virt. eigenvalues --    0.95264   0.95536   0.95860   0.95950   0.96337
 Alpha virt. eigenvalues --    0.96398   0.96697   0.97074   0.97325   0.97380
 Alpha virt. eigenvalues --    0.97635   0.97881   0.98206   0.98301   0.98572
 Alpha virt. eigenvalues --    0.98977   0.99281   0.99822   0.99979   1.00417
 Alpha virt. eigenvalues --    1.00812   1.01008   1.01362   1.01592   1.01795
 Alpha virt. eigenvalues --    1.01976   1.02494   1.02756   1.02812   1.03166
 Alpha virt. eigenvalues --    1.03455   1.03530   1.03933   1.04298   1.04631
 Alpha virt. eigenvalues --    1.04940   1.05269   1.05501   1.05818   1.06484
 Alpha virt. eigenvalues --    1.06709   1.06982   1.07352   1.07569   1.07800
 Alpha virt. eigenvalues --    1.08224   1.08607   1.08917   1.09429   1.09753
 Alpha virt. eigenvalues --    1.10065   1.10162   1.10418   1.10661   1.11107
 Alpha virt. eigenvalues --    1.11443   1.12080   1.12184   1.12485   1.12753
 Alpha virt. eigenvalues --    1.12899   1.13451   1.13588   1.13836   1.14141
 Alpha virt. eigenvalues --    1.14522   1.14659   1.14756   1.14847   1.15151
 Alpha virt. eigenvalues --    1.15661   1.15817   1.16282   1.16416   1.16872
 Alpha virt. eigenvalues --    1.17115   1.17292   1.17359   1.17961   1.18216
 Alpha virt. eigenvalues --    1.18301   1.18413   1.18817   1.18908   1.19386
 Alpha virt. eigenvalues --    1.19475   1.19936   1.20052   1.20398   1.20667
 Alpha virt. eigenvalues --    1.21031   1.21300   1.21442   1.21835   1.22324
 Alpha virt. eigenvalues --    1.22507   1.23031   1.23389   1.23501   1.23584
 Alpha virt. eigenvalues --    1.24153   1.24359   1.24927   1.25102   1.25514
 Alpha virt. eigenvalues --    1.26268   1.26392   1.26625   1.26905   1.27051
 Alpha virt. eigenvalues --    1.27349   1.27842   1.28135   1.28647   1.28978
 Alpha virt. eigenvalues --    1.29045   1.29518   1.29639   1.29972   1.30443
 Alpha virt. eigenvalues --    1.30916   1.31465   1.31677   1.32125   1.32240
 Alpha virt. eigenvalues --    1.32515   1.32777   1.33299   1.33720   1.33818
 Alpha virt. eigenvalues --    1.34463   1.34618   1.34932   1.35591   1.35774
 Alpha virt. eigenvalues --    1.36114   1.36439   1.36715   1.37297   1.37747
 Alpha virt. eigenvalues --    1.38054   1.38620   1.38753   1.39257   1.39636
 Alpha virt. eigenvalues --    1.39804   1.40216   1.40505   1.40711   1.41238
 Alpha virt. eigenvalues --    1.41445   1.41833   1.42497   1.42872   1.43420
 Alpha virt. eigenvalues --    1.43653   1.43952   1.44787   1.45035   1.45484
 Alpha virt. eigenvalues --    1.45770   1.46434   1.46750   1.47083   1.47371
 Alpha virt. eigenvalues --    1.48187   1.48430   1.48711   1.48901   1.49860
 Alpha virt. eigenvalues --    1.50295   1.50679   1.51031   1.51325   1.52045
 Alpha virt. eigenvalues --    1.52231   1.52422   1.53370   1.53850   1.53871
 Alpha virt. eigenvalues --    1.54019   1.54974   1.55278   1.55457   1.56107
 Alpha virt. eigenvalues --    1.56290   1.56937   1.57151   1.57410   1.58048
 Alpha virt. eigenvalues --    1.58279   1.59085   1.59239   1.59651   1.60238
 Alpha virt. eigenvalues --    1.60349   1.60866   1.60993   1.61918   1.62268
 Alpha virt. eigenvalues --    1.62425   1.62791   1.63489   1.63683   1.63992
 Alpha virt. eigenvalues --    1.64644   1.65029   1.65234   1.65667   1.66087
 Alpha virt. eigenvalues --    1.66389   1.66802   1.67201   1.67531   1.68186
 Alpha virt. eigenvalues --    1.68465   1.68761   1.69152   1.69620   1.70120
 Alpha virt. eigenvalues --    1.70244   1.70400   1.70848   1.71672   1.71922
 Alpha virt. eigenvalues --    1.72141   1.72454   1.72501   1.73308   1.73693
 Alpha virt. eigenvalues --    1.73852   1.74138   1.74692   1.74837   1.75346
 Alpha virt. eigenvalues --    1.75620   1.76284   1.76306   1.76584   1.76953
 Alpha virt. eigenvalues --    1.77251   1.77913   1.78243   1.78566   1.78912
 Alpha virt. eigenvalues --    1.79086   1.79416   1.79463   1.80210   1.80502
 Alpha virt. eigenvalues --    1.81029   1.81431   1.81778   1.82108   1.82379
 Alpha virt. eigenvalues --    1.82774   1.83226   1.83424   1.83899   1.84468
 Alpha virt. eigenvalues --    1.84587   1.84811   1.85119   1.85557   1.86145
 Alpha virt. eigenvalues --    1.86343   1.86554   1.86975   1.87762   1.87930
 Alpha virt. eigenvalues --    1.88209   1.88551   1.89295   1.89706   1.89975
 Alpha virt. eigenvalues --    1.90566   1.91111   1.91420   1.91841   1.92433
 Alpha virt. eigenvalues --    1.92814   1.93369   1.93530   1.94077   1.94486
 Alpha virt. eigenvalues --    1.94766   1.95300   1.95601   1.96069   1.96627
 Alpha virt. eigenvalues --    1.96970   1.97254   1.97548   1.98490   1.98851
 Alpha virt. eigenvalues --    1.98923   1.99612   1.99944   2.00345   2.00707
 Alpha virt. eigenvalues --    2.01381   2.01591   2.02301   2.02463   2.03137
 Alpha virt. eigenvalues --    2.03648   2.03944   2.04410   2.04936   2.05165
 Alpha virt. eigenvalues --    2.05894   2.06261   2.06818   2.07394   2.07749
 Alpha virt. eigenvalues --    2.08193   2.08700   2.09220   2.09655   2.09947
 Alpha virt. eigenvalues --    2.10855   2.11177   2.11735   2.12371   2.12568
 Alpha virt. eigenvalues --    2.13033   2.13418   2.14624   2.14902   2.15730
 Alpha virt. eigenvalues --    2.16086   2.16276   2.17029   2.17846   2.18003
 Alpha virt. eigenvalues --    2.19053   2.19676   2.20165   2.20389   2.21131
 Alpha virt. eigenvalues --    2.22022   2.22428   2.22683   2.23067   2.23145
 Alpha virt. eigenvalues --    2.23894   2.24567   2.24832   2.25298   2.26091
 Alpha virt. eigenvalues --    2.26488   2.27786   2.28168   2.28383   2.28890
 Alpha virt. eigenvalues --    2.29457   2.29947   2.30294   2.30794   2.31208
 Alpha virt. eigenvalues --    2.31807   2.32685   2.33680   2.33738   2.34213
 Alpha virt. eigenvalues --    2.35194   2.35765   2.36135   2.37945   2.38650
 Alpha virt. eigenvalues --    2.38790   2.39532   2.39894   2.40268   2.41002
 Alpha virt. eigenvalues --    2.41652   2.41990   2.43001   2.43389   2.44835
 Alpha virt. eigenvalues --    2.44884   2.45015   2.45795   2.46135   2.46834
 Alpha virt. eigenvalues --    2.47910   2.49108   2.49523   2.50101   2.51302
 Alpha virt. eigenvalues --    2.51598   2.51815   2.52598   2.54324   2.54424
 Alpha virt. eigenvalues --    2.55386   2.55463   2.56465   2.57784   2.58852
 Alpha virt. eigenvalues --    2.59169   2.59641   2.60340   2.61116   2.61943
 Alpha virt. eigenvalues --    2.62329   2.63172   2.63567   2.64859   2.65571
 Alpha virt. eigenvalues --    2.65606   2.66216   2.67294   2.68008   2.68516
 Alpha virt. eigenvalues --    2.69585   2.70326   2.71023   2.71466   2.72238
 Alpha virt. eigenvalues --    2.73031   2.73903   2.74226   2.74884   2.75230
 Alpha virt. eigenvalues --    2.76342   2.77395   2.78116   2.78483   2.78564
 Alpha virt. eigenvalues --    2.79413   2.80274   2.80859   2.81274   2.82471
 Alpha virt. eigenvalues --    2.83368   2.84634   2.84733   2.85420   2.85988
 Alpha virt. eigenvalues --    2.87549   2.88226   2.88552   2.88779   2.89844
 Alpha virt. eigenvalues --    2.90182   2.90850   2.91785   2.92370   2.92986
 Alpha virt. eigenvalues --    2.93903   2.95189   2.95227   2.96401   2.97542
 Alpha virt. eigenvalues --    2.98404   2.99069   2.99576   2.99830   3.00847
 Alpha virt. eigenvalues --    3.01080   3.01915   3.03379   3.04189   3.04820
 Alpha virt. eigenvalues --    3.05417   3.05826   3.06816   3.07262   3.08083
 Alpha virt. eigenvalues --    3.08987   3.09763   3.10029   3.10365   3.11155
 Alpha virt. eigenvalues --    3.11807   3.12323   3.12940   3.13753   3.14316
 Alpha virt. eigenvalues --    3.14936   3.15259   3.16179   3.16623   3.17070
 Alpha virt. eigenvalues --    3.17505   3.18284   3.18420   3.20366   3.20851
 Alpha virt. eigenvalues --    3.21516   3.22009   3.23468   3.24569   3.25254
 Alpha virt. eigenvalues --    3.25718   3.26072   3.27256   3.28040   3.28381
 Alpha virt. eigenvalues --    3.28730   3.29679   3.31130   3.31736   3.32005
 Alpha virt. eigenvalues --    3.32432   3.33486   3.34123   3.34499   3.35650
 Alpha virt. eigenvalues --    3.36267   3.36486   3.37414   3.37628   3.38312
 Alpha virt. eigenvalues --    3.39183   3.39702   3.40426   3.40452   3.40905
 Alpha virt. eigenvalues --    3.41590   3.42425   3.42657   3.42951   3.43786
 Alpha virt. eigenvalues --    3.43949   3.44563   3.44949   3.45623   3.45973
 Alpha virt. eigenvalues --    3.46470   3.47965   3.48481   3.49115   3.49503
 Alpha virt. eigenvalues --    3.50093   3.50441   3.51422   3.51863   3.52302
 Alpha virt. eigenvalues --    3.52965   3.53666   3.53861   3.55570   3.55834
 Alpha virt. eigenvalues --    3.56887   3.57465   3.58022   3.58600   3.58757
 Alpha virt. eigenvalues --    3.59193   3.59669   3.59958   3.60316   3.60590
 Alpha virt. eigenvalues --    3.61616   3.62251   3.62640   3.63901   3.64171
 Alpha virt. eigenvalues --    3.64603   3.65642   3.66471   3.66788   3.67391
 Alpha virt. eigenvalues --    3.67491   3.68368   3.68792   3.69137   3.69638
 Alpha virt. eigenvalues --    3.70517   3.70747   3.71755   3.72229   3.72770
 Alpha virt. eigenvalues --    3.72872   3.73105   3.73610   3.74237   3.74542
 Alpha virt. eigenvalues --    3.75137   3.75778   3.76028   3.76305   3.77123
 Alpha virt. eigenvalues --    3.77699   3.77930   3.78131   3.78776   3.79025
 Alpha virt. eigenvalues --    3.79830   3.80014   3.80621   3.81268   3.81469
 Alpha virt. eigenvalues --    3.82328   3.83591   3.84028   3.84406   3.85762
 Alpha virt. eigenvalues --    3.86044   3.86391   3.86520   3.86897   3.87448
 Alpha virt. eigenvalues --    3.88651   3.88669   3.89165   3.89601   3.90057
 Alpha virt. eigenvalues --    3.90287   3.90509   3.91628   3.91965   3.92387
 Alpha virt. eigenvalues --    3.92812   3.93425   3.93890   3.94249   3.94401
 Alpha virt. eigenvalues --    3.94611   3.95137   3.95899   3.96512   3.96939
 Alpha virt. eigenvalues --    3.97163   3.98133   3.98917   3.99807   4.00656
 Alpha virt. eigenvalues --    4.01259   4.01483   4.02075   4.03381   4.03427
 Alpha virt. eigenvalues --    4.04176   4.04398   4.05300   4.05650   4.06627
 Alpha virt. eigenvalues --    4.07300   4.07471   4.08312   4.09626   4.09725
 Alpha virt. eigenvalues --    4.10660   4.11416   4.11967   4.12452   4.12571
 Alpha virt. eigenvalues --    4.13285   4.14395   4.15143   4.15257   4.15937
 Alpha virt. eigenvalues --    4.16496   4.17654   4.17957   4.18389   4.18858
 Alpha virt. eigenvalues --    4.19409   4.19919   4.20051   4.20265   4.21260
 Alpha virt. eigenvalues --    4.21681   4.22122   4.22254   4.22733   4.23529
 Alpha virt. eigenvalues --    4.23627   4.24394   4.25163   4.25791   4.26356
 Alpha virt. eigenvalues --    4.26856   4.27215   4.28094   4.28418   4.28990
 Alpha virt. eigenvalues --    4.29521   4.30572   4.31022   4.31579   4.32063
 Alpha virt. eigenvalues --    4.33181   4.33989   4.34531   4.34927   4.35422
 Alpha virt. eigenvalues --    4.36086   4.36610   4.37235   4.38074   4.39902
 Alpha virt. eigenvalues --    4.41281   4.42451   4.42865   4.43624   4.44008
 Alpha virt. eigenvalues --    4.45088   4.45949   4.46226   4.46793   4.47018
 Alpha virt. eigenvalues --    4.47557   4.47959   4.48976   4.49473   4.49891
 Alpha virt. eigenvalues --    4.50225   4.50840   4.51763   4.51959   4.52955
 Alpha virt. eigenvalues --    4.53464   4.54757   4.54832   4.55712   4.56729
 Alpha virt. eigenvalues --    4.57591   4.58195   4.59690   4.59850   4.60428
 Alpha virt. eigenvalues --    4.60745   4.61494   4.62518   4.63088   4.63747
 Alpha virt. eigenvalues --    4.64917   4.65353   4.65815   4.66623   4.67682
 Alpha virt. eigenvalues --    4.67830   4.68498   4.69381   4.70614   4.71315
 Alpha virt. eigenvalues --    4.71477   4.72156   4.73601   4.74814   4.75002
 Alpha virt. eigenvalues --    4.75487   4.76145   4.76730   4.77154   4.78372
 Alpha virt. eigenvalues --    4.79257   4.79597   4.79859   4.80593   4.81237
 Alpha virt. eigenvalues --    4.81884   4.83870   4.84421   4.85249   4.85983
 Alpha virt. eigenvalues --    4.86923   4.87976   4.88334   4.88903   4.89087
 Alpha virt. eigenvalues --    4.90577   4.91180   4.92031   4.92813   4.94220
 Alpha virt. eigenvalues --    4.95677   4.95950   4.96631   4.97571   4.97769
 Alpha virt. eigenvalues --    4.98207   4.99270   5.00605   5.01581   5.02016
 Alpha virt. eigenvalues --    5.03428   5.04749   5.05222   5.06053   5.06416
 Alpha virt. eigenvalues --    5.07733   5.08008   5.09669   5.10043   5.10453
 Alpha virt. eigenvalues --    5.11697   5.12261   5.12511   5.12960   5.13915
 Alpha virt. eigenvalues --    5.14092   5.14401   5.15823   5.16612   5.17526
 Alpha virt. eigenvalues --    5.18759   5.19557   5.21045   5.21397   5.21637
 Alpha virt. eigenvalues --    5.22119   5.22788   5.23354   5.24027   5.24375
 Alpha virt. eigenvalues --    5.25397   5.26161   5.27046   5.29523   5.29751
 Alpha virt. eigenvalues --    5.30573   5.31792   5.32031   5.32336   5.33502
 Alpha virt. eigenvalues --    5.34490   5.35093   5.35431   5.35661   5.37706
 Alpha virt. eigenvalues --    5.39443   5.41070   5.41556   5.43982   5.45130
 Alpha virt. eigenvalues --    5.46206   5.47951   5.48627   5.49558   5.50412
 Alpha virt. eigenvalues --    5.51474   5.52647   5.54436   5.54778   5.55964
 Alpha virt. eigenvalues --    5.56740   5.57760   5.58593   5.59977   5.60961
 Alpha virt. eigenvalues --    5.63618   5.64066   5.64728   5.66870   5.67654
 Alpha virt. eigenvalues --    5.68357   5.68835   5.69007   5.69199   5.70247
 Alpha virt. eigenvalues --    5.71846   5.73015   5.76223   5.77257   5.77862
 Alpha virt. eigenvalues --    5.79444   5.81938   5.82348   5.82986   5.83555
 Alpha virt. eigenvalues --    5.84929   5.88299   5.90341   5.91850   5.92922
 Alpha virt. eigenvalues --    5.94025   5.95386   5.96540   5.97421   5.98139
 Alpha virt. eigenvalues --    5.99564   6.00715   6.01576   6.04211   6.06889
 Alpha virt. eigenvalues --    6.07167   6.10325   6.10605   6.11401   6.11931
 Alpha virt. eigenvalues --    6.13975   6.16615   6.17468   6.18873   6.19012
 Alpha virt. eigenvalues --    6.20896   6.21840   6.22237   6.23820   6.27860
 Alpha virt. eigenvalues --    6.29089   6.33057   6.34465   6.36879   6.41639
 Alpha virt. eigenvalues --    6.42486   6.43237   6.46432   6.51419   6.53774
 Alpha virt. eigenvalues --    6.57366   6.59827   6.66128   6.67527   6.68147
 Alpha virt. eigenvalues --    6.72411   6.73072   6.74658   6.76565   6.79448
 Alpha virt. eigenvalues --    6.80103   6.85016   6.86016   6.87688   6.88508
 Alpha virt. eigenvalues --    6.89120   6.89826   6.91165   6.92121   6.93550
 Alpha virt. eigenvalues --    6.95448   6.95966   6.97896   7.00509   7.02375
 Alpha virt. eigenvalues --    7.05121   7.07654   7.11054   7.11574   7.14710
 Alpha virt. eigenvalues --    7.18150   7.20226   7.21872   7.23175   7.23594
 Alpha virt. eigenvalues --    7.24229   7.26540   7.27752   7.29155   7.33122
 Alpha virt. eigenvalues --    7.33335   7.36144   7.36928   7.38521   7.41108
 Alpha virt. eigenvalues --    7.42692   7.44494   7.49068   7.54081   7.55754
 Alpha virt. eigenvalues --    7.59276   7.61727   7.64374   7.69357   7.71595
 Alpha virt. eigenvalues --    7.73410   7.74185   7.81900   7.84712   7.85566
 Alpha virt. eigenvalues --    7.88908   7.93564   7.98464   8.02542   8.06045
 Alpha virt. eigenvalues --    8.06871   8.19769   8.38339   8.54758   8.60458
 Alpha virt. eigenvalues --    8.63691   8.81882   8.84634   8.86502   8.90221
 Alpha virt. eigenvalues --    8.91289   8.95927   9.04908   9.05648   9.17602
 Alpha virt. eigenvalues --    9.20642   9.22622   9.22832   9.23456   9.26411
 Alpha virt. eigenvalues --    9.28356   9.30065   9.32277   9.33473   9.36817
 Alpha virt. eigenvalues --    9.38387   9.38496   9.41081   9.43998   9.46323
 Alpha virt. eigenvalues --    9.47502   9.48066   9.56007   9.57280   9.59415
 Alpha virt. eigenvalues --    9.60474   9.69742   9.80156   9.81597   9.87617
 Alpha virt. eigenvalues --   10.02123  10.09525  14.91032  15.46523  15.64363
 Alpha virt. eigenvalues --   15.81832  16.00219  16.34807  16.51337  16.60096
 Alpha virt. eigenvalues --   17.07806  17.31223  17.69149  17.91920  18.21912
 Alpha virt. eigenvalues --   18.60155  18.71377  18.82451  19.76374  20.13558
 Alpha virt. eigenvalues --   20.27320  20.83125  21.20091  21.75605
          Condensed to atoms (all electrons):
               1          2          3          4          5          6
     1  C   10.610239  -0.462644  -1.790492   0.262134  -0.123417  -0.065208
     2  N   -0.462644   9.071916   0.284572  -0.155186  -0.328969  -0.112300
     3  C   -1.790492   0.284572   7.118502   0.179187   0.406403  -0.104990
     4  O    0.262134  -0.155186   0.179187   9.144812  -0.210105   0.014411
     5  O   -0.123417  -0.328969   0.406403  -0.210105   8.701639   0.146110
     6  C   -0.065208  -0.112300  -0.104990   0.014411   0.146110   5.864676
     7  C   -0.027608  -0.040109   0.075222  -0.034503  -0.123120   0.010754
     8  C    0.003263   0.004776  -0.004715  -0.002741   0.012599  -0.035466
     9  C   -0.702690  -0.435486  -0.217018   0.012627  -0.061851  -0.026460
    10  C   -0.782017   0.429238   0.118784  -0.008855   0.014429  -0.007217
    11  C    0.019722  -0.098702  -0.020355   0.004866  -0.000530   0.006004
    12  C   -0.331500   0.130718  -0.041707   0.014473  -0.007998  -0.010200
    13  C   -1.256052  -0.368503   0.303868  -0.206863   0.013581  -0.018113
    14  H   -0.262051  -0.080911  -0.386095  -0.006799   0.067076  -0.028970
    15  H   -0.027997  -0.021557   0.035145  -0.020561  -0.025979   0.300895
    16  H   -0.024560   0.002146   0.014253   0.000480  -0.056834   0.302734
    17  H   -0.004108  -0.016916   0.001063   0.001679  -0.053132   0.068917
    18  H   -0.003465  -0.010529  -0.000941   0.006102  -0.062003   0.065737
    19  H    0.000549  -0.000319   0.003204  -0.000142   0.000924  -0.005016
    20  H    0.000278   0.000209   0.001467  -0.000143   0.001208  -0.006178
    21  H    0.000809   0.000544   0.003230   0.000479   0.002408  -0.006226
    22  H   -0.063470  -0.235713  -0.203217   0.012310  -0.035058  -0.008971
    23  Cl   0.112024  -0.078527  -0.020553   0.000299  -0.001630   0.000010
    24  C    0.037537  -0.000369  -0.002627   0.000509  -0.000795   0.000206
    25  H    0.107999  -0.061002  -0.036704   0.003618  -0.002277  -0.000501
    26  H   -0.248404  -0.011218   0.121804  -0.071621   0.011396  -0.005273
    27  F   -0.012268   0.002126   0.000349   0.000077   0.000009   0.000016
    28  F    0.000287   0.004561   0.000604  -0.000008   0.000020  -0.000009
    29  F   -0.005485   0.002280  -0.000144   0.000005   0.000002  -0.000010
    30  O    0.077531  -0.023766  -0.028961   0.000396  -0.009051  -0.006161
    31  O    0.113451  -0.216126  -0.080573  -0.006905  -0.016818   0.011784
    32  C   -0.021871  -0.000579  -0.011863  -0.001776  -0.017859  -0.004650
    33  C   -0.010726  -0.015304   0.011525  -0.000284   0.003608   0.005848
    34  C    0.007886  -0.000566  -0.007581   0.000144  -0.000241  -0.000424
    35  H   -0.003824   0.000018   0.001667  -0.000013   0.000445   0.000500
    36  H   -0.001026  -0.000914   0.000722  -0.000051   0.000601   0.000849
    37  H    0.000499   0.000310   0.000268   0.000006  -0.000976  -0.000831
    38  H    0.000988  -0.000552  -0.000482   0.000007   0.000084   0.000099
    39  H   -0.002142   0.001638  -0.000603  -0.000077  -0.000559  -0.001576
               7          8          9         10         11         12
     1  C   -0.027608   0.003263  -0.702690  -0.782017   0.019722  -0.331500
     2  N   -0.040109   0.004776  -0.435486   0.429238  -0.098702   0.130718
     3  C    0.075222  -0.004715  -0.217018   0.118784  -0.020355  -0.041707
     4  O   -0.034503  -0.002741   0.012627  -0.008855   0.004866   0.014473
     5  O   -0.123120   0.012599  -0.061851   0.014429  -0.000530  -0.007998
     6  C    0.010754  -0.035466  -0.026460  -0.007217   0.006004  -0.010200
     7  C    5.712642   0.075250   0.000594   0.001647  -0.001314   0.002342
     8  C    0.075250   5.840056  -0.000538   0.000003   0.000005  -0.000022
     9  C    0.000594  -0.000538  10.130976  -1.122968   0.328014  -0.365836
    10  C    0.001647   0.000003  -1.122968   8.193447  -1.046613   0.423428
    11  C   -0.001314   0.000005   0.328014  -1.046613   8.815948  -1.840592
    12  C    0.002342  -0.000022  -0.365836   0.423428  -1.840592  10.180881
    13  C    0.000050  -0.000588  -0.073637   0.006834   0.060589  -0.838974
    14  H   -0.003191  -0.000759  -0.099598  -0.020914   0.026719  -0.029280
    15  H    0.019636  -0.003811  -0.001786   0.001073  -0.000854   0.001754
    16  H    0.026291  -0.010755   0.002551  -0.000399   0.000560  -0.001638
    17  H    0.387984  -0.038978  -0.000005  -0.000005   0.000030  -0.000014
    18  H    0.390770  -0.051469   0.000366  -0.000104   0.000053  -0.000059
    19  H    0.030100   0.368181  -0.000096   0.000023  -0.000034   0.000091
    20  H   -0.037137   0.455199  -0.000034   0.000003  -0.000001   0.000001
    21  H    0.026400   0.372874   0.000037  -0.000027   0.000026  -0.000058
    22  H   -0.001053   0.000058  -0.081020  -0.542392   0.152782   0.039383
    23  Cl  -0.000023   0.000002   0.100393  -0.414700   0.048465   0.048310
    24  C   -0.000014   0.000003   0.028670  -0.170162  -0.362364  -0.463818
    25  H   -0.000124   0.000007   0.071339  -0.112452  -0.217832   0.132237
    26  H    0.002144  -0.000168  -0.079867  -0.030946   0.115059  -0.377271
    27  F   -0.000000   0.000000  -0.019267   0.038194  -0.005850  -0.035099
    28  F    0.000000  -0.000000  -0.029637   0.017167   0.061957  -0.039184
    29  F    0.000000   0.000000  -0.009254   0.004928   0.030276  -0.032591
    30  O    0.000801   0.000029   0.071226  -0.033056  -0.001107  -0.001093
    31  O   -0.001025  -0.001191   0.092159  -0.018247  -0.000812   0.008854
    32  C    0.002537   0.000219   0.016573   0.035474  -0.012473   0.014103
    33  C   -0.000940  -0.000130  -0.008005  -0.001944  -0.000079  -0.000053
    34  C   -0.001665  -0.000024  -0.001513  -0.001291   0.000036   0.000357
    35  H   -0.000027   0.000004   0.003739   0.000297   0.000043   0.000035
    36  H   -0.000234  -0.000014  -0.001287   0.000325   0.000066  -0.000015
    37  H    0.000201   0.000104  -0.002224   0.000401  -0.000088   0.000037
    38  H   -0.000055  -0.000017   0.000442  -0.000235   0.000033   0.000010
    39  H   -0.000151   0.000114   0.000798   0.000427  -0.000172   0.000069
              13         14         15         16         17         18
     1  C   -1.256052  -0.262051  -0.027997  -0.024560  -0.004108  -0.003465
     2  N   -0.368503  -0.080911  -0.021557   0.002146  -0.016916  -0.010529
     3  C    0.303868  -0.386095   0.035145   0.014253   0.001063  -0.000941
     4  O   -0.206863  -0.006799  -0.020561   0.000480   0.001679   0.006102
     5  O    0.013581   0.067076  -0.025979  -0.056834  -0.053132  -0.062003
     6  C   -0.018113  -0.028970   0.300895   0.302734   0.068917   0.065737
     7  C    0.000050  -0.003191   0.019636   0.026291   0.387984   0.390770
     8  C   -0.000588  -0.000759  -0.003811  -0.010755  -0.038978  -0.051469
     9  C   -0.073637  -0.099598  -0.001786   0.002551  -0.000005   0.000366
    10  C    0.006834  -0.020914   0.001073  -0.000399  -0.000005  -0.000104
    11  C    0.060589   0.026719  -0.000854   0.000560   0.000030   0.000053
    12  C   -0.838974  -0.029280   0.001754  -0.001638  -0.000014  -0.000059
    13  C    8.993526  -0.003043   0.007008   0.005432   0.000018  -0.000060
    14  H   -0.003043   1.416608  -0.006390   0.001899  -0.004873  -0.001170
    15  H    0.007008  -0.006390   0.433699  -0.003472   0.026191  -0.027074
    16  H    0.005432   0.001899  -0.003472   0.430586  -0.021913   0.027653
    17  H    0.000018  -0.004873   0.026191  -0.021913   0.430018  -0.000956
    18  H   -0.000060  -0.001170  -0.027074   0.027653  -0.000956   0.449388
    19  H   -0.000167   0.000061  -0.007663  -0.007569  -0.001481   0.000912
    20  H   -0.000010  -0.000020  -0.000018  -0.001364  -0.002697  -0.003955
    21  H   -0.000092   0.000372  -0.008502  -0.007102   0.000091  -0.000375
    22  H   -0.116907  -0.061741  -0.000852  -0.000663  -0.000031  -0.000385
    23  Cl  -0.010507  -0.001567  -0.000027  -0.000003   0.000005  -0.000002
    24  C    0.015243  -0.000393  -0.000026   0.000031   0.000002   0.000000
    25  H   -0.132174   0.004827  -0.000042  -0.000006  -0.000011   0.000004
    26  H    0.304881   0.005451   0.000784  -0.001411   0.000093   0.000024
    27  F    0.022111   0.000082  -0.000002  -0.000001  -0.000000  -0.000000
    28  F   -0.000681  -0.000430   0.000001  -0.000000   0.000000  -0.000001
    29  F    0.000024  -0.000270  -0.000002  -0.000000  -0.000001   0.000000
    30  O   -0.008599  -0.037484  -0.000244  -0.000103  -0.000108   0.000055
    31  O   -0.028088  -0.135090   0.000838   0.000018   0.000340   0.000306
    32  C    0.000999  -0.062313  -0.000318   0.000013   0.000547  -0.000229
    33  C    0.000325   0.018354   0.000172   0.000307  -0.000176   0.000082
    34  C   -0.001208  -0.005780  -0.000323   0.000304  -0.000810   0.001025
    35  H    0.000304   0.003798   0.000011   0.000030   0.000023   0.000036
    36  H    0.000102   0.000559   0.000066   0.000016   0.000018   0.000000
    37  H    0.000094  -0.002444   0.000101  -0.000141   0.000080  -0.000196
    38  H   -0.000112   0.000119  -0.000020   0.000020  -0.000293   0.000159
    39  H    0.000354   0.000409  -0.000259   0.000219  -0.000267   0.000071
              19         20         21         22         23         24
     1  C    0.000549   0.000278   0.000809  -0.063470   0.112024   0.037537
     2  N   -0.000319   0.000209   0.000544  -0.235713  -0.078527  -0.000369
     3  C    0.003204   0.001467   0.003230  -0.203217  -0.020553  -0.002627
     4  O   -0.000142  -0.000143   0.000479   0.012310   0.000299   0.000509
     5  O    0.000924   0.001208   0.002408  -0.035058  -0.001630  -0.000795
     6  C   -0.005016  -0.006178  -0.006226  -0.008971   0.000010   0.000206
     7  C    0.030100  -0.037137   0.026400  -0.001053  -0.000023  -0.000014
     8  C    0.368181   0.455199   0.372874   0.000058   0.000002   0.000003
     9  C   -0.000096  -0.000034   0.000037  -0.081020   0.100393   0.028670
    10  C    0.000023   0.000003  -0.000027  -0.542392  -0.414700  -0.170162
    11  C   -0.000034  -0.000001   0.000026   0.152782   0.048465  -0.362364
    12  C    0.000091   0.000001  -0.000058   0.039383   0.048310  -0.463818
    13  C   -0.000167  -0.000010  -0.000092  -0.116907  -0.010507   0.015243
    14  H    0.000061  -0.000020   0.000372  -0.061741  -0.001567  -0.000393
    15  H   -0.007663  -0.000018  -0.008502  -0.000852  -0.000027  -0.000026
    16  H   -0.007569  -0.001364  -0.007102  -0.000663  -0.000003   0.000031
    17  H   -0.001481  -0.002697   0.000091  -0.000031   0.000005   0.000002
    18  H    0.000912  -0.003955  -0.000375  -0.000385  -0.000002   0.000000
    19  H    0.322261   0.000619   0.018385   0.000003  -0.000000  -0.000000
    20  H    0.000619   0.312386   0.000968   0.000000   0.000000   0.000000
    21  H    0.018385   0.000968   0.319590   0.000045   0.000000   0.000001
    22  H    0.000003   0.000000   0.000045   1.550039  -0.070009   0.016491
    23  Cl  -0.000000   0.000000   0.000000  -0.070009  17.863254  -0.060410
    24  C   -0.000000   0.000000   0.000001   0.016491  -0.060410   5.282382
    25  H   -0.000001  -0.000000   0.000001   0.009591   0.000593  -0.056419
    26  H    0.000077  -0.000008  -0.000024  -0.029012  -0.006329  -0.005373
    27  F    0.000000  -0.000000   0.000000  -0.000645   0.010033   0.159250
    28  F   -0.000000  -0.000000   0.000000  -0.002454  -0.012552   0.168802
    29  F    0.000000   0.000000  -0.000000  -0.002119  -0.011675   0.186440
    30  O    0.000000  -0.000004   0.000006  -0.177905   0.005333   0.001048
    31  O    0.000023  -0.000131  -0.000050   0.015923   0.004503   0.000752
    32  C    0.000037   0.000017  -0.000036  -0.046430  -0.005156   0.000508
    33  C    0.000007   0.000007  -0.000021  -0.019131   0.000522   0.000040
    34  C   -0.000042   0.000030  -0.000019   0.004262   0.000215   0.000016
    35  H    0.000000   0.000000  -0.000000  -0.002329  -0.000276  -0.000021
    36  H    0.000002   0.000007  -0.000011   0.000388  -0.000126  -0.000003
    37  H    0.000016   0.000002  -0.000009   0.001860   0.000017   0.000003
    38  H   -0.000002   0.000005  -0.000008   0.000147   0.000026   0.000004
    39  H   -0.000022  -0.000075   0.000077   0.000973  -0.000029  -0.000011
              25         26         27         28         29         30
     1  C    0.107999  -0.248404  -0.012268   0.000287  -0.005485   0.077531
     2  N   -0.061002  -0.011218   0.002126   0.004561   0.002280  -0.023766
     3  C   -0.036704   0.121804   0.000349   0.000604  -0.000144  -0.028961
     4  O    0.003618  -0.071621   0.000077  -0.000008   0.000005   0.000396
     5  O   -0.002277   0.011396   0.000009   0.000020   0.000002  -0.009051
     6  C   -0.000501  -0.005273   0.000016  -0.000009  -0.000010  -0.006161
     7  C   -0.000124   0.002144  -0.000000   0.000000   0.000000   0.000801
     8  C    0.000007  -0.000168   0.000000  -0.000000   0.000000   0.000029
     9  C    0.071339  -0.079867  -0.019267  -0.029637  -0.009254   0.071226
    10  C   -0.112452  -0.030946   0.038194   0.017167   0.004928  -0.033056
    11  C   -0.217832   0.115059  -0.005850   0.061957   0.030276  -0.001107
    12  C    0.132237  -0.377271  -0.035099  -0.039184  -0.032591  -0.001093
    13  C   -0.132174   0.304881   0.022111  -0.000681   0.000024  -0.008599
    14  H    0.004827   0.005451   0.000082  -0.000430  -0.000270  -0.037484
    15  H   -0.000042   0.000784  -0.000002   0.000001  -0.000002  -0.000244
    16  H   -0.000006  -0.001411  -0.000001  -0.000000  -0.000000  -0.000103
    17  H   -0.000011   0.000093  -0.000000   0.000000  -0.000001  -0.000108
    18  H    0.000004   0.000024  -0.000000  -0.000001   0.000000   0.000055
    19  H   -0.000001   0.000077   0.000000  -0.000000   0.000000   0.000000
    20  H   -0.000000  -0.000008  -0.000000  -0.000000   0.000000  -0.000004
    21  H    0.000001  -0.000024   0.000000   0.000000  -0.000000   0.000006
    22  H    0.009591  -0.029012  -0.000645  -0.002454  -0.002119  -0.177905
    23  Cl   0.000593  -0.006329   0.010033  -0.012552  -0.011675   0.005333
    24  C   -0.056419  -0.005373   0.159250   0.168802   0.186440   0.001048
    25  H    0.971470  -0.049086  -0.000656  -0.000920   0.000202   0.000268
    26  H   -0.049086   0.902961  -0.002331   0.000686   0.000092  -0.000588
    27  F   -0.000656  -0.002331   9.371276  -0.072354  -0.070662  -0.000001
    28  F   -0.000920   0.000686  -0.072354   9.337685  -0.019154  -0.000015
    29  F    0.000202   0.000092  -0.070662  -0.019154   9.335021  -0.000031
    30  O    0.000268  -0.000588  -0.000001  -0.000015  -0.000031   8.934975
    31  O    0.000800  -0.003315  -0.000003  -0.000065   0.000023  -0.056235
    32  C   -0.000460  -0.000232   0.000026   0.000074   0.000328   0.415033
    33  C   -0.000032   0.000202   0.000003  -0.000004   0.000007  -0.152283
    34  C    0.000029  -0.000140  -0.000000  -0.000002  -0.000000  -0.012512
    35  H   -0.000022   0.000020   0.000000   0.000005   0.000005   0.004352
    36  H   -0.000004   0.000027   0.000000  -0.000000   0.000001  -0.002271
    37  H    0.000001   0.000042  -0.000000   0.000001  -0.000000   0.002389
    38  H    0.000004  -0.000018  -0.000000  -0.000001  -0.000000  -0.003943
    39  H   -0.000010   0.000015   0.000000   0.000002   0.000001   0.002859
              31         32         33         34         35         36
     1  C    0.113451  -0.021871  -0.010726   0.007886  -0.003824  -0.001026
     2  N   -0.216126  -0.000579  -0.015304  -0.000566   0.000018  -0.000914
     3  C   -0.080573  -0.011863   0.011525  -0.007581   0.001667   0.000722
     4  O   -0.006905  -0.001776  -0.000284   0.000144  -0.000013  -0.000051
     5  O   -0.016818  -0.017859   0.003608  -0.000241   0.000445   0.000601
     6  C    0.011784  -0.004650   0.005848  -0.000424   0.000500   0.000849
     7  C   -0.001025   0.002537  -0.000940  -0.001665  -0.000027  -0.000234
     8  C   -0.001191   0.000219  -0.000130  -0.000024   0.000004  -0.000014
     9  C    0.092159   0.016573  -0.008005  -0.001513   0.003739  -0.001287
    10  C   -0.018247   0.035474  -0.001944  -0.001291   0.000297   0.000325
    11  C   -0.000812  -0.012473  -0.000079   0.000036   0.000043   0.000066
    12  C    0.008854   0.014103  -0.000053   0.000357   0.000035  -0.000015
    13  C   -0.028088   0.000999   0.000325  -0.001208   0.000304   0.000102
    14  H   -0.135090  -0.062313   0.018354  -0.005780   0.003798   0.000559
    15  H    0.000838  -0.000318   0.000172  -0.000323   0.000011   0.000066
    16  H    0.000018   0.000013   0.000307   0.000304   0.000030   0.000016
    17  H    0.000340   0.000547  -0.000176  -0.000810   0.000023   0.000018
    18  H    0.000306  -0.000229   0.000082   0.001025   0.000036   0.000000
    19  H    0.000023   0.000037   0.000007  -0.000042   0.000000   0.000002
    20  H   -0.000131   0.000017   0.000007   0.000030   0.000000   0.000007
    21  H   -0.000050  -0.000036  -0.000021  -0.000019  -0.000000  -0.000011
    22  H    0.015923  -0.046430  -0.019131   0.004262  -0.002329   0.000388
    23  Cl   0.004503  -0.005156   0.000522   0.000215  -0.000276  -0.000126
    24  C    0.000752   0.000508   0.000040   0.000016  -0.000021  -0.000003
    25  H    0.000800  -0.000460  -0.000032   0.000029  -0.000022  -0.000004
    26  H   -0.003315  -0.000232   0.000202  -0.000140   0.000020   0.000027
    27  F   -0.000003   0.000026   0.000003  -0.000000   0.000000   0.000000
    28  F   -0.000065   0.000074  -0.000004  -0.000002   0.000005  -0.000000
    29  F    0.000023   0.000328   0.000007  -0.000000   0.000005   0.000001
    30  O   -0.056235   0.415033  -0.152283  -0.012512   0.004352  -0.002271
    31  O    8.844226   0.406256  -0.087496  -0.042249  -0.018688  -0.023294
    32  C    0.406256   5.281973  -0.434867   0.100477  -0.062918  -0.067977
    33  C   -0.087496  -0.434867   5.795596   0.085526   0.489545   0.480608
    34  C   -0.042249   0.100477   0.085526   5.739377  -0.028542  -0.015627
    35  H   -0.018688  -0.062918   0.489545  -0.028542   0.389206   0.020016
    36  H   -0.023294  -0.067977   0.480608  -0.015627   0.020016   0.389240
    37  H   -0.001273  -0.006463   0.028111   0.373000  -0.003822   0.001866
    38  H   -0.006230   0.021831  -0.060357   0.449480  -0.006906  -0.009295
    39  H    0.006814  -0.022077   0.041004   0.319449   0.001341  -0.004579
              37         38         39
     1  C    0.000499   0.000988  -0.002142
     2  N    0.000310  -0.000552   0.001638
     3  C    0.000268  -0.000482  -0.000603
     4  O    0.000006   0.000007  -0.000077
     5  O   -0.000976   0.000084  -0.000559
     6  C   -0.000831   0.000099  -0.001576
     7  C    0.000201  -0.000055  -0.000151
     8  C    0.000104  -0.000017   0.000114
     9  C   -0.002224   0.000442   0.000798
    10  C    0.000401  -0.000235   0.000427
    11  C   -0.000088   0.000033  -0.000172
    12  C    0.000037   0.000010   0.000069
    13  C    0.000094  -0.000112   0.000354
    14  H   -0.002444   0.000119   0.000409
    15  H    0.000101  -0.000020  -0.000259
    16  H   -0.000141   0.000020   0.000219
    17  H    0.000080  -0.000293  -0.000267
    18  H   -0.000196   0.000159   0.000071
    19  H    0.000016  -0.000002  -0.000022
    20  H    0.000002   0.000005  -0.000075
    21  H   -0.000009  -0.000008   0.000077
    22  H    0.001860   0.000147   0.000973
    23  Cl   0.000017   0.000026  -0.000029
    24  C    0.000003   0.000004  -0.000011
    25  H    0.000001   0.000004  -0.000010
    26  H    0.000042  -0.000018   0.000015
    27  F   -0.000000  -0.000000   0.000000
    28  F    0.000001  -0.000001   0.000002
    29  F   -0.000000  -0.000000   0.000001
    30  O    0.002389  -0.003943   0.002859
    31  O   -0.001273  -0.006230   0.006814
    32  C   -0.006463   0.021831  -0.022077
    33  C    0.028111  -0.060357   0.041004
    34  C    0.373000   0.449480   0.319449
    35  H   -0.003822  -0.006906   0.001341
    36  H    0.001866  -0.009295  -0.004579
    37  H    0.335318  -0.007288   0.018902
    38  H   -0.007288   0.364860  -0.008407
    39  H    0.018902  -0.008407   0.314299
 Mulliken charges:
               1
     1  C    0.877826
     2  N   -0.158286
     3  C    0.277780
     4  O   -0.931987
     5  O   -0.243340
     6  C   -0.344803
     7  C   -0.493076
     8  C   -0.981358
     9  C   -1.520430
    10  C    1.028425
    11  C   -0.061483
    12  C   -0.580082
    13  C   -0.670960
    14  H    0.695240
    15  H    0.330404
    16  H    0.322392
    17  H    0.229675
    18  H    0.220229
    19  H    0.277079
    20  H    0.279368
    21  H    0.276215
    22  H    0.897252
    23  Cl  -0.499902
    24  C    1.224869
    25  H    0.367745
    26  H    0.456877
    27  F   -0.384412
    28  F   -0.414381
    29  F   -0.408237
    30  O   -0.960778
    31  O   -0.763166
    32  C    0.483522
    33  C   -0.169566
    34  C   -0.961052
    35  H    0.211947
    36  H    0.231246
    37  H    0.262124
    38  H    0.265905
    39  H    0.331180
 Sum of Mulliken charges =  -1.00000
 Mulliken charges with hydrogens summed into heavy atoms:
               1
     1  C    0.877826
     2  N    0.536954
     3  C    0.277780
     4  O   -0.931987
     5  O   -0.243340
     6  C    0.307993
     7  C   -0.043172
     8  C   -0.148696
     9  C   -0.623178
    10  C    1.028425
    11  C   -0.061483
    12  C   -0.212337
    13  C   -0.214083
    23  Cl  -0.499902
    24  C    1.224869
    27  F   -0.384412
    28  F   -0.414381
    29  F   -0.408237
    30  O   -0.960778
    31  O   -0.763166
    32  C    0.483522
    33  C    0.273627
    34  C   -0.101843
 Electronic spatial extent (au):  <R**2>=          11956.4209
 Charge=             -1.0000 electrons
 Dipole moment (field-independent basis, Debye):
    X=              1.6417    Y=             -5.2482    Z=              0.9704  Tot=              5.5839
 Quadrupole moment (field-independent basis, Debye-Ang):
   XX=           -184.8265   YY=           -177.4030   ZZ=           -147.7579
[...]
  1118. RY*(  17) O  31                  0.00000     2.07609   
  1119. RY*(  18) O  31                  0.00000     6.93521   
  1120. RY*(  19) O  31                  0.00000     4.58248   
  1121. RY*(  20) O  31                  0.00001     2.10771   
  1122. RY*(  21) O  31                  0.00000     5.66833   
  1123. RY*(  22) O  31                  0.00000     4.87842   
  1124. RY*(  23) O  31                  0.00000     3.22362   
  1125. RY*(  24) O  31                  0.00000     6.79488   
  1126. RY*(  25) O  31                  0.00000     8.83028   
  1127. RY*(  26) O  31                  0.00000     7.13660   
  1128. RY*(  27) O  31                  0.00000     7.06013   
  1129. RY*(  28) O  31                  0.00000     3.69217   
  1130. RY*(  29) O  31                  0.00000     1.73741   
  1131. RY*(  30) O  31                  0.00000     3.50023   
  1132. RY*(  31) O  31                  0.00000     5.91754   
  1133. RY*(  32) O  31                  0.00000     3.43251   
  1134. RY*(  33) O  31                  0.00000     6.58206   
  1135. RY*(  34) O  31                  0.00000     3.76236   
  1136. RY*(  35) O  31                  0.00000     6.27845   
  1137. RY*(  36) O  31                  0.00000     3.92874   
  1138. RY*(  37) O  31                  0.00000     6.39919   
  1139. RY*(  38) O  31                  0.00000     3.72852   
  1140. RY*(  39) O  31                  0.00000     6.51411   
  1141. RY*(  40) O  31                  0.00000     3.25138   
  1142. RY*(  41) O  31                  0.00000     6.61446   
  1143. RY*(   1) C  32                  0.01845     1.68258   
  1144. RY*(   2) C  32                  0.01013     1.67397   
  1145. RY*(   3) C  32                  0.00446     2.31330   
  1146. RY*(   4) C  32                  0.00228     3.05633   
  1147. RY*(   5) C  32                  0.00145     3.41438   
  1148. RY*(   6) C  32                  0.00097     1.74671   
  1149. RY*(   7) C  32                  0.00043     1.50624   
  1150. RY*(   8) C  32                  0.00034     2.35882   
  1151. RY*(   9) C  32                  0.00010     1.87844   
  1152. RY*(  10) C  32                  0.00008     1.19920   
  1153. RY*(  11) C  32                  0.00006     2.61400   
  1154. RY*(  12) C  32                  0.00003    -0.23145   
  1155. RY*(  13) C  32                  0.00003     1.85026   
  1156. RY*(  14) C  32                  0.00003     2.21033   
  1157. RY*(  15) C  32                  0.00000     3.81365   
  1158. RY*(  16) C  32                  0.00000     1.20279   
  1159. RY*(  17) C  32                  0.00000     3.63953   
  1160. RY*(  18) C  32                  0.00000     3.42690   
  1161. RY*(  19) C  32                  0.00000     1.53306   
  1162. RY*(  20) C  32                  0.00000     3.76575   
  1163. RY*(  21) C  32                  0.00000     3.37679   
  1164. RY*(  22) C  32                  0.00000     1.34934   
  1165. RY*(  23) C  32                  0.00001     2.74536   
  1166. RY*(  24) C  32                  0.00000     4.55344   
  1167. RY*(  25) C  32                  0.00001     2.53550   
  1168. RY*(  26) C  32                  0.00001     2.19807   
  1169. RY*(  27) C  32                  0.00000     2.33343   
  1170. RY*(  28) C  32                  0.00000     3.47465   
  1171. RY*(  29) C  32                  0.00000     3.60975   
  1172. RY*(  30) C  32                  0.00000     2.77297   
  1173. RY*(  31) C  32                  0.00000    -0.72770   
  1174. RY*(  32) C  32                  0.00000     3.46341   
  1175. RY*(  33) C  32                  0.00000     3.29687   
  1176. RY*(  34) C  32                  0.00000     3.08642   
  1177. RY*(  35) C  32                  0.00000     5.53651   
  1178. RY*(  36) C  32                  0.00000     3.82799   
  1179. RY*(  37) C  32                  0.00000     4.14280   
  1180. RY*(  38) C  32                  0.00000     4.53327   
  1181. RY*(  39) C  32                  0.00000     5.11922   
  1182. RY*(  40) C  32                  0.00000     4.19252   
  1183. RY*(  41) C  32                  0.00000     4.51918   
  1184. RY*(   1) C  33                  0.00296     1.87719   
  1185. RY*(   2) C  33                  0.00181     2.29492   
  1186. RY*(   3) C  33                  0.00182     1.77200   
  1187. RY*(   4) C  33                  0.00095     1.58411   
  1188. RY*(   5) C  33                  0.00046     1.47030   
  1189. RY*(   6) C  33                  0.00031     1.83020   
  1190. RY*(   7) C  33                  0.00027     1.40017   
  1191. RY*(   8) C  33                  0.00019     2.42761   
  1192. RY*(   9) C  33                  0.00010     1.98216   
  1193. RY*(  10) C  33                  0.00010     2.37284   
  1194. RY*(  11) C  33                  0.00000     2.53989   
  1195. RY*(  12) C  33                  0.00000     2.15498   
  1196. RY*(  13) C  33                  0.00001     0.85473   
  1197. RY*(  14) C  33                  0.00000     2.11908   
  1198. RY*(  15) C  33                  0.00000     1.56117   
  1199. RY*(  16) C  33                  0.00000     6.21921   
  1200. RY*(  17) C  33                  0.00000     3.33464   
  1201. RY*(  18) C  33                  0.00000     2.54365   
  1202. RY*(  19) C  33                  0.00001     2.49750   
  1203. RY*(  20) C  33                  0.00000     3.48812   
  1204. RY*(  21) C  33                  0.00000     3.33737   
  1205. RY*(  22) C  33                  0.00000     0.66963   
  1206. RY*(  23) C  33                  0.00001     3.77880   
  1207. RY*(  24) C  33                  0.00000     3.01753   
  1208. RY*(  25) C  33                  0.00000     1.09354   
  1209. RY*(  26) C  33                  0.00000     3.87728   
  1210. RY*(  27) C  33                  0.00000     3.58712   
  1211. RY*(  28) C  33                  0.00000     4.38348   
  1212. RY*(  29) C  33                  0.00000     3.26248   
  1213. RY*(  30) C  33                  0.00000     4.26497   
  1214. RY*(  31) C  33                  0.00000    -0.44033   
  1215. RY*(  32) C  33                  0.00000     4.24516   
  1216. RY*(  33) C  33                  0.00000     3.04843   
  1217. RY*(  34) C  33                  0.00000     4.27584   
  1218. RY*(  35) C  33                  0.00000     3.33570   
  1219. RY*(  36) C  33                  0.00000     4.97958   
  1220. RY*(  37) C  33                  0.00000     3.20513   
  1221. RY*(  38) C  33                  0.00000     4.28457   
  1222. RY*(  39) C  33                  0.00000     4.01580   
  1223. RY*(  40) C  33                  0.00000     3.98954   
  1224. RY*(  41) C  33                  0.00000     3.03414   
  1225. RY*(   1) C  34                  0.00191     2.89604   
  1226. RY*(   2) C  34                  0.00074     4.28300   
  1227. RY*(   3) C  34                  0.00034     2.75333   
  1228. RY*(   4) C  34                  0.00017     2.12588   
  1229. RY*(   5) C  34                  0.00010     2.16004   
  1230. RY*(   6) C  34                  0.00007     3.11684   
  1231. RY*(   7) C  34                  0.00004     0.33424   
  1232. RY*(   8) C  34                  0.00004     2.63125   
  1233. RY*(   9) C  34                  0.00003     3.85096   
  1234. RY*(  10) C  34                  0.00001     2.37002   
  1235. RY*(  11) C  34                  0.00000     0.94573   
  1236. RY*(  12) C  34                  0.00000     9.25332   
  1237. RY*(  13) C  34                  0.00000     1.97444   
  1238. RY*(  14) C  34                  0.00000     5.15205   
  1239. RY*(  15) C  34                  0.00000    11.52912   
  1240. RY*(  16) C  34                  0.00000     1.53197   
  1241. RY*(  17) C  34                  0.00000     3.94906   
  1242. RY*(  18) C  34                  0.00000     7.62296   
  1243. RY*(  19) C  34                  0.00000     5.72774   
  1244. RY*(  20) C  34                  0.00000     3.78091   
  1245. RY*(  21) C  34                  0.00000     2.30955   
  1246. RY*(  22) C  34                  0.00001     2.62914   
  1247. RY*(  23) C  34                  0.00000     5.84385   
  1248. RY*(  24) C  34                  0.00000    14.83124   
  1249. RY*(  25) C  34                  0.00000     1.51668   
  1250. RY*(  26) C  34                  0.00000     1.10252   
  1251. RY*(  27) C  34                  0.00000     3.46843   
  1252. RY*(  28) C  34                  0.00000     4.47369   
  1253. RY*(  29) C  34                  0.00000     5.28203   
  1254. RY*(  30) C  34                  0.00000     4.55329   
  1255. RY*(  31) C  34                  0.00000     4.30893   
  1256. RY*(  32) C  34                  0.00000     5.60739   
  1257. RY*(  33) C  34                  0.00000     2.20336   
  1258. RY*(  34) C  34                  0.00000     4.74265   
  1259. RY*(  35) C  34                  0.00000     3.05203   
  1260. RY*(  36) C  34                  0.00000     5.09068   
  1261. RY*(  37) C  34                  0.00000     4.09133   
  1262. RY*(  38) C  34                  0.00000     4.84497   
  1263. RY*(  39) C  34                  0.00000     4.75273   
  1264. RY*(  40) C  34                  0.00000     4.86192   
  1265. RY*(  41) C  34                  0.00000     5.82831   
  1266. RY*(   1) H  35                  0.00110     0.83054   
  1267. RY*(   2) H  35                  0.00036     1.05735   
  1268. RY*(   3) H  35                  0.00032     1.51029   
  1269. RY*(   4) H  35                  0.00015     2.80656   
  1270. RY*(   5) H  35                  0.00014     2.89711   
  1271. RY*(   6) H  35                  0.00009     2.22327   
  1272. RY*(   7) H  35                  0.00000     3.65052   
  1273. RY*(   8) H  35                  0.00000     4.96946   
  1274. RY*(   9) H  35                  0.00001     3.58590   
  1275. RY*(  10) H  35                  0.00001     3.27600   
  1276. RY*(  11) H  35                  0.00001    16.45979   
  1277. RY*(  12) H  35                  0.00000     2.57480   
  1278. RY*(  13) H  35                  0.00001     5.15774   
  1279. RY*(  14) H  35                  0.00000    16.90723   
  1280. RY*(  15) H  35                  0.00000     2.47483   
  1281. RY*(  16) H  35                  0.00000     3.91468   
  1282. RY*(  17) H  35                  0.00001     2.42731   
  1283. RY*(  18) H  35                  0.00000     4.29271   
  1284. RY*(  19) H  35                  0.00001     5.55139   
  1285. RY*(  20) H  35                  0.00000    18.75677   
  1286. RY*(  21) H  35                  0.00000     2.50284   
  1287. RY*(  22) H  35                  0.00000     5.05874   
  1288. RY*(   1) H  36                  0.00107     2.78714   
  1289. RY*(   2) H  36                  0.00038     1.08564   
  1290. RY*(   3) H  36                  0.00033     3.71355   
  1291. RY*(   4) H  36                  0.00014     2.00732   
  1292. RY*(   5) H  36                  0.00013     3.44323   
  1293. RY*(   6) H  36                  0.00009     2.74182   
  1294. RY*(   7) H  36                  0.00001    -0.35863   
  1295. RY*(   8) H  36                  0.00001     3.35337   
  1296. RY*(   9) H  36                  0.00001     1.43098   
  1297. RY*(  10) H  36                  0.00000     3.25867   
  1298. RY*(  11) H  36                  0.00001     4.82810   
  1299. RY*(  12) H  36                  0.00001     4.10623   
  1300. RY*(  13) H  36                  0.00001     3.54088   
  1301. RY*(  14) H  36                  0.00000     4.28278   
  1302. RY*(  15) H  36                  0.00000     3.92535   
  1303. RY*(  16) H  36                  0.00000     4.03828   
  1304. RY*(  17) H  36                  0.00001     2.27188   
  1305. RY*(  18) H  36                  0.00001     4.76716   
  1306. RY*(  19) H  36                  0.00001     1.51652   
  1307. RY*(  20) H  36                  0.00000     3.73316   
  1308. RY*(  21) H  36                  0.00000     2.53661   
  1309. RY*(  22) H  36                  0.00000     4.51704   
  1310. RY*(   1) H  37                  0.00095     0.76619   
  1311. RY*(   2) H  37                  0.00035     1.10630   
  1312. RY*(   3) H  37                  0.00022     1.91123   
  1313. RY*(   4) H  37                  0.00020     2.28720   
  1314. RY*(   5) H  37                  0.00010     1.85164   
  1315. RY*(   6) H  37                  0.00007     2.77747   
  1316. RY*(   7) H  37                  0.00003     2.53124   
  1317. RY*(   8) H  37                  0.00001     3.85789   
  1318. RY*(   9) H  37                  0.00001     2.45992   
  1319. RY*(  10) H  37                  0.00000     3.15045   
  1320. RY*(  11) H  37                  0.00000     5.01343   
  1321. RY*(  12) H  37                  0.00000     3.67405   
  1322. RY*(  13) H  37                  0.00001     2.39493   
  1323. RY*(  14) H  37                  0.00000     4.19038   
  1324. RY*(  15) H  37                  0.00001     2.02372   
  1325. RY*(  16) H  37                  0.00000     4.58192   
  1326. RY*(  17) H  37                  0.00000     2.53685   
  1327. RY*(  18) H  37                  0.00000     5.09913   
  1328. RY*(  19) H  37                  0.00001    -0.93179   
  1329. RY*(  20) H  37                  0.00000     3.80810   
  1330. RY*(  21) H  37                  0.00000     2.34255   
  1331. RY*(  22) H  37                  0.00000     4.71031   
  1332. RY*(   1) H  38                  0.00096     0.79836   
  1333. RY*(   2) H  38                  0.00032    -2.81553   
  1334. RY*(   3) H  38                  0.00017    -6.77085   
  1335. RY*(   4) H  38                  0.00014     2.29495   
  1336. RY*(   5) H  38                  0.00007    -0.31708   
  1337. RY*(   6) H  38                  0.00004     1.49857   
  1338. RY*(   7) H  38                  0.00001   -41.87104   
  1339. RY*(   8) H  38                  0.00001     3.75890   
  1340. RY*(   9) H  38                  0.00000     3.73531   
  1341. RY*(  10) H  38                  0.00001    -3.85297   
  1342. RY*(  11) H  38                  0.00000     3.60378   
  1343. RY*(  12) H  38                  0.00000     3.53309   
  1344. RY*(  13) H  38                  0.00001     2.26042   
  1345. RY*(  14) H  38                  0.00000     4.77234   
  1346. RY*(  15) H  38                  0.00000     1.81213   
  1347. RY*(  16) H  38                  0.00000     3.86191   
  1348. RY*(  17) H  38                  0.00000     0.16570   
  1349. RY*(  18) H  38                  0.00000     4.51617   
  1350. RY*(  19) H  38                  0.00000     2.07806   
  1351. RY*(  20) H  38                  0.00000     3.48380   
  1352. RY*(  21) H  38                  0.00000     3.02612   
  1353. RY*(  22) H  38                  0.00000     4.05705   
  1354. RY*(   1) H  39                  0.00092     0.04915   
  1355. RY*(   2) H  39                  0.00037     0.53882   
  1356. RY*(   3) H  39                  0.00022     2.86728   
  1357. RY*(   4) H  39                  0.00020   -54.73861   
  1358. RY*(   5) H  39                  0.00007    -3.45465   
  1359. RY*(   6) H  39                  0.00008   -33.99217   
  1360. RY*(   7) H  39                  0.00003   -16.08332   
  1361. RY*(   8) H  39                  0.00001     6.72038   
  1362. RY*(   9) H  39                  0.00000   -55.79527   
  1363. RY*(  10) H  39                  0.00001   -29.26048   
  1364. RY*(  11) H  39                  0.00000   -22.67977   
  1365. RY*(  12) H  39                  0.00000   -11.12176   
  1366. RY*(  13) H  39                  0.00000   -71.28481   
  1367. RY*(  14) H  39                  0.00000   -20.66356   
  1368. RY*(  15) H  39                  0.00001   -21.54545   
  1369. RY*(  16) H  39                  0.00000     0.18763   
  1370. RY*(  17) H  39                  0.00000    -0.74792   
  1371. RY*(  18) H  39                  0.00000   -11.48553   
  1372. RY*(  19) H  39                  0.00001    -0.06703   
  1373. RY*(  20) H  39                  0.00000   -18.82770   
  1374. RY*(  21) H  39                  0.00001    -4.56719   
  1375. RY*(  22) H  39                  0.00000   -61.21342   
  1409. BD*(   1) O  30 - C  32          0.03928     3.83752   
  1410. BD*(   1) O  31 - C  32          0.05212     0.11424   
  1411. BD*(   1) C  32 - C  33          0.08181     5.97557   
  1412. BD*(   1) C  33 - C  34          0.00682    -6.05079   
  1413. BD*(   1) C  33 - H  35          0.01142     4.81335   
  1414. BD*(   1) C  33 - H  36          0.01138     1.68121   
  1415. BD*(   1) C  34 - H  37          0.00774     7.72008   
  1416. BD*(   1) C  34 - H  38          0.00767     3.09034   
  1417. BD*(   1) C  34 - H  39          0.00781     7.57149   
       -------------------------------
              Total Lewis   38.92328  ( 97.5586%)
        Valence non-Lewis    0.90425  (  2.2664%)
        Rydberg non-Lewis    0.06979  (  0.1749%)
       -------------------------------
            Total unit  2   39.89732  (100.0000%)
           Charge unit  2   -0.89732
 Unable to Open any file for archive entry.
 1\1\GINC-GADI-HMEM-CLX-0044\SP\RDSDPBEP86-FC\Aug-CC-pVTZ\C14H16Cl1F3N1
 O4(1-)\HIO507\28-Apr-2021\0\\# DSDPBEP86/AUG-cc-PVTZ SCF=Tight INT(gri
 d=ultrafine) Pop=NBO MaxDisk=1400000MB\\CP19CA_carboxy_c2.DSDPBEP86_AU
 G-cc-PVTZ\\-1,1\C,0,-6.3451388455,1.2017317707,0.1658539714\N,0,-5.108
 6033275,0.5926919303,0.3338365819\C,0,-3.906874476,1.1823862781,0.1153
 963629\O,0,-3.6832245843,2.3229263298,-0.2393466398\O,0,-2.9188859957,
 0.2942562563,0.3615932\C,0,-1.5968781494,0.769979621,0.1594008242\C,0,
 -0.6554585822,-0.3713665411,0.488427669\C,0,0.8017190831,0.0370326043,
 0.2934731963\C,0,-7.4661901897,0.4666018469,0.5952612993\C,0,-8.729896
 5729,0.9962195733,0.4376568816\C,0,-8.9359129476,2.2572785538,-0.13545
 92923\C,0,-7.8165050802,2.9745626013,-0.5444106206\C,0,-6.5328673799,2
 .4692649148,-0.4037646266\H,0,-5.0996842666,-0.4400791554,0.5968405043
 \H,0,-1.4142235593,1.6378982769,0.8010184031\H,0,-1.4785154309,1.09967
 43583,-0.8778645473\H,0,-0.9063641106,-1.2261576756,-0.1448763136\H,0,
 -0.8330418074,-0.6860341658,1.5201077344\H,0,0.9947661773,0.3357642199
 ,-0.7406712505\H,0,1.4794259452,-0.7848634673,0.5324306825\H,0,1.06613
 07014,0.8821381813,0.9352735298\H,0,-7.3299400035,-0.5035303917,1.0769
 475499\Cl,0,-10.0867621525,0.0450319269,0.9890499539\C,0,-10.302605705
 8,2.8388804782,-0.3108882346\H,0,-7.9514019659,3.9532316345,-0.9882243
 745\H,0,-5.6821865916,3.0474552884,-0.7281720855\F,0,-10.2564717407,4.
 0567744893,-0.8888532398\F,0,-11.0998384667,2.0880717785,-1.0929836547
 \F,0,-10.9602061024,3.0055339156,0.8512400199\O,0,-6.8251548256,-2.211
 8457283,2.145936821\O,0,-5.027823487,-2.0242685582,0.8199716388\C,0,-5
 .8083260958,-2.6558717041,1.5874878768\C,0,-5.4618250689,-4.134613233,
 1.8493211865\C,0,-4.1665943505,-4.6066304175,1.2020487875\H,0,-6.31390
 509,-4.7275030084,1.5008309573\H,0,-5.434434296,-4.2692580812,2.935149
 8765\H,0,-4.2078390536,-4.4765834507,0.1195265254\H,0,-3.9698336139,-5
 .6615656165,1.4205318131\H,0,-3.3203379909,-4.0147556337,1.5559610322\
 \Version=ES64L-G16RevC.01\State=1-A\HF=-1654.6540796\MP2=-1656.8729523
 \RMSD=3.682e-09\PG=C01 [X(C14H16Cl1F3N1O4)]\\@
 The archive entry for this job was punched.


 ON A TOMBSTONE, "HERE LIES LESTER MOORE,
 FOUR SLUGS FROM A 44, NO LES, NO MORE".
 Job cpu time:       6 days 15 hours 41 minutes 25.7 seconds.
 Elapsed time:       0 days  5 hours  1 minutes 49.1 seconds.
 File lengths (MBytes):  RWF=   1053 Int=      0 D2E=      0 Chk=    134 Scr=      1
 Normal termination of Gaussian 16 at Wed Apr 28 17:10:58 2021.
