 Entering Gaussian System, Link 0=/apps/gaussian/g16c01/g16/g16
 Initial command:
 /apps/gaussian/g16c01/g16/l1.exe "/jobfs/21661252.gadi-pbs/Gau-678581.inp" -scrdir="/jobfs/21661252.gadi-pbs/"
 Entering Link 1 = /apps/gaussian/g16c01/g16/l1.exe PID=    678582.
  
 Copyright (c) 1988-2019, Gaussian, Inc.  All Rights Reserved.
  
 This is part of the Gaussian(R) 16 program.  It is based on
 the Gaussian(R) 09 system (copyright 2009, Gaussian, Inc.),
 the Gaussian(R) 03 system (copyright 2003, Gaussian, Inc.),
 the Gaussian(R) 98 system (copyright 1998, Gaussian, Inc.),
 the Gaussian(R) 94 system (copyright 1995, Gaussian, Inc.),
 the Gaussian 92(TM) system (copyright 1992, Gaussian, Inc.),
 the Gaussian 90(TM) system (copyright 1990, Gaussian, Inc.),
 the Gaussian 88(TM) system (copyright 1988, Gaussian, Inc.),
 the Gaussian 86(TM) system (copyright 1986, Carnegie Mellon
 University), and the Gaussian 82(TM) system (copyright 1983,
 Carnegie Mellon University). Gaussian is a federally registered
 trademark of Gaussian, Inc.
  
 This software contains proprietary and confidential information,
 including trade secrets, belonging to Gaussian, Inc.
  
 This software is provided under written license and may be
 used, copied, transmitted, or stored only in accord with that
 written license.
  
 The following legend is applicable only to US Government
 contracts under FAR:
  
                    RESTRICTED RIGHTS LEGEND
  
 Use, reproduction and disclosure by the US Government is
 subject to restrictions as set forth in subparagraphs (a)
 and (c) of the Commercial Computer Software - Restricted
 Rights clause in FAR 52.227-19.
  
 Gaussian, Inc.
 340 Quinnipiac St., Bldg. 40, Wallingford CT 06492
  
  
 ---------------------------------------------------------------
 Warning -- This program may not be used in any manner that
 competes with the business of Gaussian, Inc. or will provide
 assistance to any competitor of Gaussian, Inc.  The licensee
 of this program is prohibited from giving any competitor of
 Gaussian, Inc. access to this program.  By using this program,
 the user acknowledges that Gaussian, Inc. is engaged in the
 business of creating and licensing software in the field of
 computational chemistry and represents and warrants to the
 licensee that it is not a competitor of Gaussian, Inc. and that
 it will not use this program in any manner prohibited above.
 ---------------------------------------------------------------
  

 Cite this work as:
 Gaussian 16, Revision C.01,
 M. J. Frisch, G. W. Trucks, H. B. Schlegel, G. E. Scuseria, 
 M. A. Robb, J. R. Cheeseman, G. Scalmani, V. Barone, 
 G. A. Petersson, H. Nakatsuji, X. Li, M. Caricato, A. V. Marenich, 
 J. Bloino, B. G. Janesko, R. Gomperts, B. Mennucci, H. P. Hratchian, 
 J. V. Ortiz, A. F. Izmaylov, J. L. Sonnenberg, D. Williams-Young, 
 F. Ding, F. Lipparini, F. Egidi, J. Goings, B. Peng, A. Petrone, 
 T. Henderson, D. Ranasinghe, V. G. Zakrzewski, J. Gao, N. Rega, 
 G. Zheng, W. Liang, M. Hada, M. Ehara, K. Toyota, R. Fukuda, 
 J. Hasegawa, M. Ishida, T. Nakajima, Y. Honda, O. Kitao, H. Nakai, 
 T. Vreven, K. Throssell, J. A. Montgomery, Jr., J. E. Peralta, 
 F. Ogliaro, M. J. Bearpark, J. J. Heyd, E. N. Brothers, K. N. Kudin, 
 V. N. Staroverov, T. A. Keith, R. Kobayashi, J. Normand, 
 K. Raghavachari, A. P. Rendell, J. C. Burant, S. S. Iyengar, 
 J. Tomasi, M. Cossi, J. M. Millam, M. Klene, C. Adamo, R. Cammi, 
 J. W. Ochterski, R. L. Martin, K. Morokuma, O. Farkas, 
 J. B. Foresman, and D. J. Fox, Gaussian, Inc., Wallingford CT, 2019.
 
 ******************************************
 Gaussian 16:  ES64L-G16RevC.01  3-Jul-2019
                28-Apr-2021 
 ******************************************
 %NprocShared=32
 Will use up to   32 processors via shared memory.
 %Mem=1194000MB
 %chk=CP19CA_carboxy.DSDPBEP86_AUG-cc-PVTZ.chk
 ----------------------------------------------------------------------
 # DSDPBEP86/AUG-cc-PVTZ SCF=Tight INT(grid=ultrafine) Pop=NBO MaxDisk=
 1400000MB
 ----------------------------------------------------------------------
 1/38=1,172=1/1;
 2/12=2,17=6,18=5,40=1/2;
 3/5=16,6=1,7=10,11=9,25=1,30=1,74=-77,75=-5/1,2,3;
 4//1;
 5/5=2,32=2,38=5/2;
 8/10=1/1;
 9/16=-3/6;
 6/7=2,8=2,9=2,10=2,40=1/1,7;
 99/5=1,9=1/99;
 ------------------------------------
 CP19CA_carboxy.DSDPBEP86_AUG-cc-PVTZ
 ------------------------------------
 Symbolic Z-matrix:
 Charge = -1 Multiplicity = 1
 C                    -7.00196   0.62868  -0.01125 
 N                    -5.73561   0.12777   0.26536 
 C                    -4.56132   0.69345  -0.10832 
 O                    -4.39785   1.7197   -0.73873 
 O                    -3.53348  -0.06384   0.33567 
 C                    -2.23173   0.37654  -0.02771 
 C                    -7.23959   1.81587  -0.72138 
 C                    -8.5443    2.22463  -0.94207 
 C                    -9.63806   1.49558  -0.48099 
 C                    -9.38098   0.31681   0.2243 
 C                    -8.09244  -0.11997   0.46152 
 H                    -5.69017  -0.78196   0.80426 
 H                    -6.41932   2.40874  -1.09424 
 Cl                   -8.77791   3.71342  -1.8361 
 C                    -11.04624   1.93985  -0.72008 
 H                    -10.21029  -0.27233   0.59568 
 H                    -7.92363  -1.04435   1.01497 
 F                    -11.93782   1.08394  -0.19032 
 F                    -11.31689   3.14426  -0.18043 
 F                    -11.35262   2.03762  -2.0283 
 O                    -7.67887  -2.82291   2.06295 
 O                    -5.57252  -2.19124   1.61142 
 C                    -6.44466  -2.96829   2.09082 
 C                    -5.91719  -4.2381    2.79008 
 H                    -6.3064   -4.22277   3.81334 
 H                    -6.39902  -5.09335   2.30549 
 C                    -4.40143  -4.38431   2.78255 
 H                    -4.0213   -4.40771   1.7598 
 H                    -3.92966  -3.53027   3.27121 
 H                    -4.08391  -5.29929   3.29386 
 C                    -1.87114  -0.03458  -1.44631 
 H                    -1.99091  -1.11797  -1.53606 
 H                    -2.57847   0.43183  -2.1359 
 H                    -1.56676  -0.102     0.69401 
 H                    -2.16263   1.461     0.08827 
 C                    -0.44305   0.37792  -1.79126 
 H                    -0.17608   0.07711  -2.80624 
 H                    -0.32018   1.46232  -1.72431 
 H                     0.2786   -0.08101  -1.10906 
 
                          Input orientation:                          
 ---------------------------------------------------------------------
 Center     Atomic      Atomic             Coordinates (Angstroms)
 Number     Number       Type             X           Y           Z
 ---------------------------------------------------------------------
      1          6           0       -7.001962    0.628675   -0.011255
      2          7           0       -5.735612    0.127770    0.265361
      3          6           0       -4.561318    0.693450   -0.108323
      4          8           0       -4.397846    1.719703   -0.738726
      5          8           0       -3.533476   -0.063837    0.335674
      6          6           0       -2.231732    0.376545   -0.027708
      7          6           0       -7.239589    1.815874   -0.721378
      8          6           0       -8.544300    2.224633   -0.942074
      9          6           0       -9.638056    1.495576   -0.480986
     10          6           0       -9.380981    0.316809    0.224303
     11          6           0       -8.092443   -0.119968    0.461517
     12          1           0       -5.690171   -0.781963    0.804261
     13          1           0       -6.419325    2.408737   -1.094240
     14         17           0       -8.777906    3.713418   -1.836100
     15          6           0      -11.046237    1.939854   -0.720078
     16          1           0      -10.210293   -0.272326    0.595684
     17          1           0       -7.923631   -1.044348    1.014968
     18          9           0      -11.937824    1.083935   -0.190324
     19          9           0      -11.316888    3.144255   -0.180431
     20          9           0      -11.352623    2.037623   -2.028302
     21          8           0       -7.678868   -2.822906    2.062954
     22          8           0       -5.572515   -2.191239    1.611423
     23          6           0       -6.444664   -2.968286    2.090818
     24          6           0       -5.917195   -4.238102    2.790081
     25          1           0       -6.306399   -4.222766    3.813344
     26          1           0       -6.399024   -5.093351    2.305492
     27          6           0       -4.401429   -4.384315    2.782552
     28          1           0       -4.021302   -4.407710    1.759805
     29          1           0       -3.929661   -3.530274    3.271205
     30          1           0       -4.083911   -5.299285    3.293859
     31          6           0       -1.871140   -0.034577   -1.446306
     32          1           0       -1.990910   -1.117973   -1.536064
     33          1           0       -2.578471    0.431828   -2.135895
     34          1           0       -1.566755   -0.102002    0.694007
     35          1           0       -2.162634    1.461003    0.088268
     36          6           0       -0.443053    0.377915   -1.791257
     37          1           0       -0.176079    0.077112   -2.806245
     38          1           0       -0.320177    1.462322   -1.724312
     39          1           0        0.278598   -0.081008   -1.109063
 ---------------------------------------------------------------------
                    Distance matrix (angstroms):
                    1          2          3          4          5
     1  C    0.000000
     2  N    1.389627   0.000000
     3  C    2.443432   1.355949   0.000000
     4  O    2.915643   2.309125   1.215453   0.000000
     5  O    3.553917   2.211574   1.351694   2.254437   0.000000
     6  C    4.776916   3.524904   2.352424   2.646067   1.421449
     7  C    1.403632   2.466839   2.967963   2.843423   4.287884
     8  C    2.406723   3.707218   4.347851   4.182031   5.654918
     9  C    2.814455   4.202022   5.153207   5.251329   6.353314
    10  C    2.410908   3.650498   4.845786   5.265659   5.860939
    11  C    1.404681   2.377921   3.668134   4.298258   4.561050
    12  H    2.091832   1.058344   2.069773   3.210802   2.320908
    13  H    2.163549   2.742041   2.714117   2.165072   4.060345
    14  Cl   3.999960   5.150589   5.466720   4.935996   6.818233
    15  C    4.310195   5.697146   6.631888   6.652061   7.846717
    16  H    3.387265   4.504660   5.774016   6.287557   6.685130
    17  H    2.168320   2.592913   3.948021   4.811089   4.549319
    18  F    4.960047   6.292006   7.387289   7.586582   8.498655
    19  F    4.997535   6.359918   7.186750   7.086197   8.434437
    20  F    4.998186   6.360758   7.184354   7.080466   8.434665
    21  O    4.083376   3.964098   5.176710   6.264968   5.270696
    22  O    3.553634   2.686315   3.507346   4.711530   3.211084
    23  C    4.203263   3.663415   4.668139   5.845770   4.471171
    24  C    5.719241   5.046585   5.878720   7.089171   5.397288
    25  H    6.216739   5.642795   6.526404   7.725080   6.089334
    26  H    6.202615   5.644675   6.533815   7.725910   6.114537
    27  C    6.300651   5.336217   5.845205   7.046875   5.040544
    28  H    6.114422   5.073736   5.459245   6.627944   4.597321
    29  H    6.124576   5.067331   5.446104   6.622764   4.559659
    30  H    7.387795   6.430618   6.907651   8.101019   6.038523
    31  C    5.368856   4.229694   3.091486   3.156329   2.437144
    32  H    5.521455   4.338180   3.453505   3.805456   2.644639
    33  H    4.911223   3.978193   2.848013   2.630747   2.695621
    34  H    5.529263   4.197130   3.200607   3.658744   1.999462
    35  H    4.911392   3.817728   2.526158   2.397294   2.065322
    36  C    6.800778   5.683611   4.460038   4.306809   3.777525
    37  H    7.396545   6.351830   5.185459   4.979564   4.600395
    38  H    6.948077   5.921720   4.603245   4.202976   4.110716
    39  H    7.396985   6.172791   5.002605   5.024822   4.076698
                    6          7          8          9         10
     6  C    0.000000
     7  C    5.256565   0.000000
     8  C    6.640784   1.384941   0.000000
     9  C    7.504086   2.431670   1.392993   0.000000
    10  C    7.153938   2.779760   2.387522   1.397501   0.000000
    11  C    5.902017   2.423651   2.769729   2.426357   1.381077
    12  H    3.741004   3.387776   4.498373   4.735487   3.894320
    13  H    4.775273   1.078585   2.138356   3.401495   3.858254
    14  Cl   7.566862   2.685088   1.752237   2.737702   4.018197
    15  C    8.978797   3.808666   2.527859   1.495835   2.509822
    16  H    8.029139   3.862682   3.372690   2.147592   1.082942
    17  H    5.958508   3.415213   3.860244   3.410035   2.145173
    18  F    9.733194   4.784471   3.658186   2.354330   2.701453
    19  F    9.498611   4.322221   3.018783   2.372121   3.450507
    20  F    9.484313   4.321374   3.016876   2.372287   3.452941
    21  O    6.654220   5.428052   5.937746   5.381388   4.016919
    22  O    4.521183   4.927276   5.903540   5.873619   4.766426
    23  C    5.781422   5.606116   6.369719   6.061187   4.785153
    24  C    6.543511   7.122478   7.911865   7.577582   6.271224
    25  H    7.246396   7.609186   8.318122   7.889273   6.553015
    26  H    7.261536   7.589854   8.288655   7.853009   6.518685
    27  C    5.938933   7.666487   8.643751   8.523266   7.310345
    28  H    5.411733   7.432808   8.470280   8.450908   7.307872
    29  H    5.387859   7.448331   8.495032   8.480794   7.334886
    30  H    6.832161   8.758192   9.718413   9.553435   8.307926
    31  C    1.520351   5.724503   7.063239   7.974848   7.701436
    32  H    2.136987   6.067933   7.380567   8.150010   7.731147
    33  H    2.137226   5.063839   6.342750   7.328575   7.201243
    34  H    1.091822   6.153260   7.534993   8.311363   7.839524
    35  H    1.092829   5.153342   6.509255   7.497145   7.309734
    36  C    2.511868   7.028889   8.352346   9.354895   9.162574
    37  H    3.469242   7.567241   8.838219   9.846211   9.693910
    38  H    2.776944   7.000653   8.296337   9.400523   9.338493
    39  H    2.771361   7.763478   9.120712  10.060821   9.759282
                   11         12         13         14         15
    11  C    0.000000
    12  H    2.515278   0.000000
    13  H    3.407940   3.783721   0.000000
    14  Cl   4.521477   6.059213   2.795613   0.000000
    15  C    3.789977   6.198334   4.665636   3.088099   0.000000
    16  H    2.127557   4.553541   4.941192   4.883795   2.706247
    17  H    1.090543   2.258670   4.316885   5.612015   4.654730
    18  F    4.081817   6.595752   5.746825   4.428074   1.344680
    19  F    4.632958   6.931433   5.036086   3.084091   1.347240
    20  F    4.634994   6.930862   5.034643   3.078051   1.347175
    21  O    3.168836   3.115233   6.238944   7.689866   6.462842
    22  O    3.458683   1.628316   5.403469   7.551485   7.243166
    23  C    3.671882   2.646601   6.249609   8.093817   7.291464
    24  C    5.207009   3.992482   7.714957   9.633893   8.763300
    25  H    5.590854   4.612314   8.250695  10.050252   8.999770
    26  H    5.567985   4.619982   8.236499  10.018535   8.956374
    27  C    6.098807   4.307137   8.077560  10.298484   9.819216
    28  H    6.053468   4.104172   7.769172  10.075144   9.787292
    29  H    6.070691   4.091261   7.779935  10.102530   9.823355
    30  H    7.135532   5.402256   9.171869  11.383272  10.816229
    31  C    6.507819   4.495402   5.174913   7.867835   9.413192
    32  H    6.497312   4.390280   5.678359   8.336407   9.592449
    33  H    6.120043   4.449773   4.443577   7.020805   8.716750
    34  H    6.529853   4.180557   5.748832   8.541637   9.799458
    35  H    6.148287   4.241115   4.518401   7.248338   8.933148
    36  C    7.989747   5.967770   6.350268   8.977604  10.771007
    37  H    8.566560   6.646727   6.880811   9.389107  11.224181
    38  H    8.227370   6.345654   6.204216   8.752892  10.783547
    39  H    8.517193   6.307008   7.145713   9.846142  11.510303
                   16         17         18         19         20
    16  H    0.000000
    17  H    2.449620   0.000000
    18  F    2.332727   4.700645   0.000000
    19  F    3.674226   5.521555   2.151878   0.000000
    20  F    3.677783   5.524312   2.151777   2.154192   0.000000
    21  O    3.881553   2.078811   6.203175   7.339958   7.338910
    22  O    5.120834   2.683070   7.381749   8.042143   8.033711
    23  C    4.866579   2.654494   7.197146   8.140044   8.131073
    24  C    6.242872   4.168558   8.570582   9.616643   9.599240
    25  H    6.418699   4.533066   8.712254   9.763618   9.938897
    26  H    6.378989   4.514899   8.664079   9.910770   9.704159
    27  C    7.445385   5.165815   9.774304  10.643412  10.616247
    28  H    7.533935   5.205301   9.830182  10.678121  10.470928
    29  H    7.564323   5.217493   9.869336  10.537280  10.685814
    30  H    8.371560   6.167762  10.703690  11.648177  11.618511
    31  C    8.588814   6.611366  10.206209  10.046372   9.722718
    32  H    8.533330   6.458356  10.276212  10.343027   9.891499
    33  H    8.136465   6.377913   9.581648   9.356337   8.920532
    34  H    8.645774   6.434353  10.476047  10.313483  10.380374
    35  H    8.247831   6.350169   9.786427   9.311601   9.448188
    36  C   10.075678   8.115220  11.627176  11.335242  11.037642
    37  H   10.600976   8.711137  12.091129  11.849891  11.373827
    38  H   10.305618   8.461652  11.724590  11.231212  11.051617
    39  H   10.628245   8.527373  12.306183  12.071453  11.858284
                   21         22         23         24         25
    21  O    0.000000
    22  O    2.244907   0.000000
    23  C    1.243050   1.262642   0.000000
    24  C    2.373813   2.386982   1.542603   0.000000
    25  H    2.628144   3.084500   2.135399   1.094889   0.000000
    26  H    2.617584   3.096305   2.136368   1.094731   1.743592
    27  C    3.701004   2.748194   2.580396   1.522820   2.171990
    28  H    3.997661   2.709432   2.837991   2.164403   3.077807
    29  H    4.002099   2.692000   2.834499   2.163976   2.534235
    30  H    4.535559   3.834904   3.529025   2.177345   2.523531
    31  C    7.336171   5.263182   6.483442   7.210212   8.054587
    32  H    6.943529   4.887379   6.034389   6.623174   7.541840
    33  H    7.364624   5.466916   6.661331   7.564427   8.423546
    34  H    6.829001   4.610062   5.827577   6.358236   7.012501
    35  H    7.258106   5.223616   6.478008   7.340049   7.959410
    36  C    8.800979   6.670095   7.892205   8.500735   9.325055
    37  H    9.402716   7.333671   8.517678   9.104963   9.994435
    38  H    9.319705   7.215448   8.467281   9.176120   9.940861
    39  H    8.994497   6.788936   7.986104   8.418587   9.205783
                   26         27         28         29         30
    26  H    0.000000
    27  C    2.172718   0.000000
    28  H    2.534055   1.091355   0.000000
    29  H    3.077916   1.091207   1.750035   0.000000
    30  H    2.525673   1.095182   1.775429   1.775869   0.000000
    31  C    7.756863   6.573114   5.833236   6.221923   7.421771
    32  H    7.070548   5.927059   5.080119   5.717323   6.722513
    33  H    8.052959   7.121063   6.378038   6.838179   8.037054
    34  H    7.131708   5.543969   5.069501   4.896766   6.333013
    35  H    8.113116   6.814625   6.378909   6.177889   7.724547
    36  C    9.065964   7.698526   6.950980   7.284154   8.446589
    37  H    9.570193   8.306176   7.466471   8.002375   9.021534
    38  H    9.806556   8.435141   7.764965   7.931556   9.223181
    39  H    9.020721   7.454245   6.740912   6.985243   8.102323
                   31         32         33         34         35
    31  C    0.000000
    32  H    1.093686   0.000000
    33  H    1.092421   1.762643   0.000000
    34  H    2.162901   2.487030   3.052359   0.000000
    35  H    2.162555   3.052714   2.485765   1.779038   0.000000
    36  C    1.525966   2.167641   2.163722   2.769399   2.768150
    37  H    2.176037   2.516983   2.519262   3.770654   3.773560
    38  H    2.173356   3.079725   2.516190   3.138365   2.584588
    39  H    2.176525   2.531460   3.078998   2.580084   3.125861
                   36         37         38         39
    36  C    0.000000
    37  H    1.091768   0.000000
    38  H    1.093397   1.763561   0.000000
    39  H    1.093974   1.764131   1.766049   0.000000
 Stoichiometry    C14H16ClF3NO4(1-)
 Framework group  C1[X(C14H16ClF3NO4)]
 Deg. of freedom   111
 Full point group                 C1      NOp   1
 Largest Abelian subgroup         C1      NOp   1
 Largest concise Abelian subgroup C1      NOp   1
                         Standard orientation:                         
 ---------------------------------------------------------------------
 Center     Atomic      Atomic             Coordinates (Angstroms)
 Number     Number       Type             X           Y           Z
 ---------------------------------------------------------------------
      1          6           0       -0.256001   -0.123406   -0.155508
      2          7           0        1.125749   -0.235410   -0.251871
      3          6           0        1.818859   -1.393009   -0.386632
      4          8           0        1.374582   -2.522680   -0.448176
      5          8           0        3.141533   -1.122558   -0.453467
      6          6           0        4.004716   -2.248417   -0.542214
      7          6           0       -1.137514   -1.215016   -0.194322
      8          6           0       -2.500095   -0.990561   -0.089192
      9          6           0       -3.032209    0.288801    0.054043
     10          6           0       -2.138539    1.362612    0.090020
     11          6           0       -0.774140    1.174259   -0.011534
     12          1           0        1.681427    0.663957   -0.202338
     13          1           0       -0.764568   -2.221033   -0.304713
     14         17           0       -3.550197   -2.392277   -0.142239
     15          6           0       -4.504436    0.528415    0.166544
     16          1           0       -2.521334    2.369588    0.200607
     17          1           0       -0.101773    2.032284    0.020078
     18          9           0       -4.789958    1.835646    0.299921
     19          9           0       -5.190745    0.103255   -0.912008
     20          9           0       -5.058248   -0.086229    1.229740
     21          8           0        1.119160    3.712684    0.103916
     22          8           0        2.578206    2.019801   -0.108066
     23          6           0        2.264164    3.235895    0.021384
     24          6           0        3.433520    4.240170    0.081887
     25          1           0        3.277815    4.959004   -0.729172
     26          1           0        3.315907    4.812239    1.007814
     27          6           0        4.817199    3.609889   -0.002722
     28          1           0        4.968791    2.901322    0.813371
     29          1           0        4.927369    3.045655   -0.930210
     30          1           0        5.606766    4.367535    0.041778
     31          6           0        4.243292   -2.886621    0.816919
     32          1           0        4.618151   -2.119845    1.500794
     33          1           0        3.286881   -3.238110    1.210771
     34          1           0        4.935807   -1.851059   -0.951179
     35          1           0        3.590168   -2.977683   -1.242639
     36          6           0        5.232527   -4.043942    0.713991
     37          1           0        5.414072   -4.500235    1.689078
     38          1           0        4.855675   -4.825011    0.048084
     39          1           0        6.196596   -3.708481    0.320523
 ---------------------------------------------------------------------
 Rotational constants (GHZ):           0.2664077           0.1169637           0.0836435
 Standard basis: Aug-CC-pVTZ (5D, 7F)
 There are  1669 symmetry adapted cartesian basis functions of A   symmetry.
 There are  1430 symmetry adapted basis functions of A   symmetry.
  1430 basis functions,  2130 primitive gaussians,  1669 cartesian basis functions
    92 alpha electrons       92 beta electrons
       nuclear repulsion energy      2104.8758332877 Hartrees.
 NAtoms=   39 NActive=   39 NUniq=   39 SFac= 1.00D+00 NAtFMM=   60 NAOKFM=F Big=F
 Integral buffers will be    131072 words long.
 Regular integral format.
 Two-electron integral symmetry is turned on.
 Nuclear repulsion after empirical dispersion term =     2104.8473965865 Hartrees.
 One-electron integrals computed using PRISM.
 NBasis=  1430 RedAO= T EigKep=  1.05D-06  NBF=  1430
 NBsUse=  1426 1.00D-06 EigRej=  7.29D-07 NBFU=  1426
 ExpMin= 2.53D-02 ExpMax= 4.56D+05 ExpMxC= 1.44D+03 IAcc=3 IRadAn=         5 AccDes= 0.00D+00
 Harris functional with IExCor= 1004 and IRadAn=       5 diagonalized for initial guess.
 HarFok:  IExCor= 1004 AccDes= 0.00D+00 IRadAn=         5 IDoV= 1 UseB2=F ITyADJ=14
 ICtDFT=  3500011 ScaDFX=  1.000000  1.000000  1.000000  1.000000
 FoFCou: FMM=F IPFlag=           0 FMFlag=      100000 FMFlg1=           0
         NFxFlg=           0 DoJE=T BraDBF=F KetDBF=T FulRan=T
         wScrn=  0.000000 ICntrl=       500 IOpCl=  0 I1Cent=   200000004 NGrid=           0
         NMat0=    1 NMatS0=      1 NMatT0=    0 NMatD0=    1 NMtDS0=    0 NMtDT0=    0
 Petite list used in FoFCou.
 Requested convergence on RMS density matrix=1.00D-08 within 128 cycles.
 Requested convergence on MAX density matrix=1.00D-06.
 Requested convergence on             energy=1.00D-06.
 No special actions if energy rises.
 SCF Done:  E(RDSDPBEP86) =  -1654.65587430     A.U. after   14 cycles
            NFock= 14  Conv=0.29D-08     -V/T= 2.0026
 DoSCS=T DFT=T ScalE2(SS,OS)=  0.220000  0.520000
 ExpMin= 2.53D-02 ExpMax= 4.56D+05 ExpMxC= 1.44D+03 IAcc=3 IRadAn=         5 AccDes= 0.00D+00
 HarFok:  IExCor=  205 AccDes= 0.00D+00 IRadAn=         5 IDoV=-2 UseB2=F ITyADJ=14
 ICtDFT= 12500011 ScaDFX=  1.000000  1.000000  1.000000  1.000000
 GSVD:  LWork=        -945 too small for GESVD, short by        4050 words or        4050 for optimal perf.
 Range of M.O.s used for correlation:    28  1426
 NBasis=  1430 NAE=    92 NBE=    92 NFC=    27 NFV=     0
 NROrb=   1399 NOA=    65 NOB=    65 NVA=  1334 NVB=  1334

 **** Warning!!: The largest alpha MO coefficient is  0.10768596D+03

 DoSCS=T DFT=T ScalE2(SS,OS)=  0.220000  0.520000
 Fully direct method using O(OVN) memory.
 JobTyp=1 Pass  1:  I=   1 to  59 NPSUse= 32 ParTrn=T ParDer=T DoDerP=F.
 JobTyp=1 Pass  2:  I=  60 to  65 NPSUse= 32 ParTrn=T ParDer=T DoDerP=F.
 Spin components of T(2) and E(2):
     alpha-alpha T2 =       0.2268001959D+00 E2=     -0.1434416758D+00
     alpha-beta  T2 =       0.1180742729D+01 E2=     -0.1931999751D+01
     beta-beta   T2 =       0.2268001959D+00 E2=     -0.1434416758D+00
 E2(DSDPBEP86) =    -0.2218883103D+01 E(DSDPBEP86) =    -0.16568747573998D+04

 **********************************************************************

            Population analysis using the SCF Density.

 **********************************************************************

 Orbital symmetries:
       Occupied  (A) (A) (A) (A) (A) (A) (A) (A) (A) (A) (A) (A)
                 (A) (A) (A) (A) (A) (A) (A) (A) (A) (A) (A) (A)
                 (A) (A) (A) (A) (A) (A) (A) (A) (A) (A) (A) (A)
                 (A) (A) (A) (A) (A) (A) (A) (A) (A) (A) (A) (A)
                 (A) (A) (A) (A) (A) (A) (A) (A) (A) (A) (A) (A)
                 (A) (A) (A) (A) (A) (A) (A) (A) (A) (A) (A) (A)
                 (A) (A) (A) (A) (A) (A) (A) (A) (A) (A) (A) (A)
                 (A) (A) (A) (A) (A) (A) (A) (A)
       Virtual   (A) (A) (A) (A) (A) (A) (A) (A) (A) (A) (A) (A)
                 (A) (A) (A) (A) (A) (A) (A) (A) (A) (A) (A) (A)
                 (A) (A) (A) (A) (A) (A) (A) (A) (A) (A) (A) (A)
                 (A) (A) (A) (A) (A) (A) (A) (A) (A) (A) (A) (A)
                 (A) (A) (A) (A) (A) (A) (A) (A) (A) (A) (A) (A)
                 (A) (A) (A) (A) (A) (A) (A) (A) (A) (A) (A) (A)
                 (A) (A) (A) (A) (A) (A) (A) (A) (A) (A) (A) (A)
                 (A) (A) (A) (A) (A) (A) (A) (A) (A) (A) (A) (A)
                 (A) (A) (A) (A) (A) (A) (A) (A) (A) (A) (A) (A)
                 (A) (A) (A) (A) (A) (A) (A) (A) (A) (A) (A) (A)
                 (A) (A) (A) (A) (A) (A) (A) (A) (A) (A) (A) (A)
                 (A) (A) (A) (A) (A) (A) (A) (A) (A) (A) (A) (A)
                 (A) (A) (A) (A) (A) (A) (A) (A) (A) (A) (A) (A)
                 (A) (A) (A) (A) (A) (A) (A) (A) (A) (A) (A) (A)
                 (A) (A) (A) (A) (A) (A) (A) (A) (A) (A) (A) (A)
                 (A) (A) (A) (A) (A) (A) (A) (A) (A) (A) (A) (A)
                 (A) (A) (A) (A) (A) (A) (A) (A) (A) (A) (A) (A)
                 (A) (A) (A) (A) (A) (A) (A) (A) (A) (A) (A) (A)
                 (A) (A) (A) (A) (A) (A) (A) (A) (A) (A) (A) (A)
                 (A) (A) (A) (A) (A) (A) (A) (A) (A) (A) (A) (A)
                 (A) (A) (A) (A) (A) (A) (A) (A) (A) (A) (A) (A)
                 (A) (A) (A) (A) (A) (A) (A) (A) (A) (A) (A) (A)
                 (A) (A) (A) (A) (A) (A) (A) (A) (A) (A) (A) (A)
                 (A) (A) (A) (A) (A) (A) (A) (A) (A) (A) (A) (A)
                 (A) (A) (A) (A) (A) (A) (A) (A) (A) (A) (A) (A)
                 (A) (A) (A) (A) (A) (A) (A) (A) (A) (A) (A) (A)
                 (A) (A) (A) (A) (A) (A) (A) (A) (A) (A) (A) (A)
                 (A) (A) (A) (A) (A) (A) (A) (A) (A) (A) (A) (A)
                 (A) (A) (A) (A) (A) (A) (A) (A) (A) (A) (A) (A)
                 (A) (A) (A) (A) (A) (A) (A) (A) (A) (A) (A) (A)
                 (A) (A) (A) (A) (A) (A) (A) (A) (A) (A) (A) (A)
                 (A) (A) (A) (A) (A) (A) (A) (A) (A) (A) (A) (A)
                 (A) (A) (A) (A) (A) (A) (A) (A) (A) (A) (A) (A)
                 (A) (A) (A) (A) (A) (A) (A) (A) (A) (A) (A) (A)
                 (A) (A) (A) (A) (A) (A) (A) (A) (A) (A) (A) (A)
                 (A) (A) (A) (A) (A) (A) (A) (A) (A) (A) (A) (A)
                 (A) (A) (A) (A) (A) (A) (A) (A) (A) (A) (A) (A)
                 (A) (A) (A) (A) (A) (A) (A) (A) (A) (A) (A) (A)
                 (A) (A) (A) (A) (A) (A) (A) (A) (A) (A) (A) (A)
                 (A) (A) (A) (A) (A) (A) (A) (A) (A) (A) (A) (A)
                 (A) (A) (A) (A) (A) (A) (A) (A) (A) (A) (A) (A)
                 (A) (A) (A) (A) (A) (A) (A) (A) (A) (A) (A) (A)
                 (A) (A) (A) (A) (A) (A) (A) (A) (A) (A) (A) (A)
                 (A) (A) (A) (A) (A) (A) (A) (A) (A) (A) (A) (A)
                 (A) (A) (A) (A) (A) (A) (A) (A) (A) (A) (A) (A)
                 (A) (A) (A) (A) (A) (A) (A) (A) (A) (A) (A) (A)
                 (A) (A) (A) (A) (A) (A) (A) (A) (A) (A) (A) (A)
                 (A) (A) (A) (A) (A) (A) (A) (A) (A) (A) (A) (A)
                 (A) (A) (A) (A) (A) (A) (A) (A) (A) (A) (A) (A)
                 (A) (A) (A) (A) (A) (A) (A) (A) (A) (A) (A) (A)
                 (A) (A) (A) (A) (A) (A) (A) (A) (A) (A) (A) (A)
                 (A) (A) (A) (A) (A) (A) (A) (A) (A) (A) (A) (A)
                 (A) (A) (A) (A) (A) (A) (A) (A) (A) (A) (A) (A)
                 (A) (A) (A) (A) (A) (A) (A) (A) (A) (A) (A) (A)
                 (A) (A) (A) (A) (A) (A) (A) (A) (A) (A) (A) (A)
                 (A) (A) (A) (A) (A) (A) (A) (A) (A) (A) (A) (A)
                 (A) (A) (A) (A) (A) (A) (A) (A) (A) (A) (A) (A)
                 (A) (A) (A) (A) (A) (A) (A) (A) (A) (A) (A) (A)
                 (A) (A) (A) (A) (A) (A) (A) (A) (A) (A) (A) (A)
                 (A) (A) (A) (A) (A) (A) (A) (A) (A) (A) (A) (A)
                 (A) (A) (A) (A) (A) (A) (A) (A) (A) (A) (A) (A)
                 (A) (A) (A) (A) (A) (A) (A) (A) (A) (A) (A) (A)
                 (A) (A) (A) (A) (A) (A) (A) (A) (A) (A) (A) (A)
                 (A) (A) (A) (A) (A) (A) (A) (A) (A) (A) (A) (A)
                 (A) (A) (A) (A) (A) (A) (A) (A) (A) (A) (A) (A)
                 (A) (A) (A) (A) (A) (A) (A) (A) (A) (A) (A) (A)
                 (A) (A) (A) (A) (A) (A) (A) (A) (A) (A) (A) (A)
                 (A) (A) (A) (A) (A) (A) (A) (A) (A) (A) (A) (A)
                 (A) (A) (A) (A) (A) (A) (A) (A) (A) (A) (A) (A)
                 (A) (A) (A) (A) (A) (A) (A) (A) (A) (A) (A) (A)
                 (A) (A) (A) (A) (A) (A) (A) (A) (A) (A) (A) (A)
                 (A) (A) (A) (A) (A) (A) (A) (A) (A) (A) (A) (A)
                 (A) (A) (A) (A) (A) (A) (A) (A) (A) (A) (A) (A)
                 (A) (A) (A) (A) (A) (A) (A) (A) (A) (A) (A) (A)
                 (A) (A) (A) (A) (A) (A) (A) (A) (A) (A) (A) (A)
                 (A) (A) (A) (A) (A) (A) (A) (A) (A) (A) (A) (A)
                 (A) (A) (A) (A) (A) (A) (A) (A) (A) (A) (A) (A)
                 (A) (A) (A) (A) (A) (A) (A) (A) (A) (A) (A) (A)
                 (A) (A) (A) (A) (A) (A) (A) (A) (A) (A) (A) (A)
                 (A) (A) (A) (A) (A) (A) (A) (A) (A) (A) (A) (A)
                 (A) (A) (A) (A) (A) (A) (A) (A) (A) (A) (A) (A)
                 (A) (A) (A) (A) (A) (A) (A) (A) (A) (A) (A) (A)
                 (A) (A) (A) (A) (A) (A) (A) (A) (A) (A) (A) (A)
                 (A) (A) (A) (A) (A) (A) (A) (A) (A) (A) (A) (A)
                 (A) (A) (A) (A) (A) (A) (A) (A) (A) (A) (A) (A)
                 (A) (A) (A) (A) (A) (A) (A) (A) (A) (A) (A) (A)
                 (A) (A) (A) (A) (A) (A) (A) (A) (A) (A) (A) (A)
                 (A) (A) (A) (A) (A) (A) (A) (A) (A) (A) (A) (A)
                 (A) (A) (A) (A) (A) (A) (A) (A) (A) (A) (A) (A)
                 (A) (A) (A) (A) (A) (A) (A) (A) (A) (A) (A) (A)
                 (A) (A) (A) (A) (A) (A) (A) (A) (A) (A) (A) (A)
                 (A) (A) (A) (A) (A) (A) (A) (A) (A) (A) (A) (A)
                 (A) (A) (A) (A) (A) (A) (A) (A) (A) (A) (A) (A)
                 (A) (A) (A) (A) (A) (A) (A) (A) (A) (A) (A) (A)
                 (A) (A) (A) (A) (A) (A) (A) (A) (A) (A) (A) (A)
                 (A) (A) (A) (A) (A) (A) (A) (A) (A) (A) (A) (A)
                 (A) (A) (A) (A) (A) (A) (A) (A) (A) (A) (A) (A)
                 (A) (A) (A) (A) (A) (A) (A) (A) (A) (A) (A) (A)
                 (A) (A) (A) (A) (A) (A) (A) (A) (A) (A) (A) (A)
                 (A) (A) (A) (A) (A) (A) (A) (A) (A) (A) (A) (A)
                 (A) (A) (A) (A) (A) (A) (A) (A) (A) (A) (A) (A)
                 (A) (A) (A) (A) (A) (A) (A) (A) (A) (A) (A) (A)
                 (A) (A) (A) (A) (A) (A) (A) (A) (A) (A) (A) (A)
                 (A) (A) (A) (A) (A) (A) (A) (A) (A) (A) (A) (A)
                 (A) (A) (A) (A) (A) (A) (A) (A) (A) (A) (A) (A)
                 (A) (A) (A) (A) (A) (A) (A) (A) (A) (A) (A) (A)
                 (A) (A) (A) (A) (A) (A) (A) (A) (A) (A) (A) (A)
                 (A) (A) (A) (A) (A) (A) (A) (A) (A) (A) (A) (A)
                 (A) (A) (A) (A) (A) (A) (A) (A) (A) (A) (A) (A)
                 (A) (A) (A) (A) (A) (A) (A) (A) (A) (A) (A) (A)
                 (A) (A) (A) (A) (A) (A) (A) (A) (A) (A) (A) (A)
                 (A) (A)
 The electronic state is 1-A.
 Alpha  occ. eigenvalues -- -103.48027 -25.61823 -25.61269 -25.61267 -19.94329
 Alpha  occ. eigenvalues --  -19.87724 -19.80560 -19.79719 -14.99373 -10.99210
 Alpha  occ. eigenvalues --  -10.87702 -10.80277 -10.78125 -10.78062 -10.77149
 Alpha  occ. eigenvalues --  -10.74902 -10.73827 -10.73626 -10.73037 -10.72653
 Alpha  occ. eigenvalues --  -10.70953 -10.68547 -10.68382 -10.05537  -7.63210
 Alpha  occ. eigenvalues --   -7.62752  -7.62736  -1.47985  -1.38671  -1.38252
 Alpha  occ. eigenvalues --   -1.23378  -1.12977  -1.10716  -1.03610  -1.00818
 Alpha  occ. eigenvalues --   -0.98633  -0.91734  -0.88374  -0.85716  -0.81019
 Alpha  occ. eigenvalues --   -0.80841  -0.78375  -0.75491  -0.69659  -0.66968
 Alpha  occ. eigenvalues --   -0.66170  -0.65844  -0.64129  -0.63760  -0.61038
 Alpha  occ. eigenvalues --   -0.60055  -0.57246  -0.54375  -0.52714  -0.52606
 Alpha  occ. eigenvalues --   -0.50276  -0.50035  -0.49574  -0.49366  -0.48181
 Alpha  occ. eigenvalues --   -0.48141  -0.47432  -0.46363  -0.45775  -0.44249
 Alpha  occ. eigenvalues --   -0.44198  -0.43616  -0.43189  -0.43030  -0.42788
 Alpha  occ. eigenvalues --   -0.40798  -0.39475  -0.39014  -0.38597  -0.37316
 Alpha  occ. eigenvalues --   -0.36768  -0.35958  -0.35466  -0.35034  -0.34410
 Alpha  occ. eigenvalues --   -0.33780  -0.32775  -0.31424  -0.30389  -0.30090
 Alpha  occ. eigenvalues --   -0.29361  -0.28848  -0.21544  -0.21137  -0.20681
 Alpha  occ. eigenvalues --   -0.19604  -0.18283
 Alpha virt. eigenvalues --    0.07593   0.09017   0.09269   0.09750   0.10503
 Alpha virt. eigenvalues --    0.10794   0.11267   0.11481   0.11798   0.12102
 Alpha virt. eigenvalues --    0.12303   0.12915   0.13038   0.13682   0.14232
 Alpha virt. eigenvalues --    0.14321   0.14418   0.14802   0.15209   0.15651
 Alpha virt. eigenvalues --    0.15683   0.16176   0.16414   0.17151   0.17309
 Alpha virt. eigenvalues --    0.17474   0.17702   0.18135   0.18254   0.18571
 Alpha virt. eigenvalues --    0.18699   0.19221   0.19485   0.19829   0.20176
 Alpha virt. eigenvalues --    0.20372   0.20379   0.20610   0.20704   0.21323
 Alpha virt. eigenvalues --    0.21605   0.21841   0.21950   0.22345   0.22695
 Alpha virt. eigenvalues --    0.22752   0.22935   0.23264   0.23561   0.23712
 Alpha virt. eigenvalues --    0.23847   0.24236   0.24868   0.25128   0.25450
 Alpha virt. eigenvalues --    0.25519   0.25787   0.25851   0.26203   0.26505
 Alpha virt. eigenvalues --    0.26751   0.27096   0.27557   0.27631   0.28306
 Alpha virt. eigenvalues --    0.28481   0.28946   0.29158   0.29452   0.29674
 Alpha virt. eigenvalues --    0.29803   0.30145   0.30451   0.30485   0.30849
 Alpha virt. eigenvalues --    0.31152   0.31926   0.32331   0.32759   0.33001
 Alpha virt. eigenvalues --    0.33188   0.33215   0.33587   0.33757   0.33934
 Alpha virt. eigenvalues --    0.34111   0.34553   0.34630   0.34944   0.35168
 Alpha virt. eigenvalues --    0.35325   0.36008   0.36094   0.36252   0.36597
 Alpha virt. eigenvalues --    0.36821   0.36994   0.37261   0.37554   0.37597
 Alpha virt. eigenvalues --    0.37660   0.38098   0.38231   0.38540   0.38809
 Alpha virt. eigenvalues --    0.38978   0.39332   0.39522   0.39629   0.39956
 Alpha virt. eigenvalues --    0.40222   0.40487   0.40524   0.41018   0.41139
 Alpha virt. eigenvalues --    0.41321   0.41796   0.41957   0.42089   0.42336
 Alpha virt. eigenvalues --    0.42661   0.42684   0.43050   0.43205   0.43481
 Alpha virt. eigenvalues --    0.43530   0.43721   0.43853   0.44172   0.44354
 Alpha virt. eigenvalues --    0.44911   0.45210   0.45261   0.45455   0.45689
 Alpha virt. eigenvalues --    0.45753   0.46046   0.46285   0.46626   0.47041
 Alpha virt. eigenvalues --    0.47220   0.47375   0.47694   0.48021   0.48089
 Alpha virt. eigenvalues --    0.48288   0.48418   0.48670   0.48870   0.49436
 Alpha virt. eigenvalues --    0.49570   0.49662   0.49898   0.50219   0.50448
 Alpha virt. eigenvalues --    0.50696   0.51040   0.51119   0.51220   0.52060
 Alpha virt. eigenvalues --    0.52180   0.52636   0.52963   0.53152   0.53429
 Alpha virt. eigenvalues --    0.53709   0.53854   0.54111   0.54156   0.54268
 Alpha virt. eigenvalues --    0.54407   0.54756   0.54978   0.55033   0.55229
 Alpha virt. eigenvalues --    0.55414   0.55799   0.56161   0.56206   0.56688
 Alpha virt. eigenvalues --    0.56810   0.56978   0.57192   0.57455   0.57754
 Alpha virt. eigenvalues --    0.57775   0.58089   0.58284   0.58496   0.58772
 Alpha virt. eigenvalues --    0.59032   0.59270   0.59489   0.59729   0.59925
 Alpha virt. eigenvalues --    0.60369   0.60559   0.60944   0.61213   0.61458
 Alpha virt. eigenvalues --    0.61743   0.61950   0.62317   0.62591   0.62840
 Alpha virt. eigenvalues --    0.62970   0.63379   0.63558   0.63913   0.64236
 Alpha virt. eigenvalues --    0.64490   0.64858   0.65164   0.65275   0.65451
 Alpha virt. eigenvalues --    0.65799   0.65941   0.66615   0.67021   0.67138
 Alpha virt. eigenvalues --    0.67386   0.67873   0.68178   0.68642   0.69038
 Alpha virt. eigenvalues --    0.69193   0.69546   0.69696   0.70098   0.70654
 Alpha virt. eigenvalues --    0.70933   0.71338   0.71626   0.72205   0.72467
 Alpha virt. eigenvalues --    0.72771   0.73104   0.73308   0.73917   0.74081
 Alpha virt. eigenvalues --    0.74473   0.74735   0.74898   0.75119   0.75785
 Alpha virt. eigenvalues --    0.76468   0.76718   0.77331   0.77485   0.77812
 Alpha virt. eigenvalues --    0.78171   0.78833   0.79111   0.79528   0.80375
 Alpha virt. eigenvalues --    0.80479   0.81186   0.81385   0.81686   0.81822
 Alpha virt. eigenvalues --    0.82182   0.82767   0.83558   0.83749   0.83858
 Alpha virt. eigenvalues --    0.84372   0.84928   0.85304   0.85525   0.85655
 Alpha virt. eigenvalues --    0.86487   0.86793   0.86900   0.87484   0.87597
 Alpha virt. eigenvalues --    0.87758   0.87981   0.88451   0.88529   0.88685
 Alpha virt. eigenvalues --    0.89191   0.89643   0.89807   0.90017   0.90553
 Alpha virt. eigenvalues --    0.91258   0.91332   0.91560   0.91870   0.92152
 Alpha virt. eigenvalues --    0.92305   0.92881   0.93093   0.93524   0.93586
 Alpha virt. eigenvalues --    0.93853   0.94101   0.94196   0.94416   0.94772
 Alpha virt. eigenvalues --    0.95015   0.95245   0.95534   0.95892   0.96033
 Alpha virt. eigenvalues --    0.96261   0.96295   0.96941   0.97064   0.97376
 Alpha virt. eigenvalues --    0.97512   0.97975   0.98293   0.98630   0.98749
 Alpha virt. eigenvalues --    0.98966   0.99352   0.99728   0.99887   1.00048
 Alpha virt. eigenvalues --    1.00291   1.00625   1.01021   1.01475   1.01526
 Alpha virt. eigenvalues --    1.01708   1.02061   1.02469   1.02812   1.02928
 Alpha virt. eigenvalues --    1.03352   1.03542   1.03827   1.04105   1.04603
 Alpha virt. eigenvalues --    1.05017   1.05184   1.05243   1.05718   1.06095
 Alpha virt. eigenvalues --    1.06238   1.06591   1.07023   1.07073   1.07672
 Alpha virt. eigenvalues --    1.08098   1.08148   1.08612   1.08918   1.09340
 Alpha virt. eigenvalues --    1.09508   1.09990   1.10340   1.10493   1.10994
 Alpha virt. eigenvalues --    1.11033   1.11282   1.12245   1.12435   1.12625
 Alpha virt. eigenvalues --    1.12723   1.12981   1.13296   1.13975   1.14095
 Alpha virt. eigenvalues --    1.14335   1.14592   1.14823   1.14872   1.15181
 Alpha virt. eigenvalues --    1.15548   1.15766   1.15937   1.16391   1.16699
 Alpha virt. eigenvalues --    1.16866   1.16926   1.17289   1.17510   1.17807
 Alpha virt. eigenvalues --    1.18202   1.18593   1.18784   1.19043   1.19380
 Alpha virt. eigenvalues --    1.19545   1.19709   1.20296   1.20441   1.20746
 Alpha virt. eigenvalues --    1.21209   1.21332   1.21589   1.21899   1.22181
 Alpha virt. eigenvalues --    1.22787   1.22913   1.23467   1.23901   1.24136
 Alpha virt. eigenvalues --    1.24371   1.24849   1.25342   1.25531   1.25612
 Alpha virt. eigenvalues --    1.25893   1.25973   1.26161   1.26685   1.26898
 Alpha virt. eigenvalues --    1.27082   1.27422   1.28062   1.28121   1.28455
 Alpha virt. eigenvalues --    1.28532   1.29330   1.29540   1.29736   1.30213
 Alpha virt. eigenvalues --    1.30429   1.30930   1.31239   1.31925   1.32153
 Alpha virt. eigenvalues --    1.32481   1.32616   1.33048   1.33426   1.33901
 Alpha virt. eigenvalues --    1.34122   1.34988   1.35290   1.35548   1.36039
 Alpha virt. eigenvalues --    1.36384   1.36643   1.36843   1.37530   1.37679
 Alpha virt. eigenvalues --    1.38013   1.38439   1.38877   1.39082   1.39268
 Alpha virt. eigenvalues --    1.39580   1.39946   1.40501   1.41251   1.41290
 Alpha virt. eigenvalues --    1.41959   1.42950   1.43097   1.43623   1.43922
 Alpha virt. eigenvalues --    1.44236   1.44620   1.44903   1.45139   1.45510
 Alpha virt. eigenvalues --    1.45968   1.46193   1.46413   1.47056   1.47579
 Alpha virt. eigenvalues --    1.47797   1.48433   1.48889   1.49658   1.49885
 Alpha virt. eigenvalues --    1.50152   1.50531   1.50646   1.51349   1.52119
 Alpha virt. eigenvalues --    1.52796   1.52949   1.53058   1.53200   1.53789
 Alpha virt. eigenvalues --    1.54154   1.54490   1.55372   1.56044   1.56376
 Alpha virt. eigenvalues --    1.56501   1.56776   1.57317   1.57737   1.58328
 Alpha virt. eigenvalues --    1.58364   1.58535   1.58733   1.59647   1.60005
 Alpha virt. eigenvalues --    1.60289   1.60657   1.61434   1.61843   1.62247
 Alpha virt. eigenvalues --    1.62575   1.62911   1.63051   1.63721   1.64353
 Alpha virt. eigenvalues --    1.64501   1.65020   1.65631   1.66130   1.66287
 Alpha virt. eigenvalues --    1.66675   1.67120   1.67685   1.67927   1.68252
 Alpha virt. eigenvalues --    1.69044   1.69098   1.69402   1.70041   1.70073
 Alpha virt. eigenvalues --    1.70285   1.70857   1.71047   1.71447   1.71835
 Alpha virt. eigenvalues --    1.72348   1.72611   1.72770   1.73250   1.73604
 Alpha virt. eigenvalues --    1.74005   1.74353   1.74693   1.75175   1.75300
 Alpha virt. eigenvalues --    1.75756   1.75807   1.76341   1.77120   1.77234
 Alpha virt. eigenvalues --    1.77956   1.78101   1.78216   1.78681   1.78888
 Alpha virt. eigenvalues --    1.79220   1.79810   1.79892   1.80634   1.80739
 Alpha virt. eigenvalues --    1.81058   1.81448   1.81917   1.82238   1.82532
 Alpha virt. eigenvalues --    1.82799   1.83350   1.83459   1.83866   1.84145
 Alpha virt. eigenvalues --    1.84480   1.85075   1.85585   1.85878   1.86442
 Alpha virt. eigenvalues --    1.86702   1.87372   1.87645   1.87786   1.88059
 Alpha virt. eigenvalues --    1.88340   1.89187   1.89648   1.89893   1.89994
 Alpha virt. eigenvalues --    1.90814   1.91124   1.91567   1.92078   1.92878
 Alpha virt. eigenvalues --    1.93206   1.93895   1.93991   1.94126   1.94670
 Alpha virt. eigenvalues --    1.95038   1.95662   1.95964   1.96366   1.97113
 Alpha virt. eigenvalues --    1.97577   1.97802   1.98075   1.98445   1.99371
 Alpha virt. eigenvalues --    1.99495   1.99963   2.00455   2.00578   2.01346
 Alpha virt. eigenvalues --    2.01531   2.01910   2.02752   2.03310   2.03494
 Alpha virt. eigenvalues --    2.04202   2.04293   2.04595   2.04803   2.05631
 Alpha virt. eigenvalues --    2.05982   2.06739   2.06867   2.07454   2.07550
 Alpha virt. eigenvalues --    2.08193   2.08452   2.08648   2.09480   2.09740
 Alpha virt. eigenvalues --    2.10880   2.10958   2.12268   2.12471   2.12764
 Alpha virt. eigenvalues --    2.13140   2.13545   2.14524   2.15403   2.15734
 Alpha virt. eigenvalues --    2.16384   2.16921   2.17131   2.17388   2.17891
 Alpha virt. eigenvalues --    2.18973   2.19515   2.20118   2.20452   2.20685
 Alpha virt. eigenvalues --    2.21353   2.22026   2.22820   2.23167   2.24049
 Alpha virt. eigenvalues --    2.24543   2.24578   2.25221   2.25723   2.26723
 Alpha virt. eigenvalues --    2.26979   2.27277   2.27748   2.28859   2.29509
 Alpha virt. eigenvalues --    2.29581   2.30124   2.30362   2.31279   2.31596
 Alpha virt. eigenvalues --    2.31933   2.32589   2.32701   2.33969   2.34238
 Alpha virt. eigenvalues --    2.34499   2.34685   2.36012   2.36430   2.37023
 Alpha virt. eigenvalues --    2.38182   2.38534   2.39395   2.40049   2.41726
 Alpha virt. eigenvalues --    2.42029   2.42384   2.42763   2.43322   2.43606
 Alpha virt. eigenvalues --    2.45053   2.45764   2.45911   2.46370   2.47130
 Alpha virt. eigenvalues --    2.47481   2.47909   2.49081   2.50179   2.50939
 Alpha virt. eigenvalues --    2.51063   2.52817   2.53199   2.53951   2.54444
 Alpha virt. eigenvalues --    2.55155   2.55798   2.56264   2.56681   2.57805
 Alpha virt. eigenvalues --    2.59744   2.60199   2.60560   2.60886   2.61177
 Alpha virt. eigenvalues --    2.61842   2.64067   2.64562   2.65018   2.65807
 Alpha virt. eigenvalues --    2.66710   2.67257   2.67882   2.68687   2.68997
 Alpha virt. eigenvalues --    2.69443   2.70558   2.71207   2.71484   2.72098
 Alpha virt. eigenvalues --    2.72902   2.73484   2.73794   2.75793   2.76408
 Alpha virt. eigenvalues --    2.76700   2.77802   2.79069   2.79317   2.79942
 Alpha virt. eigenvalues --    2.79974   2.81360   2.81966   2.82675   2.83074
 Alpha virt. eigenvalues --    2.83620   2.84073   2.84718   2.85501   2.86225
 Alpha virt. eigenvalues --    2.86794   2.87830   2.88123   2.89124   2.89611
 Alpha virt. eigenvalues --    2.90210   2.91274   2.91828   2.92115   2.93140
 Alpha virt. eigenvalues --    2.93833   2.94143   2.95428   2.96110   2.97385
 Alpha virt. eigenvalues --    2.98180   2.98569   2.98860   2.99494   3.00757
 Alpha virt. eigenvalues --    3.01585   3.02471   3.03323   3.03778   3.05101
 Alpha virt. eigenvalues --    3.05485   3.06330   3.06457   3.07456   3.08526
 Alpha virt. eigenvalues --    3.08930   3.09925   3.10545   3.10861   3.11616
 Alpha virt. eigenvalues --    3.12235   3.12962   3.13390   3.13747   3.14123
 Alpha virt. eigenvalues --    3.14912   3.15279   3.15604   3.15933   3.16853
 Alpha virt. eigenvalues --    3.17985   3.18338   3.19568   3.20452   3.21183
 Alpha virt. eigenvalues --    3.21760   3.22520   3.23173   3.24257   3.24473
 Alpha virt. eigenvalues --    3.24756   3.25472   3.27185   3.27932   3.28113
 Alpha virt. eigenvalues --    3.28708   3.29820   3.30771   3.31522   3.31565
 Alpha virt. eigenvalues --    3.32053   3.33205   3.34314   3.34606   3.35343
 Alpha virt. eigenvalues --    3.35753   3.35902   3.37305   3.37892   3.38214
 Alpha virt. eigenvalues --    3.39369   3.40052   3.40476   3.40602   3.41582
 Alpha virt. eigenvalues --    3.41744   3.42393   3.42577   3.42779   3.43054
 Alpha virt. eigenvalues --    3.44164   3.44728   3.45124   3.46480   3.46840
 Alpha virt. eigenvalues --    3.47187   3.47864   3.49333   3.49711   3.50122
 Alpha virt. eigenvalues --    3.51284   3.51869   3.52563   3.53023   3.53205
 Alpha virt. eigenvalues --    3.54205   3.54444   3.54751   3.55656   3.55913
 Alpha virt. eigenvalues --    3.56384   3.56518   3.56875   3.57594   3.58215
 Alpha virt. eigenvalues --    3.58905   3.59420   3.60002   3.60190   3.60503
 Alpha virt. eigenvalues --    3.61618   3.62084   3.62524   3.63222   3.63870
 Alpha virt. eigenvalues --    3.64524   3.64792   3.65567   3.66278   3.67117
 Alpha virt. eigenvalues --    3.67430   3.68421   3.69075   3.69596   3.70252
 Alpha virt. eigenvalues --    3.70313   3.70913   3.71386   3.71607   3.71738
 Alpha virt. eigenvalues --    3.72587   3.72903   3.73072   3.73926   3.74400
 Alpha virt. eigenvalues --    3.74801   3.75067   3.75841   3.76415   3.76807
 Alpha virt. eigenvalues --    3.76996   3.78896   3.79173   3.79429   3.80139
 Alpha virt. eigenvalues --    3.80421   3.81133   3.81672   3.82297   3.82630
 Alpha virt. eigenvalues --    3.82824   3.83872   3.84187   3.85191   3.85858
 Alpha virt. eigenvalues --    3.86048   3.86747   3.87223   3.87481   3.87931
 Alpha virt. eigenvalues --    3.88185   3.88905   3.89207   3.89703   3.90049
 Alpha virt. eigenvalues --    3.90977   3.91425   3.91840   3.92438   3.93000
 Alpha virt. eigenvalues --    3.93083   3.93767   3.93886   3.94304   3.94969
 Alpha virt. eigenvalues --    3.95558   3.96054   3.96385   3.97239   3.98125
 Alpha virt. eigenvalues --    3.98632   3.99151   4.00025   4.00471   4.01351
 Alpha virt. eigenvalues --    4.02450   4.02736   4.03224   4.03727   4.03966
 Alpha virt. eigenvalues --    4.04190   4.04480   4.05230   4.05546   4.06002
 Alpha virt. eigenvalues --    4.07169   4.07428   4.08366   4.08830   4.09489
 Alpha virt. eigenvalues --    4.10694   4.11237   4.12071   4.13043   4.13538
 Alpha virt. eigenvalues --    4.13999   4.14774   4.15132   4.15364   4.16675
 Alpha virt. eigenvalues --    4.16814   4.17411   4.18249   4.18471   4.18906
 Alpha virt. eigenvalues --    4.19089   4.19963   4.20007   4.21036   4.21200
 Alpha virt. eigenvalues --    4.21408   4.21736   4.22022   4.22165   4.23717
 Alpha virt. eigenvalues --    4.23886   4.24453   4.25094   4.25736   4.26118
 Alpha virt. eigenvalues --    4.26556   4.27576   4.27876   4.29026   4.29225
 Alpha virt. eigenvalues --    4.30617   4.31096   4.31221   4.31686   4.32798
 Alpha virt. eigenvalues --    4.33251   4.33550   4.34653   4.35048   4.36011
 Alpha virt. eigenvalues --    4.36305   4.36877   4.37643   4.39334   4.39778
 Alpha virt. eigenvalues --    4.40461   4.40573   4.41836   4.42699   4.43601
 Alpha virt. eigenvalues --    4.43947   4.44371   4.44546   4.46117   4.46998
 Alpha virt. eigenvalues --    4.47349   4.47910   4.48636   4.49082   4.49326
 Alpha virt. eigenvalues --    4.49819   4.50648   4.51196   4.51963   4.53052
 Alpha virt. eigenvalues --    4.53499   4.54564   4.56234   4.56882   4.57652
 Alpha virt. eigenvalues --    4.58452   4.58767   4.59554   4.59952   4.60252
 Alpha virt. eigenvalues --    4.61040   4.61758   4.63097   4.63640   4.64177
 Alpha virt. eigenvalues --    4.64308   4.65221   4.66354   4.67301   4.67827
 Alpha virt. eigenvalues --    4.67881   4.69888   4.70258   4.71346   4.71548
 Alpha virt. eigenvalues --    4.72020   4.72760   4.73836   4.74044   4.74369
 Alpha virt. eigenvalues --    4.74908   4.75196   4.77472   4.77903   4.78600
 Alpha virt. eigenvalues --    4.79029   4.79592   4.80063   4.80852   4.82445
 Alpha virt. eigenvalues --    4.83316   4.83730   4.84378   4.85135   4.85483
 Alpha virt. eigenvalues --    4.85497   4.86387   4.86921   4.87864   4.88446
 Alpha virt. eigenvalues --    4.88822   4.89041   4.90696   4.92259   4.93134
 Alpha virt. eigenvalues --    4.94494   4.94667   4.95719   4.96991   4.97767
 Alpha virt. eigenvalues --    4.98717   4.99637   5.01514   5.02333   5.02979
 Alpha virt. eigenvalues --    5.04978   5.05275   5.05601   5.06223   5.06871
 Alpha virt. eigenvalues --    5.07891   5.08056   5.08352   5.09835   5.10974
 Alpha virt. eigenvalues --    5.11168   5.12042   5.12833   5.13707   5.14590
 Alpha virt. eigenvalues --    5.15146   5.15626   5.17894   5.18500   5.19030
 Alpha virt. eigenvalues --    5.19702   5.20312   5.20735   5.21240   5.21528
 Alpha virt. eigenvalues --    5.22342   5.22670   5.23487   5.24301   5.25083
 Alpha virt. eigenvalues --    5.25395   5.27196   5.27470   5.28860   5.30245
 Alpha virt. eigenvalues --    5.30931   5.32104   5.32412   5.33738   5.33943
 Alpha virt. eigenvalues --    5.34839   5.36242   5.36669   5.37027   5.39756
 Alpha virt. eigenvalues --    5.41422   5.42023   5.42917   5.43690   5.44882
 Alpha virt. eigenvalues --    5.47048   5.47681   5.49181   5.49721   5.51216
 Alpha virt. eigenvalues --    5.52248   5.53143   5.54617   5.55166   5.56024
 Alpha virt. eigenvalues --    5.56658   5.58604   5.58992   5.59947   5.62429
 Alpha virt. eigenvalues --    5.62897   5.63915   5.64911   5.66160   5.68188
 Alpha virt. eigenvalues --    5.68472   5.68573   5.69745   5.72107   5.72383
 Alpha virt. eigenvalues --    5.72990   5.74427   5.75916   5.78516   5.78655
 Alpha virt. eigenvalues --    5.80088   5.81489   5.82335   5.83153   5.83667
 Alpha virt. eigenvalues --    5.85274   5.86272   5.89636   5.90360   5.92622
 Alpha virt. eigenvalues --    5.92972   5.93915   5.94723   5.98505   5.99990
 Alpha virt. eigenvalues --    6.02165   6.04112   6.04987   6.05862   6.06134
 Alpha virt. eigenvalues --    6.09910   6.11120   6.11702   6.12072   6.12842
 Alpha virt. eigenvalues --    6.13364   6.15613   6.16719   6.18191   6.19375
 Alpha virt. eigenvalues --    6.20543   6.20688   6.21659   6.22461   6.27727
 Alpha virt. eigenvalues --    6.32249   6.34560   6.38619   6.39810   6.42123
 Alpha virt. eigenvalues --    6.42623   6.45650   6.47755   6.53107   6.54446
 Alpha virt. eigenvalues --    6.59989   6.61140   6.67756   6.68138   6.70174
 Alpha virt. eigenvalues --    6.70579   6.73786   6.75179   6.77190   6.78769
 Alpha virt. eigenvalues --    6.81504   6.82514   6.84919   6.86391   6.86621
 Alpha virt. eigenvalues --    6.87162   6.89834   6.91226   6.92955   6.94934
 Alpha virt. eigenvalues --    6.95628   6.97589   6.99560   6.99767   7.07440
 Alpha virt. eigenvalues --    7.07623   7.08276   7.09438   7.11737   7.13592
 Alpha virt. eigenvalues --    7.15986   7.20179   7.22243   7.22864   7.24537
 Alpha virt. eigenvalues --    7.25145   7.27238   7.29147   7.29637   7.32785
 Alpha virt. eigenvalues --    7.35950   7.36826   7.37807   7.38053   7.38779
 Alpha virt. eigenvalues --    7.41392   7.43454   7.50764   7.54931   7.56344
 Alpha virt. eigenvalues --    7.61292   7.64441   7.65653   7.67050   7.69339
 Alpha virt. eigenvalues --    7.71558   7.72837   7.80855   7.85043   7.88041
 Alpha virt. eigenvalues --    7.92780   7.95147   7.98339   8.05640   8.07914
 Alpha virt. eigenvalues --    8.12346   8.19454   8.32817   8.52996   8.58259
 Alpha virt. eigenvalues --    8.60118   8.81786   8.84436   8.86350   8.89841
 Alpha virt. eigenvalues --    8.91600   8.95989   9.04787   9.05834   9.17492
 Alpha virt. eigenvalues --    9.20804   9.22445   9.22846   9.23379   9.26285
 Alpha virt. eigenvalues --    9.28141   9.30043   9.31998   9.33422   9.37048
 Alpha virt. eigenvalues --    9.38071   9.38578   9.41102   9.43922   9.46374
 Alpha virt. eigenvalues --    9.47356   9.47660   9.55945   9.57138   9.59132
 Alpha virt. eigenvalues --    9.60544   9.69465   9.79896   9.82005   9.87828
 Alpha virt. eigenvalues --   10.01917  10.09389  14.87895  15.66446  15.78883
 Alpha virt. eigenvalues --   15.81323  16.23466  16.33204  16.50395  16.78450
 Alpha virt. eigenvalues --   17.24621  17.35706  17.65396  17.95452  18.20685
 Alpha virt. eigenvalues --   18.45533  18.74896  18.81171  19.77706  20.45459
 Alpha virt. eigenvalues --   20.46455  21.01978  21.35736  21.73535
          Condensed to atoms (all electrons):
               1          2          3          4          5          6
     1  C   11.773820  -0.382414  -1.191279   0.233836   0.037077  -0.056550
     2  N   -0.382414   9.250940   0.302378  -0.138815  -0.360916  -0.155001
     3  C   -1.191279   0.302378   6.410038   0.186122   0.113416  -0.058761
     4  O    0.233836  -0.138815   0.186122   9.264162  -0.196594  -0.071422
     5  O    0.037077  -0.360916   0.113416  -0.196594   8.932673  -0.008816
     6  C   -0.056550  -0.155001  -0.058761  -0.071422  -0.008816   5.979224
     7  C   -1.160318  -0.556647   0.209375  -0.211964  -0.052894  -0.011267
     8  C   -1.035705   0.295151   0.008914   0.024084   0.017247   0.008103
     9  C    0.180976  -0.093565   0.034569  -0.007262  -0.002576  -0.002049
    10  C   -0.295151   0.030174  -0.063488  -0.001032  -0.006060  -0.004132
    11  C   -1.744431  -0.317727   0.002929   0.012388  -0.035397   0.007689
    12  H   -0.278734  -0.188228  -0.420590  -0.017721   0.113514  -0.041364
    13  H   -0.254117  -0.221985   0.018086  -0.133053   0.018945  -0.004484
    14  Cl   0.106604  -0.031143   0.014220  -0.009784   0.000125  -0.000622
    15  C   -0.005160   0.015077   0.006760  -0.000906   0.000121   0.000088
    16  H    0.142432  -0.101755  -0.027836   0.001052  -0.001863  -0.000829
    17  H   -0.745502   0.258464   0.021260   0.000682  -0.020937  -0.002201
    18  F   -0.022114   0.000836  -0.000396   0.000019   0.000014   0.000005
    19  F   -0.003983   0.002654   0.000452  -0.000063   0.000005   0.000011
    20  F   -0.002478   0.002154   0.001190  -0.000058   0.000002   0.000015
    21  O    0.006638   0.002185  -0.015588   0.000179   0.015058   0.001329
    22  O   -0.028802  -0.216179  -0.026968  -0.014430   0.001552   0.025808
    23  C   -0.128661  -0.013719   0.012899  -0.003148  -0.021681   0.002642
    24  C   -0.029564  -0.015650   0.010329  -0.000694  -0.009042   0.002451
    25  H   -0.002530   0.000430   0.000650  -0.000056  -0.001668   0.000013
    26  H   -0.002121   0.000925   0.000672  -0.000037  -0.001641  -0.000168
    27  C   -0.001272  -0.003340  -0.001761  -0.000320   0.003466  -0.002270
    28  H   -0.002096  -0.001997   0.000151   0.000048  -0.001401   0.002146
    29  H   -0.001979  -0.001688   0.000879   0.000037  -0.001382  -0.000491
    30  H    0.000918  -0.000144  -0.000318  -0.000045   0.000769  -0.000176
    31  C    0.011142   0.033813  -0.013623  -0.030082   0.056996   0.053046
    32  H   -0.008669   0.003044  -0.000349  -0.007138  -0.022073   0.043806
    33  H    0.000167   0.001782  -0.024750   0.030459  -0.031758   0.002493
    34  H    0.007988  -0.030945   0.002546   0.030903   0.006209   0.230806
    35  H   -0.012421  -0.011577   0.017099  -0.018292  -0.111663   0.361394
    36  C    0.003673   0.018122  -0.020933   0.013733   0.026453  -0.002936
    37  H    0.000997   0.000172   0.004303  -0.001533  -0.000138   0.003902
    38  H    0.000539   0.001586  -0.004600   0.001892   0.005796  -0.005084
    39  H   -0.000249   0.001354   0.000124   0.002088   0.007358  -0.009493
               7          8          9         10         11         12
     1  C   -1.160318  -1.035705   0.180976  -0.295151  -1.744431  -0.278734
     2  N   -0.556647   0.295151  -0.093565   0.030174  -0.317727  -0.188228
     3  C    0.209375   0.008914   0.034569  -0.063488   0.002929  -0.420590
     4  O   -0.211964   0.024084  -0.007262  -0.001032   0.012388  -0.017721
     5  O   -0.052894   0.017247  -0.002576  -0.006060  -0.035397   0.113514
     6  C   -0.011267   0.008103  -0.002049  -0.004132   0.007689  -0.041364
     7  C    9.822220  -0.992796   0.255534  -0.347099  -0.201869   0.045568
     8  C   -0.992796   8.413738  -1.337449   0.433555   0.317215  -0.013542
     9  C    0.255534  -1.337449   9.128604  -1.473304  -0.284011   0.006112
    10  C   -0.347099   0.433555  -1.473304   9.581442  -0.496292  -0.047640
    11  C   -0.201869   0.317215  -0.284011  -0.496292  10.169770   0.010611
    12  H    0.045568  -0.013542   0.006112  -0.047640   0.010611   1.449829
    13  H    0.264523  -0.582720   0.153914   0.010675  -0.183386   0.013923
    14  Cl   0.015420  -0.541163   0.144787   0.049717  -0.064565   0.001103
    15  C   -0.024961  -0.102980  -0.576205  -0.532446   0.080383  -0.000971
    16  H    0.120379  -0.226376  -0.089667   0.095277  -0.270193  -0.002354
    17  H    0.026826   0.089646  -0.074158  -0.265615  -0.175727  -0.042836
    18  F   -0.011384   0.032742  -0.011828  -0.036078   0.012293  -0.000078
    19  F   -0.029295   0.024217   0.042764  -0.054457   0.014073   0.000028
    20  F   -0.028085   0.018344   0.049226  -0.049500   0.009499  -0.000556
    21  O   -0.012778   0.003699  -0.010441   0.039353   0.041421  -0.008190
    22  O   -0.039818   0.020621  -0.026360   0.035837   0.128976  -0.098332
    23  C   -0.002311   0.028255  -0.030051   0.037571  -0.013329  -0.065343
    24  C    0.001356   0.001168   0.001050  -0.003950  -0.016060   0.018267
    25  H    0.000533  -0.000045   0.000308  -0.001388   0.003154   0.000745
    26  H    0.000557  -0.000068   0.000326  -0.001673   0.003503   0.001054
    27  C   -0.001755   0.001025  -0.001412   0.004024  -0.005180  -0.006418
    28  H   -0.000014   0.000158  -0.000188   0.000666  -0.001001  -0.002634
    29  H    0.000178   0.000070  -0.000122   0.000497  -0.000340  -0.002915
    30  H   -0.000198   0.000063  -0.000083   0.000084   0.000338   0.000798
    31  C   -0.002004  -0.004301   0.001725  -0.000581  -0.005105  -0.007942
    32  H    0.000353   0.000146  -0.000031  -0.000004   0.001723  -0.000734
    33  H    0.003641  -0.000786   0.000160  -0.000091  -0.000216   0.000290
    34  H   -0.001128  -0.000105  -0.000041  -0.000161  -0.001356  -0.000220
    35  H   -0.000850   0.002996  -0.000987   0.000150   0.003528   0.004136
    36  C   -0.000434  -0.000716   0.000286  -0.000184  -0.001277  -0.000361
    37  H   -0.000453   0.000006   0.000019  -0.000012  -0.000106   0.000188
    38  H    0.000157  -0.000201   0.000068  -0.000021  -0.000117  -0.000302
    39  H    0.000404  -0.000055   0.000009   0.000001  -0.000057   0.000069
              13         14         15         16         17         18
     1  C   -0.254117   0.106604  -0.005160   0.142432  -0.745502  -0.022114
     2  N   -0.221985  -0.031143   0.015077  -0.101755   0.258464   0.000836
     3  C    0.018086   0.014220   0.006760  -0.027836   0.021260  -0.000396
     4  O   -0.133053  -0.009784  -0.000906   0.001052   0.000682   0.000019
     5  O    0.018945   0.000125   0.000121  -0.001863  -0.020937   0.000014
     6  C   -0.004484  -0.000622   0.000088  -0.000829  -0.002201   0.000005
     7  C    0.264523   0.015420  -0.024961   0.120379   0.026826  -0.011384
     8  C   -0.582720  -0.541163  -0.102980  -0.226376   0.089646   0.032742
     9  C    0.153914   0.144787  -0.576205  -0.089667  -0.074158  -0.011828
    10  C    0.010675   0.049717  -0.532446   0.095277  -0.265615  -0.036078
    11  C   -0.183386  -0.064565   0.080383  -0.270193  -0.175727   0.012293
    12  H    0.013923   0.001103  -0.000971  -0.002354  -0.042836  -0.000078
    13  H    1.362494   0.080197   0.004759   0.011683  -0.030865  -0.000627
    14  Cl   0.080197  17.907463  -0.114873   0.009908  -0.005073   0.009722
    15  C    0.004759  -0.114873   5.604820  -0.100419  -0.006873   0.161572
    16  H    0.011683   0.009908  -0.100419   1.452223  -0.268875   0.020518
    17  H   -0.030865  -0.005073  -0.006873  -0.268875   1.567094   0.000854
    18  F   -0.000627   0.009722   0.161572   0.020518   0.000854   9.358797
    19  F   -0.002639  -0.018518   0.193227  -0.008316   0.000171  -0.070644
    20  F   -0.002837  -0.018874   0.190072  -0.007300   0.000697  -0.070840
    21  O   -0.000555  -0.000126   0.000775  -0.001179  -0.260538  -0.000021
    22  O   -0.004080  -0.000511  -0.000224  -0.002714  -0.063673  -0.000018
    23  C   -0.008753  -0.001748   0.001147  -0.031273   0.030838  -0.000459
    24  C   -0.000334  -0.000049  -0.000064  -0.004931   0.012884  -0.000037
    25  H   -0.000018  -0.000003  -0.000007  -0.000309   0.003352  -0.000007
    26  H   -0.000024  -0.000003  -0.000005  -0.000235   0.002957  -0.000008
    27  C   -0.000093  -0.000015  -0.000011  -0.000379   0.000228  -0.000002
    28  H   -0.000026  -0.000006   0.000006  -0.000127   0.001012   0.000001
    29  H    0.000015  -0.000003   0.000000  -0.000058   0.001428   0.000000
    30  H   -0.000010  -0.000001  -0.000001  -0.000011  -0.000114  -0.000000
    31  C    0.002088   0.000122  -0.000023   0.000251  -0.001063   0.000000
    32  H   -0.000003   0.000031  -0.000014   0.000008  -0.000009  -0.000001
    33  H   -0.000203   0.000081   0.000025   0.000012   0.000047  -0.000001
    34  H   -0.000266  -0.000054   0.000006  -0.000052  -0.000024   0.000000
    35  H   -0.001351   0.000116   0.000055  -0.000175   0.000930  -0.000002
    36  C   -0.000186  -0.000017   0.000001   0.000008  -0.000103   0.000000
    37  H   -0.000023  -0.000008  -0.000000   0.000002   0.000001   0.000000
    38  H    0.000022   0.000003  -0.000002   0.000002  -0.000001   0.000000
    39  H    0.000008   0.000001   0.000000   0.000001  -0.000026   0.000000
              19         20         21         22         23         24
     1  C   -0.003983  -0.002478   0.006638  -0.028802  -0.128661  -0.029564
     2  N    0.002654   0.002154   0.002185  -0.216179  -0.013719  -0.015650
     3  C    0.000452   0.001190  -0.015588  -0.026968   0.012899   0.010329
     4  O   -0.000063  -0.000058   0.000179  -0.014430  -0.003148  -0.000694
     5  O    0.000005   0.000002   0.015058   0.001552  -0.021681  -0.009042
     6  C    0.000011   0.000015   0.001329   0.025808   0.002642   0.002451
     7  C   -0.029295  -0.028085  -0.012778  -0.039818  -0.002311   0.001356
     8  C    0.024217   0.018344   0.003699   0.020621   0.028255   0.001168
     9  C    0.042764   0.049226  -0.010441  -0.026360  -0.030051   0.001050
    10  C   -0.054457  -0.049500   0.039353   0.035837   0.037571  -0.003950
    11  C    0.014073   0.009499   0.041421   0.128976  -0.013329  -0.016060
    12  H    0.000028  -0.000556  -0.008190  -0.098332  -0.065343   0.018267
    13  H   -0.002639  -0.002837  -0.000555  -0.004080  -0.008753  -0.000334
    14  Cl  -0.018518  -0.018874  -0.000126  -0.000511  -0.001748  -0.000049
    15  C    0.193227   0.190072   0.000775  -0.000224   0.001147  -0.000064
    16  H   -0.008316  -0.007300  -0.001179  -0.002714  -0.031273  -0.004931
    17  H    0.000171   0.000697  -0.260538  -0.063673   0.030838   0.012884
    18  F   -0.070644  -0.070840  -0.000021  -0.000018  -0.000459  -0.000037
    19  F    9.348723  -0.019178   0.000000   0.000032   0.000297   0.000008
    20  F   -0.019178   9.347052   0.000003   0.000037   0.000306   0.000013
    21  O    0.000000   0.000003   8.971590  -0.088324   0.498980  -0.159328
    22  O    0.000032   0.000037  -0.088324   8.891184   0.437111  -0.141944
    23  C    0.000297   0.000306   0.498980   0.437111   5.192430  -0.374781
    24  C    0.000008   0.000013  -0.159328  -0.141944  -0.374781   5.843861
    25  H    0.000002   0.000002   0.001363  -0.031379  -0.057278   0.489828
    26  H    0.000002   0.000002   0.001423  -0.031845  -0.056050   0.489306
    27  C    0.000000   0.000001  -0.014608  -0.033601   0.084432   0.088663
    28  H    0.000000   0.000000   0.003131  -0.002825  -0.013056   0.046764
    29  H   -0.000000   0.000000   0.003825  -0.006067  -0.011248   0.046253
    30  H    0.000000   0.000000  -0.003616   0.000112   0.012696  -0.066238
    31  C   -0.000013   0.000009  -0.000800  -0.000088   0.000003   0.000247
    32  H   -0.000001   0.000001  -0.000079   0.001694   0.001068   0.000381
    33  H   -0.000000   0.000001  -0.000108  -0.000600  -0.000120   0.000066
    34  H   -0.000000   0.000002   0.000050  -0.003532  -0.001408  -0.000642
    35  H    0.000016   0.000002  -0.000014  -0.000575   0.000538   0.000312
    36  C   -0.000000   0.000000  -0.000006  -0.000416  -0.000273  -0.000156
    37  H   -0.000000  -0.000000  -0.000004  -0.000023  -0.000025  -0.000009
    38  H   -0.000001   0.000000   0.000008  -0.000044  -0.000036  -0.000031
    39  H    0.000000  -0.000000  -0.000001   0.000045  -0.000040   0.000013
              25         26         27         28         29         30
     1  C   -0.002530  -0.002121  -0.001272  -0.002096  -0.001979   0.000918
     2  N    0.000430   0.000925  -0.003340  -0.001997  -0.001688  -0.000144
     3  C    0.000650   0.000672  -0.001761   0.000151   0.000879  -0.000318
     4  O   -0.000056  -0.000037  -0.000320   0.000048   0.000037  -0.000045
     5  O   -0.001668  -0.001641   0.003466  -0.001401  -0.001382   0.000769
     6  C    0.000013  -0.000168  -0.002270   0.002146  -0.000491  -0.000176
     7  C    0.000533   0.000557  -0.001755  -0.000014   0.000178  -0.000198
     8  C   -0.000045  -0.000068   0.001025   0.000158   0.000070   0.000063
     9  C    0.000308   0.000326  -0.001412  -0.000188  -0.000122  -0.000083
    10  C   -0.001388  -0.001673   0.004024   0.000666   0.000497   0.000084
    11  C    0.003154   0.003503  -0.005180  -0.001001  -0.000340   0.000338
    12  H    0.000745   0.001054  -0.006418  -0.002634  -0.002915   0.000798
    13  H   -0.000018  -0.000024  -0.000093  -0.000026   0.000015  -0.000010
    14  Cl  -0.000003  -0.000003  -0.000015  -0.000006  -0.000003  -0.000001
    15  C   -0.000007  -0.000005  -0.000011   0.000006   0.000000  -0.000001
    16  H   -0.000309  -0.000235  -0.000379  -0.000127  -0.000058  -0.000011
    17  H    0.003352   0.002957   0.000228   0.001012   0.001428  -0.000114
    18  F   -0.000007  -0.000008  -0.000002   0.000001   0.000000  -0.000000
    19  F    0.000002   0.000002   0.000000   0.000000  -0.000000   0.000000
    20  F    0.000002   0.000002   0.000001   0.000000   0.000000   0.000000
    21  O    0.001363   0.001423  -0.014608   0.003131   0.003825  -0.003616
    22  O   -0.031379  -0.031845  -0.033601  -0.002825  -0.006067   0.000112
    23  C   -0.057278  -0.056050   0.084432  -0.013056  -0.011248   0.012696
    24  C    0.489828   0.489306   0.088663   0.046764   0.046253  -0.066238
    25  H    0.391644   0.026071  -0.030034   0.001993   0.000422  -0.007594
    26  H    0.026071   0.389466  -0.032083  -0.001582   0.001711  -0.005472
    27  C   -0.030034  -0.032083   5.716540   0.362816   0.359566   0.441317
    28  H    0.001993  -0.001582   0.362816   0.332920   0.024401  -0.008568
    29  H    0.000422   0.001711   0.359566   0.024401   0.334151  -0.009398
    30  H   -0.007594  -0.005472   0.441317  -0.008568  -0.009398   0.355892
    31  C    0.000101   0.000153   0.000015  -0.000926   0.000037  -0.000025
    32  H    0.000034   0.000089  -0.000079  -0.000076   0.000028  -0.000030
    33  H    0.000011   0.000011   0.000005   0.000070   0.000017  -0.000011
    34  H   -0.000074  -0.000091   0.000554   0.000211  -0.000026   0.000132
    35  H    0.000017   0.000010  -0.000113   0.000119   0.000117  -0.000029
    36  C   -0.000007  -0.000007  -0.000059   0.000023  -0.000016  -0.000019
    37  H   -0.000001   0.000000   0.000000  -0.000008  -0.000004   0.000002
    38  H   -0.000002  -0.000003  -0.000013   0.000012  -0.000007   0.000001
    39  H    0.000000   0.000002   0.000016   0.000009   0.000015  -0.000008
              31         32         33         34         35         36
     1  C    0.011142  -0.008669   0.000167   0.007988  -0.012421   0.003673
     2  N    0.033813   0.003044   0.001782  -0.030945  -0.011577   0.018122
     3  C   -0.013623  -0.000349  -0.024750   0.002546   0.017099  -0.020933
     4  O   -0.030082  -0.007138   0.030459   0.030903  -0.018292   0.013733
     5  O    0.056996  -0.022073  -0.031758   0.006209  -0.111663   0.026453
     6  C    0.053046   0.043806   0.002493   0.230806   0.361394  -0.002936
     7  C   -0.002004   0.000353   0.003641  -0.001128  -0.000850  -0.000434
     8  C   -0.004301   0.000146  -0.000786  -0.000105   0.002996  -0.000716
     9  C    0.001725  -0.000031   0.000160  -0.000041  -0.000987   0.000286
    10  C   -0.000581  -0.000004  -0.000091  -0.000161   0.000150  -0.000184
    11  C   -0.005105   0.001723  -0.000216  -0.001356   0.003528  -0.001277
    12  H   -0.007942  -0.000734   0.000290  -0.000220   0.004136  -0.000361
    13  H    0.002088  -0.000003  -0.000203  -0.000266  -0.001351  -0.000186
    14  Cl   0.000122   0.000031   0.000081  -0.000054   0.000116  -0.000017
    15  C   -0.000023  -0.000014   0.000025   0.000006   0.000055   0.000001
    16  H    0.000251   0.000008   0.000012  -0.000052  -0.000175   0.000008
    17  H   -0.001063  -0.000009   0.000047  -0.000024   0.000930  -0.000103
    18  F    0.000000  -0.000001  -0.000001   0.000000  -0.000002   0.000000
    19  F   -0.000013  -0.000001  -0.000000  -0.000000   0.000016  -0.000000
    20  F    0.000009   0.000001   0.000001   0.000002   0.000002   0.000000
    21  O   -0.000800  -0.000079  -0.000108   0.000050  -0.000014  -0.000006
    22  O   -0.000088   0.001694  -0.000600  -0.003532  -0.000575  -0.000416
    23  C    0.000003   0.001068  -0.000120  -0.001408   0.000538  -0.000273
    24  C    0.000247   0.000381   0.000066  -0.000642   0.000312  -0.000156
    25  H    0.000101   0.000034   0.000011  -0.000074   0.000017  -0.000007
    26  H    0.000153   0.000089   0.000011  -0.000091   0.000010  -0.000007
    27  C    0.000015  -0.000079   0.000005   0.000554  -0.000113  -0.000059
    28  H   -0.000926  -0.000076   0.000070   0.000211   0.000119   0.000023
    29  H    0.000037   0.000028   0.000017  -0.000026   0.000117  -0.000016
    30  H   -0.000025  -0.000030  -0.000011   0.000132  -0.000029  -0.000019
    31  C    5.473844   0.418146   0.357713  -0.044855   0.048426   0.069102
    32  H    0.418146   0.459722  -0.008382  -0.041758   0.019518  -0.081536
    33  H    0.357713  -0.008382   0.345910   0.022769   0.006486  -0.003678
    34  H   -0.044855  -0.041758   0.022769   0.503113  -0.026813   0.014145
    35  H    0.048426   0.019518   0.006486  -0.026813   0.407908  -0.019816
    36  C    0.069102  -0.081536  -0.003678   0.014145  -0.019816   5.759392
    37  H   -0.035109  -0.005661  -0.004211   0.001868   0.002791   0.448533
    38  H    0.015465  -0.002910  -0.000782  -0.005234  -0.012401   0.387931
    39  H    0.014713  -0.007682  -0.000085  -0.004522  -0.007330   0.394364
              37         38         39
     1  C    0.000997   0.000539  -0.000249
     2  N    0.000172   0.001586   0.001354
     3  C    0.004303  -0.004600   0.000124
     4  O   -0.001533   0.001892   0.002088
     5  O   -0.000138   0.005796   0.007358
     6  C    0.003902  -0.005084  -0.009493
     7  C   -0.000453   0.000157   0.000404
     8  C    0.000006  -0.000201  -0.000055
     9  C    0.000019   0.000068   0.000009
    10  C   -0.000012  -0.000021   0.000001
    11  C   -0.000106  -0.000117  -0.000057
    12  H    0.000188  -0.000302   0.000069
    13  H   -0.000023   0.000022   0.000008
    14  Cl  -0.000008   0.000003   0.000001
    15  C   -0.000000  -0.000002   0.000000
    16  H    0.000002   0.000002   0.000001
    17  H    0.000001  -0.000001  -0.000026
    18  F    0.000000   0.000000   0.000000
    19  F   -0.000000  -0.000001   0.000000
    20  F   -0.000000   0.000000  -0.000000
    21  O   -0.000004   0.000008  -0.000001
    22  O   -0.000023  -0.000044   0.000045
    23  C   -0.000025  -0.000036  -0.000040
    24  C   -0.000009  -0.000031   0.000013
    25  H   -0.000001  -0.000002   0.000000
    26  H    0.000000  -0.000003   0.000002
    27  C    0.000000  -0.000013   0.000016
    28  H   -0.000008   0.000012   0.000009
    29  H   -0.000004  -0.000007   0.000015
    30  H    0.000002   0.000001  -0.000008
    31  C   -0.035109   0.015465   0.014713
    32  H   -0.005661  -0.002910  -0.007682
    33  H   -0.004211  -0.000782  -0.000085
    34  H    0.001868  -0.005234  -0.004522
    35  H    0.002791  -0.012401  -0.007330
    36  C    0.448533   0.387931   0.394364
    37  H    0.327652  -0.003606   0.000526
    38  H   -0.003606   0.326018   0.014066
    39  H    0.000526   0.014066   0.321005
 Mulliken charges:
               1
     1  C    0.889491
     2  N   -0.377807
     3  C    0.491878
     4  O   -0.937236
     5  O   -0.468295
     6  C   -0.286855
     7  C   -1.076706
     8  C    1.097843
     9  C    0.021353
    10  C   -0.638665
    11  C   -1.001749
    12  H    0.581771
    13  H    0.491309
    14  Cl  -0.532462
    15  C    1.207254
    16  H    0.293471
    17  H    0.944843
    18  F   -0.372830
    19  F   -0.419573
    20  F   -0.418924
    21  O   -1.014705
    22  O   -0.679636
    23  C    0.493577
    24  C   -0.229716
    25  H    0.211726
    26  H    0.214875
    27  C   -0.927850
    28  H    0.259875
    29  H    0.262095
    30  H    0.288992
    31  C   -0.410616
    32  H    0.237427
    33  H    0.303563
    34  H    0.342005
    35  H    0.347746
    36  C   -1.002627
    37  H    0.259972
    38  H    0.281831
    39  H    0.273355
 Sum of Mulliken charges =  -1.00000
 Mulliken charges with hydrogens summed into heavy atoms:
               1
     1  C    0.889491
     2  N    0.203964
     3  C    0.491878
     4  O   -0.937236
     5  O   -0.468295
     6  C    0.402896
     7  C   -0.585397
     8  C    1.097843
     9  C    0.021353
    10  C   -0.345194
    11  C   -0.056907
    14  Cl  -0.532462
    15  C    1.207254
    18  F   -0.372830
    19  F   -0.419573
    20  F   -0.418924
    21  O   -1.014705
    22  O   -0.679636
    23  C    0.493577
    24  C    0.196885
    27  C   -0.116888
    31  C    0.130374
    36  C   -0.187469
 Electronic spatial extent (au):  <R**2>=          12013.3339
 Charge=             -1.0000 electrons
 Dipole moment (field-independent basis, Debye):
    X=              0.5525    Y=             -5.9441    Z=              0.2608  Tot=              5.9755
 Quadrupole moment (field-independent basis, Debye-Ang):
   XX=           -189.6089   YY=           -185.9767   ZZ=           -145.6436
[...]
   893. RY*(  20) O  22                  0.00001     2.28376   
   894. RY*(  21) O  22                  0.00000     6.58729   
   895. RY*(  22) O  22                  0.00001     3.42116   
   896. RY*(  23) O  22                  0.00000     4.57182   
   897. RY*(  24) O  22                  0.00000     6.92580   
   898. RY*(  25) O  22                  0.00000     6.95356   
   899. RY*(  26) O  22                  0.00001     4.77081   
   900. RY*(  27) O  22                  0.00000     7.14606   
   901. RY*(  28) O  22                  0.00000     3.59515   
   902. RY*(  29) O  22                  0.00000     5.85911   
   903. RY*(  30) O  22                  0.00000     3.56915   
   904. RY*(  31) O  22                  0.00000     5.31210   
   905. RY*(  32) O  22                  0.00000     4.15695   
   906. RY*(  33) O  22                  0.00000     5.99478   
   907. RY*(  34) O  22                  0.00000     3.46083   
   908. RY*(  35) O  22                  0.00000     6.12285   
   909. RY*(  36) O  22                  0.00000     3.54239   
   910. RY*(  37) O  22                  0.00000     6.26144   
   911. RY*(  38) O  22                  0.00000     4.61991   
   912. RY*(  39) O  22                  0.00000     6.96750   
   913. RY*(  40) O  22                  0.00000     3.92662   
   914. RY*(  41) O  22                  0.00000     6.87301   
   915. RY*(   1) C  23                  0.01851     1.67694   
   916. RY*(   2) C  23                  0.01003     1.66849   
   917. RY*(   3) C  23                  0.00450     2.32559   
   918. RY*(   4) C  23                  0.00232     2.99051   
   919. RY*(   5) C  23                  0.00142     3.29641   
   920. RY*(   6) C  23                  0.00093     1.73100   
   921. RY*(   7) C  23                  0.00040     1.50479   
   922. RY*(   8) C  23                  0.00026     2.46262   
   923. RY*(   9) C  23                  0.00010     1.80407   
   924. RY*(  10) C  23                  0.00005     2.23831   
   925. RY*(  11) C  23                  0.00005     1.37135   
   926. RY*(  12) C  23                  0.00002     3.24335   
   927. RY*(  13) C  23                  0.00002     1.11481   
   928. RY*(  14) C  23                  0.00000     1.97945   
   929. RY*(  15) C  23                  0.00000     4.05809   
   930. RY*(  16) C  23                  0.00000     2.23985   
   931. RY*(  17) C  23                  0.00000     3.45364   
   932. RY*(  18) C  23                  0.00001     2.29345   
   933. RY*(  19) C  23                  0.00001     1.50702   
   934. RY*(  20) C  23                  0.00000     2.63792   
   935. RY*(  21) C  23                  0.00000     2.72072   
   936. RY*(  22) C  23                  0.00000     1.57069   
   937. RY*(  23) C  23                  0.00000     2.12424   
   938. RY*(  24) C  23                  0.00000     3.52013   
   939. RY*(  25) C  23                  0.00001     2.71341   
   940. RY*(  26) C  23                  0.00000     4.75800   
   941. RY*(  27) C  23                  0.00000     2.95565   
   942. RY*(  28) C  23                  0.00000     3.51010   
   943. RY*(  29) C  23                  0.00000     3.14389   
   944. RY*(  30) C  23                  0.00001     3.63534   
   945. RY*(  31) C  23                  0.00000     3.59798   
   946. RY*(  32) C  23                  0.00000     3.63977   
   947. RY*(  33) C  23                  0.00000     3.65827   
   948. RY*(  34) C  23                  0.00000     3.65036   
   949. RY*(  35) C  23                  0.00000     3.19389   
   950. RY*(  36) C  23                  0.00000     3.42937   
   951. RY*(  37) C  23                  0.00000     3.45136   
   952. RY*(  38) C  23                  0.00000     4.37518   
   953. RY*(  39) C  23                  0.00000     5.72523   
   954. RY*(  40) C  23                  0.00000     5.36199   
   955. RY*(  41) C  23                  0.00000     7.42712   
   956. RY*(   1) C  24                  0.00295     1.80135   
   957. RY*(   2) C  24                  0.00182     2.22412   
   958. RY*(   3) C  24                  0.00181     1.65768   
   959. RY*(   4) C  24                  0.00096     1.48897   
   960. RY*(   5) C  24                  0.00047     1.39945   
   961. RY*(   6) C  24                  0.00032     1.91609   
   962. RY*(   7) C  24                  0.00029     1.86589   
   963. RY*(   8) C  24                  0.00019     1.94540   
   964. RY*(   9) C  24                  0.00010     2.14187   
   965. RY*(  10) C  24                  0.00010     2.32629   
   966. RY*(  11) C  24                  0.00000     2.23573   
   967. RY*(  12) C  24                  0.00000     1.75086   
   968. RY*(  13) C  24                  0.00001     2.24897   
   969. RY*(  14) C  24                  0.00001     3.62320   
   970. RY*(  15) C  24                  0.00000     1.96141   
   971. RY*(  16) C  24                  0.00000     1.74748   
   972. RY*(  17) C  24                  0.00000     1.76141   
   973. RY*(  18) C  24                  0.00000     3.31717   
   974. RY*(  19) C  24                  0.00000     1.37059   
   975. RY*(  20) C  24                  0.00000     3.61454   
   976. RY*(  21) C  24                  0.00000     4.59624   
   977. RY*(  22) C  24                  0.00001     2.16118   
   978. RY*(  23) C  24                  0.00001     3.79919   
   979. RY*(  24) C  24                  0.00000     2.03717   
   980. RY*(  25) C  24                  0.00000     1.17351   
   981. RY*(  26) C  24                  0.00000     3.63326   
   982. RY*(  27) C  24                  0.00001     3.63273   
   983. RY*(  28) C  24                  0.00000     4.23690   
   984. RY*(  29) C  24                  0.00000     2.58110   
   985. RY*(  30) C  24                  0.00000     4.19990   
   986. RY*(  31) C  24                  0.00000     3.49871   
   987. RY*(  32) C  24                  0.00000     4.62715   
   988. RY*(  33) C  24                  0.00000     3.22107   
   989. RY*(  34) C  24                  0.00000     4.18830   
   990. RY*(  35) C  24                  0.00000     3.05576   
   991. RY*(  36) C  24                  0.00000     4.25406   
   992. RY*(  37) C  24                  0.00000     2.66473   
   993. RY*(  38) C  24                  0.00000     4.31895   
   994. RY*(  39) C  24                  0.00000     2.88965   
   995. RY*(  40) C  24                  0.00000     4.33652   
   996. RY*(  41) C  24                  0.00000     3.78911   
   997. RY*(   1) H  25                  0.00108     0.84216   
   998. RY*(   2) H  25                  0.00039     0.88805   
   999. RY*(   3) H  25                  0.00034     1.16919   
  1000. RY*(   4) H  25                  0.00015     2.13412   
  1001. RY*(   5) H  25                  0.00013     2.50738   
  1002. RY*(   6) H  25                  0.00009     2.12577   
  1003. RY*(   7) H  25                  0.00003     2.82272   
  1004. RY*(   8) H  25                  0.00001     4.17450   
  1005. RY*(   9) H  25                  0.00001     2.68650   
  1006. RY*(  10) H  25                  0.00001     2.99954   
  1007. RY*(  11) H  25                  0.00000     4.03266   
  1008. RY*(  12) H  25                  0.00000     3.25143   
  1009. RY*(  13) H  25                  0.00000     2.32516   
  1010. RY*(  14) H  25                  0.00000     4.19569   
  1011. RY*(  15) H  25                  0.00000     3.27877   
  1012. RY*(  16) H  25                  0.00000     3.90484   
  1013. RY*(  17) H  25                  0.00000     2.49313   
  1014. RY*(  18) H  25                  0.00000     4.32842   
  1015. RY*(  19) H  25                  0.00001     2.51196   
  1016. RY*(  20) H  25                  0.00000     3.90920   
  1017. RY*(  21) H  25                  0.00000     2.28692   
  1018. RY*(  22) H  25                  0.00001     3.48640   
  1019. RY*(   1) H  26                  0.00108     0.84189   
  1020. RY*(   2) H  26                  0.00039     0.88332   
  1021. RY*(   3) H  26                  0.00033     1.17998   
  1022. RY*(   4) H  26                  0.00015     2.14330   
  1023. RY*(   5) H  26                  0.00013     2.48114   
  1024. RY*(   6) H  26                  0.00009     2.15166   
  1025. RY*(   7) H  26                  0.00003     2.81910   
  1026. RY*(   8) H  26                  0.00001     3.96857   
  1027. RY*(   9) H  26                  0.00001     2.45260   
  1028. RY*(  10) H  26                  0.00001     2.90803   
  1029. RY*(  11) H  26                  0.00000     4.38463   
  1030. RY*(  12) H  26                  0.00001     3.53600   
  1031. RY*(  13) H  26                  0.00000     2.26710   
  1032. RY*(  14) H  26                  0.00000     4.02331   
  1033. RY*(  15) H  26                  0.00000     3.30992   
  1034. RY*(  16) H  26                  0.00000     4.00293   
  1035. RY*(  17) H  26                  0.00000     2.36902   
  1036. RY*(  18) H  26                  0.00000     4.19276   
  1037. RY*(  19) H  26                  0.00001     2.42662   
  1038. RY*(  20) H  26                  0.00000     3.89037   
  1039. RY*(  21) H  26                  0.00000     2.29602   
  1040. RY*(  22) H  26                  0.00001     3.82353   
  1041. RY*(   1) C  27                  0.00191     1.61904   
  1042. RY*(   2) C  27                  0.00074     1.94670   
  1043. RY*(   3) C  27                  0.00035     1.97446   
  1044. RY*(   4) C  27                  0.00016     1.99830   
  1045. RY*(   5) C  27                  0.00011     1.40593   
  1046. RY*(   6) C  27                  0.00006     1.79817   
  1047. RY*(   7) C  27                  0.00005     2.17683   
  1048. RY*(   8) C  27                  0.00005     1.71774   
  1049. RY*(   9) C  27                  0.00003     3.21935   
  1050. RY*(  10) C  27                  0.00001     2.09722   
  1051. RY*(  11) C  27                  0.00000     1.88941   
  1052. RY*(  12) C  27                  0.00000     1.46056   
  1053. RY*(  13) C  27                  0.00000     1.48489   
  1054. RY*(  14) C  27                  0.00000     3.28652   
  1055. RY*(  15) C  27                  0.00000     1.90018   
  1056. RY*(  16) C  27                  0.00000     1.91421   
  1057. RY*(  17) C  27                  0.00000     3.11329   
  1058. RY*(  18) C  27                  0.00000     2.02698   
  1059. RY*(  19) C  27                  0.00000     5.31519   
  1060. RY*(  20) C  27                  0.00000     3.23399   
  1061. RY*(  21) C  27                  0.00000     1.79288   
  1062. RY*(  22) C  27                  0.00000     1.65460   
  1063. RY*(  23) C  27                  0.00000     2.87002   
  1064. RY*(  24) C  27                  0.00000     2.17058   
  1065. RY*(  25) C  27                  0.00000     1.50603   
  1066. RY*(  26) C  27                  0.00000     3.36675   
  1067. RY*(  27) C  27                  0.00000     1.92468   
  1068. RY*(  28) C  27                  0.00000     4.10914   
  1069. RY*(  29) C  27                  0.00000     2.35942   
  1070. RY*(  30) C  27                  0.00000     4.20511   
  1071. RY*(  31) C  27                  0.00000     2.68917   
  1072. RY*(  32) C  27                  0.00000     4.40879   
  1073. RY*(  33) C  27                  0.00000     2.76433   
  1074. RY*(  34) C  27                  0.00000     4.17275   
  1075. RY*(  35) C  27                  0.00000     2.60156   
  1076. RY*(  36) C  27                  0.00000     4.19991   
  1077. RY*(  37) C  27                  0.00000     2.22307   
  1078. RY*(  38) C  27                  0.00000     4.29373   
  1079. RY*(  39) C  27                  0.00000     2.48824   
  1080. RY*(  40) C  27                  0.00000     4.39415   
  1081. RY*(  41) C  27                  0.00000     2.43593   
  1082. RY*(   1) H  28                  0.00098     0.73915   
  1083. RY*(   2) H  28                  0.00040     1.10860   
  1084. RY*(   3) H  28                  0.00021     1.42609   
  1085. RY*(   4) H  28                  0.00021     1.90717   
  1086. RY*(   5) H  28                  0.00010     2.21008   
  1087. RY*(   6) H  28                  0.00007     2.46661   
  1088. RY*(   7) H  28                  0.00003     2.04208   
  1089. RY*(   8) H  28                  0.00001     2.27487   
  1090. RY*(   9) H  28                  0.00002     2.71641   
  1091. RY*(  10) H  28                  0.00001     3.80251   
  1092. RY*(  11) H  28                  0.00000     4.38210   
  1093. RY*(  12) H  28                  0.00000     2.84106   
  1094. RY*(  13) H  28                  0.00000     2.12882   
  1095. RY*(  14) H  28                  0.00000     4.04268   
  1096. RY*(  15) H  28                  0.00000     2.20554   
  1097. RY*(  16) H  28                  0.00000     4.13338   
  1098. RY*(  17) H  28                  0.00000     2.69148   
  1099. RY*(  18) H  28                  0.00000     5.16402   
  1100. RY*(  19) H  28                  0.00000     3.04687   
  1101. RY*(  20) H  28                  0.00000     4.03749   
  1102. RY*(  21) H  28                  0.00000     2.04517   
  1103. RY*(  22) H  28                  0.00000     4.56575   
  1104. RY*(   1) H  29                  0.00102     0.71912   
  1105. RY*(   2) H  29                  0.00042     1.16039   
  1106. RY*(   3) H  29                  0.00022     1.58606   
  1107. RY*(   4) H  29                  0.00020     1.68698   
  1108. RY*(   5) H  29                  0.00010     2.20083   
  1109. RY*(   6) H  29                  0.00007     2.50481   
  1110. RY*(   7) H  29                  0.00003     3.07984   
  1111. RY*(   8) H  29                  0.00002     1.96243   
  1112. RY*(   9) H  29                  0.00000     3.19037   
  1113. RY*(  10) H  29                  0.00001     3.55312   
  1114. RY*(  11) H  29                  0.00000     4.23503   
  1115. RY*(  12) H  29                  0.00000     2.80205   
  1116. RY*(  13) H  29                  0.00000     2.07096   
  1117. RY*(  14) H  29                  0.00000     4.04991   
  1118. RY*(  15) H  29                  0.00000     2.13268   
  1119. RY*(  16) H  29                  0.00000     4.28999   
  1120. RY*(  17) H  29                  0.00000     2.35519   
  1121. RY*(  18) H  29                  0.00000     4.87654   
  1122. RY*(  19) H  29                  0.00000     2.22030   
  1123. RY*(  20) H  29                  0.00000     4.32929   
  1124. RY*(  21) H  29                  0.00000     2.14099   
  1125. RY*(  22) H  29                  0.00000     4.81259   
  1126. RY*(   1) H  30                  0.00097     0.71716   
  1127. RY*(   2) H  30                  0.00032     1.32339   
  1128. RY*(   3) H  30                  0.00016     1.65341   
  1129. RY*(   4) H  30                  0.00014     2.11671   
  1130. RY*(   5) H  30                  0.00007     2.31121   
  1131. RY*(   6) H  30                  0.00004     1.34987   
  1132. RY*(   7) H  30                  0.00001     1.28971   
  1133. RY*(   8) H  30                  0.00001     3.82793   
  1134. RY*(   9) H  30                  0.00000     3.79070   
  1135. RY*(  10) H  30                  0.00001     3.46233   
  1136. RY*(  11) H  30                  0.00001     3.29301   
  1137. RY*(  12) H  30                  0.00000     3.74695   
  1138. RY*(  13) H  30                  0.00001     2.22353   
  1139. RY*(  14) H  30                  0.00000     4.83141   
  1140. RY*(  15) H  30                  0.00000     1.74302   
  1141. RY*(  16) H  30                  0.00000     4.00627   
  1142. RY*(  17) H  30                  0.00000     1.89646   
  1143. RY*(  18) H  30                  0.00000     4.22964   
  1144. RY*(  19) H  30                  0.00001     2.15407   
  1145. RY*(  20) H  30                  0.00000     4.61605   
  1146. RY*(  21) H  30                  0.00000     1.97931   
  1147. RY*(  22) H  30                  0.00000     4.32363   
  1410. BD*(   1) O  21 - C  23          0.03989     1.49703   
  1411. BD*(   1) O  22 - C  23          0.05202     2.18932   
  1412. BD*(   1) C  23 - C  24          0.08233     0.64119   
  1413. BD*(   1) C  24 - H  25          0.01144     0.71108   
  1414. BD*(   1) C  24 - H  26          0.01144     0.85062   
  1415. BD*(   1) C  24 - C  27          0.00687     5.63454   
  1416. BD*(   1) C  27 - H  28          0.00778     9.46521   
  1417. BD*(   1) C  27 - H  29          0.00776     5.45372   
  1418. BD*(   1) C  27 - H  30          0.00766     1.26907   
       -------------------------------
              Total Lewis   38.93320  ( 97.5573%)
        Valence non-Lewis    0.90507  (  2.2679%)
        Rydberg non-Lewis    0.06976  (  0.1748%)
       -------------------------------
            Total unit  2   39.90802  (100.0000%)
           Charge unit  2   -0.90802
 Unable to Open any file for archive entry.
 1\1\GINC-GADI-HMEM-CLX-0037\SP\RDSDPBEP86-FC\Aug-CC-pVTZ\C14H16Cl1F3N1
 O4(1-)\HIO507\28-Apr-2021\0\\# DSDPBEP86/AUG-cc-PVTZ SCF=Tight INT(gri
 d=ultrafine) Pop=NBO MaxDisk=1400000MB\\CP19CA_carboxy.DSDPBEP86_AUG-c
 c-PVTZ\\-1,1\C,0,-7.001961791,0.6286751132,-0.0112548131\N,0,-5.735611
 9312,0.1277698693,0.2653609839\C,0,-4.5613184379,0.6934499287,-0.10832
 29721\O,0,-4.3978458573,1.7197030026,-0.7387262805\O,0,-3.5334756077,-
 0.0638367967,0.3356739596\C,0,-2.2317324134,0.3765446157,-0.0277084128
 \C,0,-7.2395891266,1.8158735731,-0.7213781796\C,0,-8.5443000131,2.2246
 332448,-0.9420743497\C,0,-9.6380555278,1.4955758571,-0.4809857945\C,0,
 -9.3809805114,0.3168092231,0.224302823\C,0,-8.0924434545,-0.1199679802
 ,0.4615171483\H,0,-5.690170663,-0.7819629863,0.8042612466\H,0,-6.41932
 49482,2.4087369444,-1.0942404992\Cl,0,-8.7779062022,3.7134179057,-1.83
 60999269\C,0,-11.0462367431,1.9398537959,-0.7200782996\H,0,-10.2102927
 615,-0.2723255424,0.5956842839\H,0,-7.9236310979,-1.0443475222,1.01496
 84758\F,0,-11.9378241604,1.0839350028,-0.1903238042\F,0,-11.3168883638
 ,3.1442553671,-0.1804307483\F,0,-11.3526228599,2.0376227109,-2.0283023
 271\O,0,-7.6788682244,-2.822906034,2.062954419\O,0,-5.5725151505,-2.19
 12391024,1.6114231427\C,0,-6.4446636102,-2.9682860142,2.0908183697\C,0
 ,-5.9171945807,-4.2381019714,2.7900807544\H,0,-6.306399379,-4.22276597
 72,3.8133435289\H,0,-6.399023775,-5.0933511568,2.3054924718\C,0,-4.401
 4285392,-4.3843148826,2.7825524567\H,0,-4.021302456,-4.4077101962,1.75
 98048455\H,0,-3.9296605867,-3.5302737216,3.2712052646\H,0,-4.083911397
 ,-5.2992854409,3.2938594308\C,0,-1.8711396146,-0.0345767267,-1.4463063
 628\H,0,-1.9909096876,-1.1179734214,-1.5360635489\H,0,-2.5784711551,0.
 4318275978,-2.1358954116\H,0,-1.5667554089,-0.102002389,0.6940074378\H
 ,0,-2.1626335135,1.4610028634,0.0882679723\C,0,-0.4430526184,0.3779151
 044,-1.7912572014\H,0,-0.176078529,0.0771121817,-2.8062447115\H,0,-0.3
 201771101,1.4623216466,-1.7243121997\H,0,0.2785978079,-0.0810076857,-1
 .1090631717\\Version=ES64L-G16RevC.01\State=1-A\HF=-1654.6558743\MP2=-
 1656.8747574\RMSD=2.905e-09\PG=C01 [X(C14H16Cl1F3N1O4)]\\@
 The archive entry for this job was punched.


 AND THIS OUR LIFE, EXEMPT FROM PUBLIC HAUNT,
 FINDS TONGUES IN TREES, BOOKS IN THE RUNNING BROOKS,
 SERMONS IN STONES, AND GOOD IN EVERYTHING.
 I WOULD NOT CHANGE IT. -- W. SHAKESPEARE
 AS YOU LIKE IT, ACT II, SCENE 1.
 Job cpu time:      10 days  1 hours 55 minutes  9.1 seconds.
 Elapsed time:       0 days  7 hours 35 minutes 13.6 seconds.
 File lengths (MBytes):  RWF=   1053 Int=      0 D2E=      0 Chk=    134 Scr=      1
 Normal termination of Gaussian 16 at Wed Apr 28 19:30:43 2021.
