 Entering Gaussian System, Link 0=/apps/gaussian/g16c01/g16/g16
 Initial command:
 /apps/gaussian/g16c01/g16/l1.exe "/jobfs/19478772.gadi-pbs/Gau-1599007.inp" -scrdir="/jobfs/19478772.gadi-pbs/"
 Entering Link 1 = /apps/gaussian/g16c01/g16/l1.exe PID=   1599008.
  
 Copyright (c) 1988-2019, Gaussian, Inc.  All Rights Reserved.
  
 This is part of the Gaussian(R) 16 program.  It is based on
 the Gaussian(R) 09 system (copyright 2009, Gaussian, Inc.),
 the Gaussian(R) 03 system (copyright 2003, Gaussian, Inc.),
 the Gaussian(R) 98 system (copyright 1998, Gaussian, Inc.),
 the Gaussian(R) 94 system (copyright 1995, Gaussian, Inc.),
 the Gaussian 92(TM) system (copyright 1992, Gaussian, Inc.),
 the Gaussian 90(TM) system (copyright 1990, Gaussian, Inc.),
 the Gaussian 88(TM) system (copyright 1988, Gaussian, Inc.),
 the Gaussian 86(TM) system (copyright 1986, Carnegie Mellon
 University), and the Gaussian 82(TM) system (copyright 1983,
 Carnegie Mellon University). Gaussian is a federally registered
 trademark of Gaussian, Inc.
  
 This software contains proprietary and confidential information,
 including trade secrets, belonging to Gaussian, Inc.
  
 This software is provided under written license and may be
 used, copied, transmitted, or stored only in accord with that
 written license.
  
 The following legend is applicable only to US Government
 contracts under FAR:
  
                    RESTRICTED RIGHTS LEGEND
  
 Use, reproduction and disclosure by the US Government is
 subject to restrictions as set forth in subparagraphs (a)
 and (c) of the Commercial Computer Software - Restricted
 Rights clause in FAR 52.227-19.
  
 Gaussian, Inc.
 340 Quinnipiac St., Bldg. 40, Wallingford CT 06492
  
  
 ---------------------------------------------------------------
 Warning -- This program may not be used in any manner that
 competes with the business of Gaussian, Inc. or will provide
 assistance to any competitor of Gaussian, Inc.  The licensee
 of this program is prohibited from giving any competitor of
 Gaussian, Inc. access to this program.  By using this program,
 the user acknowledges that Gaussian, Inc. is engaged in the
 business of creating and licensing software in the field of
 computational chemistry and represents and warrants to the
 licensee that it is not a competitor of Gaussian, Inc. and that
 it will not use this program in any manner prohibited above.
 ---------------------------------------------------------------
  

 Cite this work as:
 Gaussian 16, Revision C.01,
 M. J. Frisch, G. W. Trucks, H. B. Schlegel, G. E. Scuseria, 
 M. A. Robb, J. R. Cheeseman, G. Scalmani, V. Barone, 
 G. A. Petersson, H. Nakatsuji, X. Li, M. Caricato, A. V. Marenich, 
 J. Bloino, B. G. Janesko, R. Gomperts, B. Mennucci, H. P. Hratchian, 
 J. V. Ortiz, A. F. Izmaylov, J. L. Sonnenberg, D. Williams-Young, 
 F. Ding, F. Lipparini, F. Egidi, J. Goings, B. Peng, A. Petrone, 
 T. Henderson, D. Ranasinghe, V. G. Zakrzewski, J. Gao, N. Rega, 
 G. Zheng, W. Liang, M. Hada, M. Ehara, K. Toyota, R. Fukuda, 
 J. Hasegawa, M. Ishida, T. Nakajima, Y. Honda, O. Kitao, H. Nakai, 
 T. Vreven, K. Throssell, J. A. Montgomery, Jr., J. E. Peralta, 
 F. Ogliaro, M. J. Bearpark, J. J. Heyd, E. N. Brothers, K. N. Kudin, 
 V. N. Staroverov, T. A. Keith, R. Kobayashi, J. Normand, 
 K. Raghavachari, A. P. Rendell, J. C. Burant, S. S. Iyengar, 
 J. Tomasi, M. Cossi, J. M. Millam, M. Klene, C. Adamo, R. Cammi, 
 J. W. Ochterski, R. L. Martin, K. Morokuma, O. Farkas, 
 J. B. Foresman, and D. J. Fox, Gaussian, Inc., Wallingford CT, 2019.
 
 ******************************************
 Gaussian 16:  ES64L-G16RevC.01  3-Jul-2019
                22-Mar-2021 
 ******************************************
 %NprocShared=32
 Will use up to   32 processors via shared memory.
 %Mem=10000MB
 %chk=CP19CA_carboxy.M062X_6-311pGd_opt_water_GD3.chk
 ----------------------------------------------------------------------
 # M062X/6-311+G* SCF=Tight INT(grid=ultrafine) OPT=CalcFC IOP(2/17=4) 
 EmpiricalDispersion=GD3 SCRF=(SMD,Solvent=h2o) MaxDisk=10000MB
 ----------------------------------------------------------------------
 1/10=4,18=20,19=15,26=6,38=1/1,3;
 2/9=110,12=2,17=4,18=5,40=1/2;
 3/5=4,6=6,7=11,11=2,25=1,30=1,70=32201,71=2,72=1,74=-55,75=-5,124=31,140=1/1,2,3;
 4//1;
 5/5=2,32=2,38=5,53=1/2;
 8/6=4,10=90,11=11/1;
 11/6=1,8=1,9=11,15=111,16=1/1,2,10;
 10/6=1,13=1/2;
 6/7=2,8=2,9=2,10=2,28=1/1;
 7/10=1,25=1/1,2,3,16;
 1/10=4,18=20,19=15,26=6/3(2);
 2/9=110,17=4/2;
 99//99;
 2/9=110,17=4/2;
 3/5=4,6=6,7=11,11=2,25=1,30=1,70=32205,71=1,72=1,74=-55,75=-5,124=31/1,2,3;
 4/5=5,16=3,69=1/1;
 5/5=2,32=2,38=5,53=1/2;
 7//1,2,3,16;
 1/18=20,19=15,26=6/3(-5);
 2/9=110,17=4/2;
 6/7=2,8=2,9=2,10=2,19=2,28=1/1;
 99/9=1/99;
 -------------------------------------------
 CP19CA_carboxy.M062X_6-311pGd_opt_water_GD3
 -------------------------------------------
 Symbolic Z-matrix:
 Charge = -1 Multiplicity = 1
 C                    -6.47697   1.23274   0.2571 
 N                    -5.16766   0.66992   0.44923 
 C                    -3.96005   1.21231   0.11648 
 O                    -3.86949   2.30581  -0.41816 
 O                    -2.83923   0.48841   0.36853 
 C                    -1.56654   0.86145  -0.01105 
 C                    -0.57365  -0.2065    0.44475 
 C                     0.84824   0.13631   0.01136 
 C                    -6.72511   2.5378   -0.22364 
 C                    -8.03544   3.00693  -0.39001 
 C                    -9.13587   2.17947  -0.07983 
 C                    -8.88813   0.88394   0.4024 
 C                    -7.58186   0.42278   0.56831 
 H                    -5.12564  -0.37383   0.9128 
 H                    -1.30501   1.83932   0.4506 
 H                    -1.52728   0.95595  -1.119 
 H                    -0.85726  -1.18668   0.00298 
 H                    -0.60817  -0.29271   1.55272 
 H                     0.90743   0.20021  -1.09629 
 H                     1.54374  -0.65682   0.35811 
 H                     1.1644    1.10598   0.45103 
 H                    -5.93595   3.22245  -0.47576 
 Cl                   -8.25361   4.64806  -0.99559 
 C                    -10.55511   2.67316  -0.26308 
 H                    -9.70095   0.21513   0.65283 
 H                    -7.41244  -0.69055   0.97535 
 F                    -11.48592   1.71196   0.09274 
 F                    -10.76455   3.7908    0.52423 
 F                    -10.76297   3.00526  -1.5897 
 O                    -7.00117  -2.6857    1.36488 
 O                    -4.78858  -2.3804    1.31149 
 C                    -5.73321  -3.14693   1.46019 
 C                    -5.50519  -4.60757   1.7448 
 C                    -4.02375  -4.97817   1.82701 
 H                    -5.97949  -5.20424   0.93662 
 H                    -5.99253  -4.86358   2.7095 
 H                    -3.51409  -4.75095   0.86609 
 H                    -3.92217  -6.06424   2.03406 
 H                    -3.52978  -4.41301   2.64629 
 
 Add virtual bond connecting atoms O30        and H26        Dist= 3.92D+00.
 Add virtual bond connecting atoms O31        and H14        Dist= 3.92D+00.

 GradGradGradGradGradGradGradGradGradGradGradGradGradGradGradGradGradGrad
 Berny optimization.
 Initialization pass.
                           ----------------------------
                           !    Initial Parameters    !
                           ! (Angstroms and Degrees)  !
 --------------------------                            --------------------------
 ! Name  Definition              Value          Derivative Info.                !
 --------------------------------------------------------------------------------
 ! R1    R(1,2)                  1.438          calculate D2E/DX2 analytically  !
 ! R2    R(1,9)                  1.4128         calculate D2E/DX2 analytically  !
 ! R3    R(1,13)                 1.4049         calculate D2E/DX2 analytically  !
 ! R4    R(2,3)                  1.365          calculate D2E/DX2 analytically  !
 ! R5    R(2,14)                 1.1428         calculate D2E/DX2 analytically  !
 ! R6    R(3,4)                  1.2206         calculate D2E/DX2 analytically  !
 ! R7    R(3,5)                  1.3579         calculate D2E/DX2 analytically  !
 ! R8    R(5,6)                  1.3795         calculate D2E/DX2 analytically  !
 ! R9    R(6,7)                  1.5278         calculate D2E/DX2 analytically  !
 ! R10   R(6,15)                 1.1125         calculate D2E/DX2 analytically  !
 ! R11   R(6,16)                 1.1127         calculate D2E/DX2 analytically  !
 ! R12   R(7,8)                  1.5255         calculate D2E/DX2 analytically  !
 ! R13   R(7,17)                 1.1119         calculate D2E/DX2 analytically  !
 ! R14   R(7,18)                 1.1119         calculate D2E/DX2 analytically  !
 ! R15   R(8,19)                 1.1111         calculate D2E/DX2 analytically  !
 ! R16   R(8,20)                 1.1104         calculate D2E/DX2 analytically  !
 ! R17   R(8,21)                 1.1106         calculate D2E/DX2 analytically  !
 ! R18   R(9,10)                 1.4017         calculate D2E/DX2 analytically  !
 ! R19   R(9,22)                 1.0747         calculate D2E/DX2 analytically  !
 ! R20   R(10,11)                1.4113         calculate D2E/DX2 analytically  !
 ! R21   R(10,23)                1.7628         calculate D2E/DX2 analytically  !
 ! R22   R(11,12)                1.4044         calculate D2E/DX2 analytically  !
 ! R23   R(11,24)                1.5138         calculate D2E/DX2 analytically  !
 ! R24   R(12,13)                1.3952         calculate D2E/DX2 analytically  !
 ! R25   R(12,25)                1.082          calculate D2E/DX2 analytically  !
 ! R26   R(13,26)                1.1975         calculate D2E/DX2 analytically  !
 ! R27   R(14,31)                2.0734         calculate D2E/DX2 analytically  !
 ! R28   R(24,27)                1.3845         calculate D2E/DX2 analytically  !
 ! R29   R(24,28)                1.3831         calculate D2E/DX2 analytically  !
 ! R30   R(24,29)                1.3833         calculate D2E/DX2 analytically  !
 ! R31   R(26,30)                2.074          calculate D2E/DX2 analytically  !
 ! R32   R(30,32)                1.3526         calculate D2E/DX2 analytically  !
 ! R33   R(31,32)                1.2256         calculate D2E/DX2 analytically  !
 ! R34   R(32,33)                1.5055         calculate D2E/DX2 analytically  !
 ! R35   R(33,34)                1.5293         calculate D2E/DX2 analytically  !
 ! R36   R(33,35)                1.1109         calculate D2E/DX2 analytically  !
 ! R37   R(33,36)                1.1107         calculate D2E/DX2 analytically  !
 ! R38   R(34,37)                1.1112         calculate D2E/DX2 analytically  !
 ! R39   R(34,38)                1.1103         calculate D2E/DX2 analytically  !
 ! R40   R(34,39)                1.1111         calculate D2E/DX2 analytically  !
 ! A1    A(2,1,9)              124.5363         calculate D2E/DX2 analytically  !
 ! A2    A(2,1,13)             117.4403         calculate D2E/DX2 analytically  !
 ! A3    A(9,1,13)             118.0233         calculate D2E/DX2 analytically  !
 ! A4    A(1,2,3)              128.1273         calculate D2E/DX2 analytically  !
 ! A5    A(1,2,14)             116.4308         calculate D2E/DX2 analytically  !
 ! A6    A(3,2,14)             115.4203         calculate D2E/DX2 analytically  !
 ! A7    A(2,3,4)              121.8979         calculate D2E/DX2 analytically  !
 ! A8    A(2,3,5)              118.24           calculate D2E/DX2 analytically  !
 ! A9    A(4,3,5)              119.8467         calculate D2E/DX2 analytically  !
 ! A10   A(3,5,6)              124.4916         calculate D2E/DX2 analytically  !
 ! A11   A(5,6,7)              109.1752         calculate D2E/DX2 analytically  !
 ! A12   A(5,6,15)             109.9002         calculate D2E/DX2 analytically  !
 ! A13   A(5,6,16)             109.2393         calculate D2E/DX2 analytically  !
 ! A14   A(7,6,15)             109.7451         calculate D2E/DX2 analytically  !
 ! A15   A(7,6,16)             109.4823         calculate D2E/DX2 analytically  !
 ! A16   A(15,6,16)            109.2838         calculate D2E/DX2 analytically  !
 ! A17   A(6,7,8)              111.3407         calculate D2E/DX2 analytically  !
 ! A18   A(6,7,17)             109.3847         calculate D2E/DX2 analytically  !
 ! A19   A(6,7,18)             109.3491         calculate D2E/DX2 analytically  !
 ! A20   A(8,7,17)             108.8424         calculate D2E/DX2 analytically  !
 ! A21   A(8,7,18)             109.2366         calculate D2E/DX2 analytically  !
 ! A22   A(17,7,18)            108.6417         calculate D2E/DX2 analytically  !
 ! A23   A(7,8,19)             110.2309         calculate D2E/DX2 analytically  !
 ! A24   A(7,8,20)             109.5471         calculate D2E/DX2 analytically  !
 ! A25   A(7,8,21)             110.43           calculate D2E/DX2 analytically  !
 ! A26   A(19,8,20)            108.6038         calculate D2E/DX2 analytically  !
 ! A27   A(19,8,21)            109.2247         calculate D2E/DX2 analytically  !
 ! A28   A(20,8,21)            108.7651         calculate D2E/DX2 analytically  !
 ! A29   A(1,9,10)             120.9147         calculate D2E/DX2 analytically  !
 ! A30   A(1,9,22)             122.638          calculate D2E/DX2 analytically  !
 ! A31   A(10,9,22)            116.4467         calculate D2E/DX2 analytically  !
 ! A32   A(9,10,11)            120.4362         calculate D2E/DX2 analytically  !
 ! A33   A(9,10,23)            117.9077         calculate D2E/DX2 analytically  !
 ! A34   A(11,10,23)           121.6561         calculate D2E/DX2 analytically  !
 ! A35   A(10,11,12)           118.6053         calculate D2E/DX2 analytically  !
 ! A36   A(10,11,24)           120.8772         calculate D2E/DX2 analytically  !
 ! A37   A(12,11,24)           120.5175         calculate D2E/DX2 analytically  !
 ! A38   A(11,12,13)           120.7244         calculate D2E/DX2 analytically  !
 ! A39   A(11,12,25)           121.1427         calculate D2E/DX2 analytically  !
 ! A40   A(13,12,25)           118.1327         calculate D2E/DX2 analytically  !
 ! A41   A(1,13,12)            121.2947         calculate D2E/DX2 analytically  !
 ! A42   A(1,13,26)            120.0041         calculate D2E/DX2 analytically  !
 ! A43   A(12,13,26)           118.6989         calculate D2E/DX2 analytically  !
 ! A44   A(11,24,27)           111.8872         calculate D2E/DX2 analytically  !
 ! A45   A(11,24,28)           109.6703         calculate D2E/DX2 analytically  !
 ! A46   A(11,24,29)           109.5894         calculate D2E/DX2 analytically  !
 ! A47   A(27,24,28)           108.2347         calculate D2E/DX2 analytically  !
 ! A48   A(27,24,29)           108.1874         calculate D2E/DX2 analytically  !
 ! A49   A(28,24,29)           109.2189         calculate D2E/DX2 analytically  !
 ! A50   A(26,30,32)           121.8132         calculate D2E/DX2 analytically  !
 ! A51   A(14,31,32)           120.2205         calculate D2E/DX2 analytically  !
 ! A52   A(30,32,31)           120.0472         calculate D2E/DX2 analytically  !
 ! A53   A(30,32,33)           119.0873         calculate D2E/DX2 analytically  !
 ! A54   A(31,32,33)           120.8652         calculate D2E/DX2 analytically  !
 ! A55   A(32,33,34)           113.0789         calculate D2E/DX2 analytically  !
 ! A56   A(32,33,35)           108.5967         calculate D2E/DX2 analytically  !
 ! A57   A(32,33,36)           108.7457         calculate D2E/DX2 analytically  !
 ! A58   A(34,33,35)           108.8163         calculate D2E/DX2 analytically  !
 ! A59   A(34,33,36)           108.8133         calculate D2E/DX2 analytically  !
 ! A60   A(35,33,36)           108.7071         calculate D2E/DX2 analytically  !
 ! A61   A(33,34,37)           110.3813         calculate D2E/DX2 analytically  !
 ! A62   A(33,34,38)           109.615          calculate D2E/DX2 analytically  !
 ! A63   A(33,34,39)           110.3056         calculate D2E/DX2 analytically  !
 ! A64   A(37,34,38)           108.6221         calculate D2E/DX2 analytically  !
 ! A65   A(37,34,39)           109.2512         calculate D2E/DX2 analytically  !
 ! A66   A(38,34,39)           108.6245         calculate D2E/DX2 analytically  !
 ! A67   L(2,14,31,5,-1)       171.4362         calculate D2E/DX2 analytically  !
 ! A68   L(13,26,30,5,-1)      176.1985         calculate D2E/DX2 analytically  !
 ! A69   L(2,14,31,5,-2)       192.3672         calculate D2E/DX2 analytically  !
 ! A70   L(13,26,30,5,-2)      188.7512         calculate D2E/DX2 analytically  !
 ! D1    D(9,1,2,3)             -5.8327         calculate D2E/DX2 analytically  !
 ! D2    D(9,1,2,14)           175.949          calculate D2E/DX2 analytically  !
 ! D3    D(13,1,2,3)           174.0354         calculate D2E/DX2 analytically  !
 ! D4    D(13,1,2,14)           -4.1829         calculate D2E/DX2 analytically  !
 ! D5    D(2,1,9,10)           179.5984         calculate D2E/DX2 analytically  !
 ! D6    D(2,1,9,22)            -0.6945         calculate D2E/DX2 analytically  !
 ! D7    D(13,1,9,10)           -0.269          calculate D2E/DX2 analytically  !
 ! D8    D(13,1,9,22)          179.4381         calculate D2E/DX2 analytically  !
 ! D9    D(2,1,13,12)         -179.4952         calculate D2E/DX2 analytically  !
 ! D10   D(2,1,13,26)           -0.0585         calculate D2E/DX2 analytically  !
 ! D11   D(9,1,13,12)            0.3818         calculate D2E/DX2 analytically  !
 ! D12   D(9,1,13,26)          179.8184         calculate D2E/DX2 analytically  !
 ! D13   D(1,2,3,4)             -0.1938         calculate D2E/DX2 analytically  !
 ! D14   D(1,2,3,5)           -178.7613         calculate D2E/DX2 analytically  !
 ! D15   D(14,2,3,4)           178.0397         calculate D2E/DX2 analytically  !
 ! D16   D(14,2,3,5)            -0.5278         calculate D2E/DX2 analytically  !
 ! D17   D(1,2,31,32)            2.152          calculate D2E/DX2 analytically  !
 ! D18   D(3,2,31,32)         -168.6357         calculate D2E/DX2 analytically  !
 ! D19   D(2,3,5,6)            174.5189         calculate D2E/DX2 analytically  !
 ! D20   D(4,3,5,6)             -4.079          calculate D2E/DX2 analytically  !
 ! D21   D(3,5,6,7)           -179.8211         calculate D2E/DX2 analytically  !
 ! D22   D(3,5,6,15)            59.7624         calculate D2E/DX2 analytically  !
 ! D23   D(3,5,6,16)           -60.1275         calculate D2E/DX2 analytically  !
 ! D24   D(5,6,7,8)            178.2397         calculate D2E/DX2 analytically  !
 ! D25   D(5,6,7,17)            57.9051         calculate D2E/DX2 analytically  !
 ! D26   D(5,6,7,18)           -60.9568         calculate D2E/DX2 analytically  !
 ! D27   D(15,6,7,8)           -61.2487         calculate D2E/DX2 analytically  !
 ! D28   D(15,6,7,17)          178.4166         calculate D2E/DX2 analytically  !
 ! D29   D(15,6,7,18)           59.5548         calculate D2E/DX2 analytically  !
 ! D30   D(16,6,7,8)            58.6963         calculate D2E/DX2 analytically  !
 ! D31   D(16,6,7,17)          -61.6383         calculate D2E/DX2 analytically  !
 ! D32   D(16,6,7,18)          179.4999         calculate D2E/DX2 analytically  !
 ! D33   D(6,7,8,19)           -60.6142         calculate D2E/DX2 analytically  !
 ! D34   D(6,7,8,20)           179.9374         calculate D2E/DX2 analytically  !
 ! D35   D(6,7,8,21)            60.1669         calculate D2E/DX2 analytically  !
 ! D36   D(17,7,8,19)           60.0396         calculate D2E/DX2 analytically  !
 ! D37   D(17,7,8,20)          -59.4089         calculate D2E/DX2 analytically  !
 ! D38   D(17,7,8,21)         -179.1794         calculate D2E/DX2 analytically  !
 ! D39   D(18,7,8,19)          178.5163         calculate D2E/DX2 analytically  !
 ! D40   D(18,7,8,20)           59.0679         calculate D2E/DX2 analytically  !
 ! D41   D(18,7,8,21)          -60.7026         calculate D2E/DX2 analytically  !
 ! D42   D(1,9,10,11)           -0.0558         calculate D2E/DX2 analytically  !
 ! D43   D(1,9,10,23)         -179.9811         calculate D2E/DX2 analytically  !
 ! D44   D(22,9,10,11)        -179.7803         calculate D2E/DX2 analytically  !
 ! D45   D(22,9,10,23)           0.2943         calculate D2E/DX2 analytically  !
 ! D46   D(9,10,11,12)           0.2728         calculate D2E/DX2 analytically  !
 ! D47   D(9,10,11,24)        -179.6537         calculate D2E/DX2 analytically  !
 ! D48   D(23,10,11,12)       -179.8048         calculate D2E/DX2 analytically  !
 ! D49   D(23,10,11,24)          0.2687         calculate D2E/DX2 analytically  !
 ! D50   D(10,11,12,13)         -0.1629         calculate D2E/DX2 analytically  !
 ! D51   D(10,11,12,25)       -179.9915         calculate D2E/DX2 analytically  !
 ! D52   D(24,11,12,13)        179.7639         calculate D2E/DX2 analytically  !
 ! D53   D(24,11,12,25)         -0.0647         calculate D2E/DX2 analytically  !
 ! D54   D(10,11,24,27)        179.825          calculate D2E/DX2 analytically  !
 ! D55   D(10,11,24,28)        -60.061          calculate D2E/DX2 analytically  !
 ! D56   D(10,11,24,29)         59.8245         calculate D2E/DX2 analytically  !
 ! D57   D(12,11,24,27)         -0.1002         calculate D2E/DX2 analytically  !
 ! D58   D(12,11,24,28)        120.0139         calculate D2E/DX2 analytically  !
 ! D59   D(12,11,24,29)       -120.1006         calculate D2E/DX2 analytically  !
 ! D60   D(11,12,13,1)          -0.169          calculate D2E/DX2 analytically  !
 ! D61   D(11,12,13,26)       -179.6128         calculate D2E/DX2 analytically  !
 ! D62   D(25,12,13,1)         179.6647         calculate D2E/DX2 analytically  !
 ! D63   D(25,12,13,26)          0.2209         calculate D2E/DX2 analytically  !
 ! D64   D(1,13,30,32)           3.5357         calculate D2E/DX2 analytically  !
 ! D65   D(12,13,30,32)        176.6995         calculate D2E/DX2 analytically  !
 ! D66   D(26,30,32,31)         -0.2115         calculate D2E/DX2 analytically  !
 ! D67   D(26,30,32,33)       -179.9899         calculate D2E/DX2 analytically  !
 ! D68   D(14,31,32,30)         -0.0158         calculate D2E/DX2 analytically  !
 ! D69   D(14,31,32,33)        179.7586         calculate D2E/DX2 analytically  !
 ! D70   D(30,32,33,34)       -179.8591         calculate D2E/DX2 analytically  !
 ! D71   D(30,32,33,35)         59.2584         calculate D2E/DX2 analytically  !
 ! D72   D(30,32,33,36)        -58.8762         calculate D2E/DX2 analytically  !
 ! D73   D(31,32,33,34)          0.3643         calculate D2E/DX2 analytically  !
 ! D74   D(31,32,33,35)       -120.5182         calculate D2E/DX2 analytically  !
 ! D75   D(31,32,33,36)        121.3472         calculate D2E/DX2 analytically  !
 ! D76   D(32,33,34,37)        -60.1732         calculate D2E/DX2 analytically  !
 ! D77   D(32,33,34,38)       -179.7797         calculate D2E/DX2 analytically  !
 ! D78   D(32,33,34,39)         60.6579         calculate D2E/DX2 analytically  !
 ! D79   D(35,33,34,37)         60.5847         calculate D2E/DX2 analytically  !
 ! D80   D(35,33,34,38)        -59.0218         calculate D2E/DX2 analytically  !
 ! D81   D(35,33,34,39)       -178.5843         calculate D2E/DX2 analytically  !
 ! D82   D(36,33,34,37)        178.8822         calculate D2E/DX2 analytically  !
 ! D83   D(36,33,34,38)         59.2757         calculate D2E/DX2 analytically  !
 ! D84   D(36,33,34,39)        -60.2867         calculate D2E/DX2 analytically  !
 --------------------------------------------------------------------------------
 Trust Radius=3.00D-01 FncErr=5.00D-06 GrdErr=5.00D-06 EigMax=2.50D+02 EigMin=1.00D-04
 Number of steps in this run=    204 maximum allowed number of steps=    234.
 GradGradGradGradGradGradGradGradGradGradGradGradGradGradGradGradGradGrad

                          Input orientation:                          
 ---------------------------------------------------------------------
 Center     Atomic      Atomic             Coordinates (Angstroms)
 Number     Number       Type             X           Y           Z
 ---------------------------------------------------------------------
      1          6           0       -6.476970    1.232740    0.257100
      2          7           0       -5.167660    0.669920    0.449230
      3          6           0       -3.960050    1.212310    0.116480
      4          8           0       -3.869490    2.305810   -0.418160
      5          8           0       -2.839230    0.488410    0.368530
      6          6           0       -1.566540    0.861450   -0.011050
      7          6           0       -0.573650   -0.206500    0.444750
      8          6           0        0.848240    0.136310    0.011360
      9          6           0       -6.725110    2.537800   -0.223640
     10          6           0       -8.035440    3.006930   -0.390010
     11          6           0       -9.135870    2.179470   -0.079830
     12          6           0       -8.888130    0.883940    0.402400
     13          6           0       -7.581860    0.422780    0.568310
     14          1           0       -5.125640   -0.373830    0.912800
     15          1           0       -1.305010    1.839320    0.450600
     16          1           0       -1.527280    0.955950   -1.119000
     17          1           0       -0.857260   -1.186680    0.002980
     18          1           0       -0.608170   -0.292710    1.552720
     19          1           0        0.907430    0.200210   -1.096290
     20          1           0        1.543740   -0.656820    0.358110
     21          1           0        1.164400    1.105980    0.451030
     22          1           0       -5.935950    3.222450   -0.475760
     23         17           0       -8.253610    4.648060   -0.995590
     24          6           0      -10.555110    2.673160   -0.263080
     25          1           0       -9.700950    0.215130    0.652830
     26          1           0       -7.412440   -0.690550    0.975350
     27          9           0      -11.485920    1.711960    0.092740
     28          9           0      -10.764550    3.790800    0.524230
     29          9           0      -10.762970    3.005260   -1.589700
     30          8           0       -7.001170   -2.685700    1.364880
     31          8           0       -4.788580   -2.380400    1.311490
     32          6           0       -5.733210   -3.146930    1.460190
     33          6           0       -5.505190   -4.607570    1.744800
     34          6           0       -4.023750   -4.978170    1.827010
     35          1           0       -5.979490   -5.204240    0.936620
     36          1           0       -5.992530   -4.863580    2.709500
     37          1           0       -3.514090   -4.750950    0.866090
     38          1           0       -3.922170   -6.064240    2.034060
     39          1           0       -3.529780   -4.413010    2.646290
 ---------------------------------------------------------------------
                    Distance matrix (angstroms):
                    1          2          3          4          5
     1  C    0.000000
     2  N    1.438045   0.000000
     3  C    2.520928   1.365002   0.000000
     4  O    2.899380   2.261360   1.220567   0.000000
     5  O    3.714781   2.336888   1.357865   2.232322   0.000000
     6  C    4.931742   3.635465   2.422449   2.748726   1.379485
     7  C    6.079129   4.676864   3.686257   4.233069   2.370983
     8  C    7.410887   6.055371   4.928334   5.210393   3.721422
     9  C    1.412751   2.523367   3.085152   2.871624   4.432914
    10  C    2.448536   3.793429   4.481740   4.224630   5.823996
    11  C    2.842458   4.278474   5.269065   5.278749   6.535165
    12  C    2.440587   3.726915   4.947277   5.280320   6.061912
    13  C    1.404873   2.429737   3.734303   4.277922   4.747290
    14  H    2.199341   1.142837   2.123338   3.244971   2.503469
    15  H    5.211003   4.035785   2.748457   2.747529   2.045855
    16  H    5.144871   3.974107   2.740529   2.792713   2.037781
    17  H    6.123668   4.714409   3.923690   4.631239   2.620641
    18  H    6.200681   4.788872   3.944993   4.612253   2.643877
    19  H    7.578070   6.286174   5.117374   5.264255   4.033140
    20  H    8.240900   6.841888   5.817537   6.219552   4.530131
    21  H    7.644881   6.347057   5.136460   5.247393   4.051821
    22  H    2.188317   2.821575   2.880207   2.261372   4.216334
    23  Cl   4.048468   5.237957   5.610324   5.004005   6.962688
    24  C    4.356217   5.791802   6.765572   6.697500   8.044058
    25  H    3.403848   4.560593   5.851493   6.286803   6.873042
    26  H    2.256110   2.677073   4.034542   4.844847   4.761557
    27  F    5.034506   6.413528   7.542475   7.656610   8.737184
    28  F    4.999837   6.408642   7.288079   7.115838   8.587242
    29  F    4.992223   6.396760   7.239160   7.027219   8.541361
    30  O    4.105622   3.931966   5.099156   6.156446   5.328173
    31  O    4.125188   3.192436   3.875832   5.079073   3.594330
    32  C    4.602403   3.988763   4.894142   6.060860   4.773106
    33  C    6.104656   5.444661   6.237779   7.426219   5.913584
    34  C    6.859906   5.925178   6.422773   7.623710   5.780463
    35  H    6.491837   5.949989   6.776642   7.917599   6.526119
    36  H    6.588935   6.033975   6.911669   8.104919   6.638316
    37  H    6.704780   5.682772   6.026713   7.181467   5.306024
    38  H    7.932875   7.029356   7.525073   8.722035   6.847187
    39  H    6.802106   5.774591   6.182984   7.392483   5.448758
                    6          7          8          9         10
     6  C    0.000000
     7  C    1.527777   0.000000
     8  C    2.521407   1.525489   0.000000
     9  C    5.428277   6.768928   7.948460   0.000000
    10  C    6.825933   8.167084   9.344588   1.401687   0.000000
    11  C    7.683532   8.903912  10.191431   2.441484   1.411328
    12  C    7.333289   8.385787   9.772859   2.793892   2.421173
    13  C    6.059056   7.037490   8.453333   2.415474   2.793196
    14  H    3.878996   4.579048   6.063009   3.511038   4.646912
    15  H    1.112541   2.172625   2.780227   5.506356   6.882487
    16  H    1.112666   2.169335   2.755471   5.506483   6.862514
    17  H    2.167513   1.111912   2.158496   6.953760   8.322684
    18  H    2.167011   1.111855   2.163557   6.970236   8.356205
    19  H    2.781279   2.175733   1.111069   8.030038   9.399544
    20  H    3.480699   2.166480   1.110410   8.883575  10.283163
    21  H    2.780530   2.177949   1.110643   8.046717   9.431756
    22  H    4.988188   6.431120   7.469055   1.074748   2.112264
    23  Cl   7.747557   9.199082  10.208502   2.717612   1.762848
    24  C    9.172797  10.412637  11.685346   3.832594   2.544848
    25  H    8.187008   9.139402  10.568969   3.875386   3.414028
    26  H    6.128314   6.876401   8.357739   3.511729   3.990451
    27  F    9.956317  11.085217  12.434661   4.842254   3.716962
    28  F    9.668040  10.947108  12.185041   4.294927   2.983007
    29  F    9.574047  10.875506  12.067082   4.288234   2.979711
    30  O    6.634053   6.950258   8.450384   5.466677   6.046105
    31  O    4.758177   4.821070   6.308558   5.504132   6.516174
    32  C    5.965970   6.024808   7.496283   6.011265   6.825943
    33  C    6.964636   6.736441   8.116359   7.511276   8.303023
    34  C    6.596780   6.048361   7.293201   8.245745   9.207098
    35  H    7.560741   7.378513   8.717538   7.863926   8.567975
    36  H    7.730896   7.495448   8.892412   7.995024   8.702033
    37  H    6.005111   5.429157   6.606497   8.038908   9.066703
    38  H    7.595831   6.931927   8.080529   9.324633  10.250914
    39  H    6.223801   5.592871   6.841508   8.170703   9.196499
                   11         12         13         14         15
    11  C    0.000000
    12  C    1.404393   0.000000
    13  C    2.433309   1.395183   0.000000
    14  H    4.856604   3.999853   2.605048   0.000000
    15  H    7.856171   7.643218   6.435782   4.439468   0.000000
    16  H    7.776086   7.516778   6.307870   4.341051   1.814770
    17  H    8.937181   8.303125   6.937594   4.439320   3.091524
    18  H    9.027655   8.441888   7.079078   4.563290   2.499161
    19  H   10.286814   9.933104   8.653813   6.384661   3.158234
    20  H   11.058499  10.545132   9.191643   6.698387   3.788753
    21  H   10.369656  10.055100   8.773687   6.478246   2.576000
    22  H    3.388813   3.867190   3.411342   3.939281   4.921056
    23  Cl   2.776857   4.065168   4.555219   6.216553   7.633055
    24  C    1.513787   2.534363   3.820423   6.336086   9.314987
    25  H    2.171345   1.081988   2.130916   4.620381   8.553987
    26  H    3.510076   2.232700   1.197451   2.309476   6.631463
    27  F    2.402307   2.744088   4.138821   6.743603  10.187994
    28  F    2.369361   3.462027   4.634115   7.020857   9.659016
    29  F    2.368352   3.461717   4.630947   7.032798   9.745524
    30  O    5.505816   4.150821   3.261039   3.011101   7.331981
    31  O    6.451908   5.318709   4.026481   2.073376   5.539172
    32  C    6.505405   5.226887   4.117740   2.891169   6.744695
    33  C    7.910438   6.588096   5.567864   4.331378   7.802490
    34  C    9.000090   7.749583   6.588986   4.821814   7.467545
    35  H    8.094139   6.768420   5.862303   4.905353   8.467509
    36  H    8.201555   6.836753   5.920833   4.912991   8.485537
    37  H    8.973845   7.800468   6.588088   4.664596   6.963069
    38  H    9.980479   8.694842   7.590994   5.923372   8.474853
    39  H    9.073079   7.861592   6.642456   4.676188   6.990156
                   16         17         18         19         20
    16  H    0.000000
    17  H    2.509707   0.000000
    18  H    3.089013   1.806356   0.000000
    19  H    2.549406   2.499198   3.091483   0.000000
    20  H    3.770152   2.484285   2.488049   1.804070   0.000000
    21  H    3.119719   3.089360   2.512381   1.811257   1.805546
    22  H    4.998715   6.742604   6.697486   7.506720   8.466985
    23  Cl   7.674009   9.473507   9.452928  10.184212  11.223294
    24  C    9.229470  10.441142  10.537321  11.755830  12.564108
    25  H    8.396254   8.977652   9.151303  10.751622  11.282296
    26  H    6.460060   6.645452   6.840301   8.620057   8.977488
    27  F   10.060536  11.017195  11.156867  12.541703  13.245889
    28  F    9.801211  11.099613  10.994767  12.318829  13.088274
    29  F    9.472022  10.873458  11.129752  12.012910  12.986913
    30  O    7.028140   6.469116   6.828773   8.771077   8.839990
    31  O    5.260664   4.311895   4.678939   6.700857   6.631586
    32  C    6.416829   5.453524   5.866956   7.863653   7.769764
    33  C    7.414707   6.028240   6.529603   8.503425   8.198704
    34  C    7.079909   5.265847   5.804736   7.725143   7.199214
    35  H    7.873734   6.576451   7.304368   8.987239   8.809807
    36  H    8.274225   6.871378   7.156977   9.366721   8.945459
    37  H    6.360558   4.528546   5.365793   6.922049   6.526989
    38  H    8.059799   6.108154   6.672694   8.506907   7.869255
    39  H    6.856613   4.953651   5.168034   7.414684   6.714562
                   21         22         23         24         25
    21  H    0.000000
    22  H    7.466817   0.000000
    23  Cl  10.165528   2.770223   0.000000
    24  C   11.845376   4.656564   3.119888   0.000000
    25  H   10.903677   4.949032   4.946003   2.758694   0.000000
    26  H    8.778645   4.426885   5.752645   4.767036   2.482248
    27  F   12.669893   5.779874   4.500330   1.384529   2.395896
    28  F   12.227570   4.963706   3.057706   1.383055   3.732720
    29  F   12.248837   4.958645   3.057556   1.383263   3.733852
    30  O    9.049226   6.279242   7.805412   6.633108   4.026244
    31  O    6.952209   5.991882   8.168739   7.827554   5.594818
    32  C    8.165946   6.660181   8.552493   7.752021   5.262912
    33  C    8.877045   8.150194  10.036445   9.085279   6.485001
    34  C    8.113390   8.729801  10.886831  10.274726   7.783294
    35  H    9.544100   8.544344  10.294313   9.188526   6.580226
    36  H    9.589472   8.690970  10.455213   9.298162   6.616311
    37  H    7.507608   8.440443  10.689728  10.294095   7.936288
    38  H    8.932594   9.828383  11.945439  11.207805   8.644801
    39  H    7.570584   8.592852  10.848080  10.393917   7.967239
                   26         27         28         29         30
    26  H    0.000000
    27  F    4.810852   0.000000
    28  F    5.614503   2.242350   0.000000
    29  F    5.609327   2.241849   2.255166   0.000000
    30  O    2.074006   6.408645   7.537558   7.434225   0.000000
    31  O    3.138985   7.942740   8.626454   8.550764   2.234192
    32  C    3.014745   7.653261   8.621050   8.511742   1.352605
    33  C    4.424105   8.856348   9.984151   9.834547   2.464930
    34  C    5.531024  10.171013  11.136896  10.992095   3.786029
    35  H    4.735847   8.880694  10.196941   9.831575   2.751414
    36  H    4.736834   8.958934  10.121555  10.156715   2.751094
    37  H    5.629913  10.291615  11.209261  10.896603   4.083354
    38  H    6.494567  11.020360  12.092128  11.924094   4.619803
    39  H    5.632388  10.360311  11.142151  11.193452   4.083645
                   31         32         33         34         35
    31  O    0.000000
    32  C    1.225563   0.000000
    33  C    2.379406   1.505478   0.000000
    34  C    2.756653   2.531847   1.529303   0.000000
    35  H    3.087534   2.137125   1.110914   2.160745   0.000000
    36  H    3.093560   2.138904   1.110715   2.160559   1.805359
    37  H    2.728042   2.801844   2.181093   1.111193   2.507717
    38  H    3.852720   3.481363   2.170602   1.110287   2.485265
    39  H    2.738206   2.804442   2.180088   1.111140   3.090323
                   36         37         38         39
    36  H    0.000000
    37  H    3.090875   0.000000
    38  H    2.486804   1.804277   0.000000
    39  H    2.504425   1.812060   1.804261   0.000000
 Stoichiometry    C14H16ClF3NO4(1-)
 Framework group  C1[X(C14H16ClF3NO4)]
 Deg. of freedom   111
 Full point group                 C1      NOp   1
 Largest Abelian subgroup         C1      NOp   1
 Largest concise Abelian subgroup C1      NOp   1
                         Standard orientation:                         
 ---------------------------------------------------------------------
 Center     Atomic      Atomic             Coordinates (Angstroms)
 Number     Number       Type             X           Y           Z
 ---------------------------------------------------------------------
      1          6           0       -0.466069   -0.260391   -0.149416
      2          7           0        0.954220   -0.478401   -0.206188
      3          6           0        1.631077   -1.658089   -0.090293
      4          8           0        1.053355   -2.718219    0.088995
      5          8           0        2.987327   -1.629205   -0.149873
      6          6           0        3.801916   -2.722670    0.059313
      7          6           0        5.261656   -2.296349   -0.087357
      8          6           0        6.209655   -3.461821    0.177388
      9          6           0       -1.431840   -1.288721   -0.073990
     10          6           0       -2.799764   -0.988932   -0.013680
     11          6           0       -3.238978    0.352256   -0.026106
     12          6           0       -2.278387    1.373643   -0.105795
     13          6           0       -0.918147    1.069628   -0.167923
     14          1           0        1.606671    0.450740   -0.336885
     15          1           0        3.566261   -3.517836   -0.682256
     16          1           0        3.631498   -3.115718    1.086199
     17          1           0        5.482812   -1.481955    0.636659
     18          1           0        5.431649   -1.912464   -1.116899
     19          1           0        6.072171   -3.841412    1.212513
     20          1           0        7.259851   -3.120098    0.061950
     21          1           0        6.021013   -4.286239   -0.542526
     22          1           0       -1.169329   -2.330869   -0.064115
     23         17           0       -3.935844   -2.333677    0.079140
     24          6           0       -4.713372    0.687595    0.046451
     25          1           0       -2.569322    2.415711   -0.118041
     26          1           0       -0.130046    1.969172   -0.227976
     27          9           0       -4.933481    2.054349    0.025106
     28          9           0       -5.372117    0.126259   -1.032344
     29          9           0       -5.246704    0.182642    1.218626
     30          8           0        1.325356    3.431336   -0.014951
     31          8           0        3.007305    1.964995   -0.126782
     32          6           0        2.643820    3.129425   -0.008505
     33          6           0        3.648103    4.239672    0.150341
     34          6           0        5.095326    3.745624    0.135250
     35          1           0        3.455795    4.756003    1.114992
     36          1           0        3.509437    4.967509   -0.677133
     37          1           0        5.268448    3.029434    0.967026
     38          1           0        5.784573    4.607097    0.259912
     39          1           0        5.322326    3.246507   -0.831179
 ---------------------------------------------------------------------
 Rotational constants (GHZ):           0.2764052           0.1021970           0.0759718
 Standard basis: 6-311+G(d) (5D, 7F)
 There are   585 symmetry adapted cartesian basis functions of A   symmetry.
 There are   562 symmetry adapted basis functions of A   symmetry.
   562 basis functions,   925 primitive gaussians,   585 cartesian basis functions
    92 alpha electrons       92 beta electrons
       nuclear repulsion energy      2046.4112214164 Hartrees.
 NAtoms=   39 NActive=   39 NUniq=   39 SFac= 1.00D+00 NAtFMM=   60 NAOKFM=F Big=F
 Integral buffers will be    131072 words long.
 Raffenetti 2 integral format.
 Two-electron integral symmetry is turned on.
 Nuclear repulsion after empirical dispersion term =     2046.4090872026 Hartrees.
 Force inversion solution in PCM.
 ------------------------------------------------------------------------------
 Polarizable Continuum Model (PCM)
 =================================
 Model                : PCM.
 Atomic radii         : SMD-Coulomb.
 Polarization charges : Total charges.
 Charge compensation  : None.
 Solution method      : Matrix inversion.
 Cavity type          : VdW (van der Waals Surface) (Alpha=1.000).
 Cavity algorithm     : GePol (No added spheres)
                        Default sphere list used, NSphG=   39.
                        Lebedev-Laikov grids with approx.  5.0 points / Ang**2.
                        Smoothing algorithm: York/Karplus (Gamma=1.0000).
                        Polarization charges: spherical gaussians, with
                                              point-specific exponents (IZeta= 3).
                        Self-potential: point-specific (ISelfS= 7).
                        Self-field    : sphere-specific E.n sum rule (ISelfD= 2).
 1st derivatives      : Analytical E(r).r(x)/FMM algorithm (CHGder, D1EAlg=3).
                        Cavity 1st derivative terms included.
 2nd derivatives      : Analytical E(r).r(xy)/FMM algorithm (CHGder, D2EAlg=3).
                        Cavity 2nd derivative terms included.
 Solvent              : Water, Eps=  78.355300 Eps(inf)=   1.777849
 ------------------------------------------------------------------------------
 ------------------------------------------------------------------------------
 Atomic radii for non-electrostatic terms: SMD-CDS.
 ------------------------------------------------------------------------------
 Nuclear repulsion after PCM non-electrostatic terms =     2046.4266904108 Hartrees.
 One-electron integrals computed using PRISM.
 NBasis=   562 RedAO= T EigKep=  1.61D-06  NBF=   562
 NBsUse=   560 1.00D-06 EigRej=  5.84D-07 NBFU=   560
 ExpMin= 4.38D-02 ExpMax= 1.06D+05 ExpMxC= 3.62D+03 IAcc=3 IRadAn=         5 AccDes= 0.00D+00
 Harris functional with IExCor= 1009 and IRadAn=       5 diagonalized for initial guess.
 HarFok:  IExCor= 1009 AccDes= 0.00D+00 IRadAn=         5 IDoV= 1 UseB2=F ITyADJ=14
 ICtDFT=  3500011 ScaDFX=  1.000000  1.000000  1.000000  1.000000
 FoFCou: FMM=F IPFlag=           0 FMFlag=      100000 FMFlg1=           0
         NFxFlg=           0 DoJE=T BraDBF=F KetDBF=T FulRan=T
         wScrn=  0.000000 ICntrl=       500 IOpCl=  0 I1Cent=   200000004 NGrid=           0
         NMat0=    1 NMatS0=      1 NMatT0=    0 NMatD0=    1 NMtDS0=    0 NMtDT0=    0
 Petite list used in FoFCou.
 Requested convergence on RMS density matrix=1.00D-08 within 128 cycles.
 Requested convergence on MAX density matrix=1.00D-06.
 Requested convergence on             energy=1.00D-06.
 No special actions if energy rises.
 Inv3:  Mode=1 IEnd=    29805312.
 Iteration    1 A*A^-1 deviation from unit magnitude is 6.00D-15 for   3145.
 Iteration    1 A*A^-1 deviation from orthogonality  is 3.03D-15 for   3145   2938.
 Iteration    1 A^-1*A deviation from unit magnitude is 6.00D-15 for   3145.
 Iteration    1 A^-1*A deviation from orthogonality  is 1.97D-14 for   2733   2727.
 Error on total polarization charges =  0.06292
 SCF Done:  E(RM062X) =  -1658.55771318     A.U. after   15 cycles
            NFock= 15  Conv=0.90D-08     -V/T= 2.0038
 SMD-CDS (non-electrostatic) energy       (kcal/mol) =      11.05
 (included in total energy above)
 DoSCS=F DFT=T ScalE2(SS,OS)=  1.000000  1.000000
 Range of M.O.s used for correlation:     1   560
 NBasis=   562 NAE=    92 NBE=    92 NFC=     0 NFV=     0
 NROrb=    560 NOA=    92 NOB=    92 NVA=   468 NVB=   468

 **** Warning!!: The largest alpha MO coefficient is  0.13389576D+03

 Symmetrizing basis deriv contribution to polar:
 IMax=3 JMax=2 DiffMx= 0.00D+00
 G2DrvN: will do    40 centers at a time, making    1 passes.
 Calling FoFCou, ICntrl=  3107 FMM=F I1Cent=   0 AccDes= 0.00D+00.
 NEqPCM:  Using equilibrium solvation (IEInf=0, Eps=  78.3553, EpsInf=   1.7778)
 G2PCM: DoFxE=T DoFxN=T DoGrad=T DoDP/DQ/DG/TGxP=FFFF NFrqRd=   0 IEInf=0 SqF1=F DoCFld=F IF1Alg=4.
 End of G2Drv F.D. properties file   721 does not exist.
 End of G2Drv F.D. properties file   722 does not exist.
 End of G2Drv F.D. properties file   788 does not exist.
          IDoAtm=111111111111111111111111111111111111111
 NEqPCM:  Using equilibrium solvation (IEInf=0, Eps=  78.3553, EpsInf=   1.7778)
          Differentiating once with respect to nuclear coordinates.
 CalDSu exits because no D1Ps are significant.
          There are   120 degrees of freedom in the 1st order CPHF.  IDoFFX=6 NUNeed=     0.
    114 vectors produced by pass  0 Test12= 4.31D-14 1.00D-09 XBig12= 4.09D-01 1.80D-01.
 AX will form    64 AO Fock derivatives at one time.
    114 vectors produced by pass  1 Test12= 4.31D-14 1.00D-09 XBig12= 3.29D-02 7.36D-02.
    114 vectors produced by pass  2 Test12= 4.31D-14 1.00D-09 XBig12= 1.48D-03 4.75D-03.
    114 vectors produced by pass  3 Test12= 4.31D-14 1.00D-09 XBig12= 1.37D-05 4.22D-04.
    114 vectors produced by pass  4 Test12= 4.31D-14 1.00D-09 XBig12= 7.48D-08 2.33D-05.
    114 vectors produced by pass  5 Test12= 4.31D-14 1.00D-09 XBig12= 4.06D-10 2.18D-06.
     96 vectors produced by pass  6 Test12= 4.31D-14 1.00D-09 XBig12= 2.17D-12 1.20D-07.
     38 vectors produced by pass  7 Test12= 4.31D-14 1.00D-09 XBig12= 9.09D-15 6.73D-09.
 InvSVY:  IOpt=1 It=  1 EMax= 1.11D-15
 Solved reduced A of dimension   818 with   120 vectors.
 End of Minotr F.D. properties file   721 does not exist.
 End of Minotr F.D. properties file   722 does not exist.
 End of Minotr F.D. properties file   788 does not exist.

 **********************************************************************

            Population analysis using the SCF Density.

 **********************************************************************

 Orbital symmetries:
       Occupied  (A) (A) (A) (A) (A) (A) (A) (A) (A) (A) (A) (A)
                 (A) (A) (A) (A) (A) (A) (A) (A) (A) (A) (A) (A)
                 (A) (A) (A) (A) (A) (A) (A) (A) (A) (A) (A) (A)
                 (A) (A) (A) (A) (A) (A) (A) (A) (A) (A) (A) (A)
                 (A) (A) (A) (A) (A) (A) (A) (A) (A) (A) (A) (A)
                 (A) (A) (A) (A) (A) (A) (A) (A) (A) (A) (A) (A)
                 (A) (A) (A) (A) (A) (A) (A) (A) (A) (A) (A) (A)
                 (A) (A) (A) (A) (A) (A) (A) (A)
       Virtual   (A) (A) (A) (A) (A) (A) (A) (A) (A) (A) (A) (A)
                 (A) (A) (A) (A) (A) (A) (A) (A) (A) (A) (A) (A)
                 (A) (A) (A) (A) (A) (A) (A) (A) (A) (A) (A) (A)
                 (A) (A) (A) (A) (A) (A) (A) (A) (A) (A) (A) (A)
                 (A) (A) (A) (A) (A) (A) (A) (A) (A) (A) (A) (A)
                 (A) (A) (A) (A) (A) (A) (A) (A) (A) (A) (A) (A)
                 (A) (A) (A) (A) (A) (A) (A) (A) (A) (A) (A) (A)
                 (A) (A) (A) (A) (A) (A) (A) (A) (A) (A) (A) (A)
                 (A) (A) (A) (A) (A) (A) (A) (A) (A) (A) (A) (A)
                 (A) (A) (A) (A) (A) (A) (A) (A) (A) (A) (A) (A)
                 (A) (A) (A) (A) (A) (A) (A) (A) (A) (A) (A) (A)
                 (A) (A) (A) (A) (A) (A) (A) (A) (A) (A) (A) (A)
                 (A) (A) (A) (A) (A) (A) (A) (A) (A) (A) (A) (A)
                 (A) (A) (A) (A) (A) (A) (A) (A) (A) (A) (A) (A)
                 (A) (A) (A) (A) (A) (A) (A) (A) (A) (A) (A) (A)
                 (A) (A) (A) (A) (A) (A) (A) (A) (A) (A) (A) (A)
                 (A) (A) (A) (A) (A) (A) (A) (A) (A) (A) (A) (A)
                 (A) (A) (A) (A) (A) (A) (A) (A) (A) (A) (A) (A)
                 (A) (A) (A) (A) (A) (A) (A) (A) (A) (A) (A) (A)
                 (A) (A) (A) (A) (A) (A) (A) (A) (A) (A) (A) (A)
                 (A) (A) (A) (A) (A) (A) (A) (A) (A) (A) (A) (A)
                 (A) (A) (A) (A) (A) (A) (A) (A) (A) (A) (A) (A)
                 (A) (A) (A) (A) (A) (A) (A) (A) (A) (A) (A) (A)
                 (A) (A) (A) (A) (A) (A) (A) (A) (A) (A) (A) (A)
                 (A) (A) (A) (A) (A) (A) (A) (A) (A) (A) (A) (A)
                 (A) (A) (A) (A) (A) (A) (A) (A) (A) (A) (A) (A)
                 (A) (A) (A) (A) (A) (A) (A) (A) (A) (A) (A) (A)
                 (A) (A) (A) (A) (A) (A) (A) (A) (A) (A) (A) (A)
                 (A) (A) (A) (A) (A) (A) (A) (A) (A) (A) (A) (A)
                 (A) (A) (A) (A) (A) (A) (A) (A) (A) (A) (A) (A)
                 (A) (A) (A) (A) (A) (A) (A) (A) (A) (A) (A) (A)
                 (A) (A) (A) (A) (A) (A) (A) (A) (A) (A) (A) (A)
                 (A) (A) (A) (A) (A) (A) (A) (A) (A) (A) (A) (A)
                 (A) (A) (A) (A) (A) (A) (A) (A) (A) (A) (A) (A)
                 (A) (A) (A) (A) (A) (A) (A) (A) (A) (A) (A) (A)
                 (A) (A) (A) (A) (A) (A) (A) (A) (A) (A) (A) (A)
                 (A) (A) (A) (A) (A) (A) (A) (A) (A) (A) (A) (A)
                 (A) (A) (A) (A) (A) (A) (A) (A) (A) (A) (A) (A)
                 (A) (A) (A) (A) (A) (A) (A) (A) (A) (A) (A) (A)
 The electronic state is 1-A.
 Alpha  occ. eigenvalues -- -102.69151 -25.29040 -25.28728 -25.28712 -19.67146
 Alpha  occ. eigenvalues --  -19.61141 -19.58755 -19.56181 -14.80519 -10.82350
 Alpha  occ. eigenvalues --  -10.71789 -10.64088 -10.63501 -10.62567 -10.59222
 Alpha  occ. eigenvalues --  -10.59012 -10.57229 -10.56830 -10.56323 -10.53350
 Alpha  occ. eigenvalues --  -10.53239 -10.52372 -10.52085  -9.83384  -7.55904
 Alpha  occ. eigenvalues --   -7.55218  -7.55203  -1.45378  -1.37607  -1.37547
 Alpha  occ. eigenvalues --   -1.25094  -1.16481  -1.15438  -1.05263  -1.03603
 Alpha  occ. eigenvalues --   -1.00914  -0.94854  -0.90223  -0.88227  -0.85890
 Alpha  occ. eigenvalues --   -0.84646  -0.82113  -0.79058  -0.73872  -0.71853
 Alpha  occ. eigenvalues --   -0.71396  -0.69138  -0.68792  -0.67966  -0.65867
 Alpha  occ. eigenvalues --   -0.65383  -0.63573  -0.60359  -0.58901  -0.58885
 Alpha  occ. eigenvalues --   -0.58026  -0.57856  -0.56657  -0.54724  -0.54499
 Alpha  occ. eigenvalues --   -0.54045  -0.53179  -0.52940  -0.52876  -0.52636
 Alpha  occ. eigenvalues --   -0.52597  -0.51351  -0.50742  -0.50482  -0.48860
 Alpha  occ. eigenvalues --   -0.48667  -0.46734  -0.45762  -0.45647  -0.44455
 Alpha  occ. eigenvalues --   -0.43702  -0.42767  -0.42590  -0.42202  -0.40861
 Alpha  occ. eigenvalues --   -0.39779  -0.39762  -0.39298  -0.39164  -0.38357
 Alpha  occ. eigenvalues --   -0.36983  -0.36795  -0.32951  -0.32817  -0.31854
 Alpha  occ. eigenvalues --   -0.31455  -0.29549
 Alpha virt. eigenvalues --   -0.01542  -0.00221   0.01208   0.01995   0.02565
 Alpha virt. eigenvalues --    0.03043   0.03247   0.03498   0.04083   0.04506
 Alpha virt. eigenvalues --    0.04837   0.05106   0.05574   0.05750   0.05905
 Alpha virt. eigenvalues --    0.06654   0.06774   0.07195   0.07451   0.07556
 Alpha virt. eigenvalues --    0.07895   0.07913   0.08158   0.08544   0.08997
 Alpha virt. eigenvalues --    0.09231   0.09565   0.09981   0.10300   0.10580
 Alpha virt. eigenvalues --    0.11080   0.11422   0.11919   0.11985   0.12571
 Alpha virt. eigenvalues --    0.12809   0.13479   0.14145   0.14242   0.14609
 Alpha virt. eigenvalues --    0.14784   0.14967   0.15560   0.16055   0.16138
 Alpha virt. eigenvalues --    0.16700   0.17001   0.17574   0.17891   0.18151
 Alpha virt. eigenvalues --    0.18944   0.19131   0.19508   0.19801   0.20362
 Alpha virt. eigenvalues --    0.20478   0.20848   0.21035   0.21337   0.21672
 Alpha virt. eigenvalues --    0.21885   0.22462   0.22559   0.22694   0.23095
 Alpha virt. eigenvalues --    0.23623   0.23975   0.24129   0.24462   0.24783
 Alpha virt. eigenvalues --    0.25082   0.25152   0.25356   0.25873   0.26346
 Alpha virt. eigenvalues --    0.26620   0.26722   0.27228   0.27557   0.27996
 Alpha virt. eigenvalues --    0.28100   0.28567   0.28928   0.29148   0.29355
 Alpha virt. eigenvalues --    0.29628   0.29644   0.30261   0.31011   0.31324
 Alpha virt. eigenvalues --    0.31345   0.31534   0.31639   0.32081   0.32486
 Alpha virt. eigenvalues --    0.32969   0.33212   0.33807   0.34028   0.34551
 Alpha virt. eigenvalues --    0.34800   0.35134   0.35526   0.36116   0.36559
 Alpha virt. eigenvalues --    0.36860   0.37056   0.37694   0.38213   0.38581
 Alpha virt. eigenvalues --    0.39225   0.39865   0.40659   0.40886   0.41426
 Alpha virt. eigenvalues --    0.42497   0.43069   0.43513   0.43769   0.44379
 Alpha virt. eigenvalues --    0.44833   0.45142   0.45522   0.45973   0.46679
 Alpha virt. eigenvalues --    0.47627   0.48425   0.48918   0.49633   0.49876
 Alpha virt. eigenvalues --    0.50207   0.51485   0.52306   0.52411   0.52786
 Alpha virt. eigenvalues --    0.53194   0.54813   0.54952   0.55536   0.56620
 Alpha virt. eigenvalues --    0.56726   0.57034   0.57815   0.59003   0.60532
 Alpha virt. eigenvalues --    0.60783   0.61354   0.62146   0.62683   0.63239
 Alpha virt. eigenvalues --    0.63535   0.64178   0.64458   0.65393   0.66515
 Alpha virt. eigenvalues --    0.67144   0.67209   0.68318   0.68478   0.69202
 Alpha virt. eigenvalues --    0.69587   0.69926   0.70361   0.70850   0.71451
 Alpha virt. eigenvalues --    0.71703   0.72212   0.72758   0.72808   0.73446
 Alpha virt. eigenvalues --    0.73895   0.74556   0.75057   0.75806   0.76112
 Alpha virt. eigenvalues --    0.76880   0.77621   0.77816   0.78349   0.78437
 Alpha virt. eigenvalues --    0.80113   0.80729   0.82130   0.83468   0.84609
 Alpha virt. eigenvalues --    0.86840   0.87391   0.88880   0.89424   0.90994
 Alpha virt. eigenvalues --    0.91961   0.92578   0.93834   0.94838   0.95475
 Alpha virt. eigenvalues --    0.95973   0.96323   0.96959   0.98896   0.99463
 Alpha virt. eigenvalues --    1.00979   1.01919   1.03059   1.04088   1.04875
 Alpha virt. eigenvalues --    1.05394   1.05887   1.06165   1.07389   1.08942
 Alpha virt. eigenvalues --    1.09953   1.10895   1.11788   1.12403   1.13505
 Alpha virt. eigenvalues --    1.14823   1.15439   1.16811   1.17673   1.19246
 Alpha virt. eigenvalues --    1.20193   1.21807   1.22123   1.23237   1.23999
 Alpha virt. eigenvalues --    1.24811   1.25033   1.25443   1.26272   1.27015
 Alpha virt. eigenvalues --    1.28745   1.32135   1.33351   1.33905   1.34206
 Alpha virt. eigenvalues --    1.36859   1.38440   1.39668   1.39851   1.41667
 Alpha virt. eigenvalues --    1.42599   1.44054   1.44949   1.45529   1.46067
 Alpha virt. eigenvalues --    1.48354   1.49536   1.50389   1.51876   1.52099
 Alpha virt. eigenvalues --    1.53720   1.54040   1.54265   1.54769   1.57458
 Alpha virt. eigenvalues --    1.57733   1.58341   1.58974   1.59158   1.60265
 Alpha virt. eigenvalues --    1.60787   1.61426   1.61564   1.62900   1.63214
 Alpha virt. eigenvalues --    1.65011   1.65310   1.66486   1.67752   1.69242
 Alpha virt. eigenvalues --    1.70455   1.72399   1.73805   1.74111   1.76898
 Alpha virt. eigenvalues --    1.78260   1.78695   1.78963   1.79084   1.79293
 Alpha virt. eigenvalues --    1.79845   1.81070   1.81820   1.82589   1.85351
 Alpha virt. eigenvalues --    1.85634   1.87485   1.87904   1.88673   1.90256
 Alpha virt. eigenvalues --    1.91722   1.92420   1.93820   1.94997   1.96253
 Alpha virt. eigenvalues --    1.98713   1.99246   2.00364   2.03268   2.04842
 Alpha virt. eigenvalues --    2.07593   2.09558   2.10942   2.13150   2.16265
 Alpha virt. eigenvalues --    2.18984   2.19995   2.20383   2.22575   2.23161
 Alpha virt. eigenvalues --    2.25845   2.30983   2.31666   2.34191   2.35823
 Alpha virt. eigenvalues --    2.41512   2.42194   2.45438   2.48314   2.50181
 Alpha virt. eigenvalues --    2.52710   2.53249   2.54432   2.55389   2.56034
 Alpha virt. eigenvalues --    2.56969   2.57604   2.59205   2.59786   2.61186
 Alpha virt. eigenvalues --    2.61433   2.62635   2.66016   2.67072   2.68306
 Alpha virt. eigenvalues --    2.69987   2.73575   2.74786   2.76554   2.80907
 Alpha virt. eigenvalues --    2.82238   2.82496   2.83775   2.90399   2.93688
 Alpha virt. eigenvalues --    2.94439   2.94739   2.95474   2.96910   2.97688
 Alpha virt. eigenvalues --    2.98219   2.98542   2.99460   3.01031   3.01379
 Alpha virt. eigenvalues --    3.03239   3.04336   3.05380   3.07477   3.08719
 Alpha virt. eigenvalues --    3.10773   3.11439   3.17808   3.18057   3.19499
 Alpha virt. eigenvalues --    3.19768   3.20240   3.21388   3.22350   3.24008
 Alpha virt. eigenvalues --    3.27377   3.28365   3.29354   3.30720   3.32402
 Alpha virt. eigenvalues --    3.33506   3.33882   3.36306   3.37838   3.39732
 Alpha virt. eigenvalues --    3.41509   3.42721   3.43727   3.47631   3.51663
 Alpha virt. eigenvalues --    3.60388   3.64811   3.68596   3.72134   3.72724
 Alpha virt. eigenvalues --    3.75673   3.79512   3.80170   3.83712   3.84105
 Alpha virt. eigenvalues --    3.85449   3.86491   3.86833   3.87272   3.87903
 Alpha virt. eigenvalues --    3.94108   3.98462   3.98698   3.99626   4.02315
 Alpha virt. eigenvalues --    4.03927   4.08687   4.15851   4.16515   4.18174
 Alpha virt. eigenvalues --    4.18781   4.20198   4.20982   4.24331   4.49515
 Alpha virt. eigenvalues --    4.70592   4.79737   4.92630   4.95495   5.05312
 Alpha virt. eigenvalues --    5.10919   5.16162   5.17283   5.20728   5.36170
 Alpha virt. eigenvalues --    5.37502   5.39458   5.46804   5.67463   5.81173
 Alpha virt. eigenvalues --    5.97323   5.99762   6.43138   6.47576   6.49227
 Alpha virt. eigenvalues --    6.50325   6.53785   6.56677   6.61060   6.80791
 Alpha virt. eigenvalues --    6.83975   9.98767  23.41980  23.59008  23.60668
 Alpha virt. eigenvalues --   23.62031  23.74463  23.80749  23.81183  23.88674
 Alpha virt. eigenvalues --   23.89412  23.92219  23.93951  24.03941  24.06834
 Alpha virt. eigenvalues --   24.15384  25.94994  26.31435  26.78506  35.64976
 Alpha virt. eigenvalues --   50.02022  50.04412  50.13100  50.14057  66.86997
 Alpha virt. eigenvalues --   66.90098  66.95475 216.09598
          Condensed to atoms (all electrons):
               1          2          3          4          5          6
     1  C   24.696893  -0.089293  -0.263634  -0.203827  -0.294569  -0.537982
     2  N   -0.089293   7.667332   0.318810  -0.062316  -0.203850  -0.295555
     3  C   -0.263634   0.318810   8.047004   0.585599   0.225626  -0.632405
     4  O   -0.203827  -0.062316   0.585599   8.198867  -0.187653  -0.159379
     5  O   -0.294569  -0.203850   0.225626  -0.187653   8.454033   0.286190
     6  C   -0.537982  -0.295555  -0.632405  -0.159379   0.286190   7.957649
     7  C    0.021095   0.028078   0.217930   0.025816  -0.156252  -0.843719
     8  C   -0.017394  -0.008235  -0.228599  -0.001140   0.027594   0.322471
     9  C    0.180612  -0.241691  -0.603089   0.253415   0.074602  -0.190747
    10  C   -7.215997   0.046153   0.269425   0.083395   0.048145   0.012107
    11  C   -1.622765  -0.087560  -1.058271  -0.009424  -0.002404  -0.092725
    12  C   -5.310981   0.203420  -0.342341  -0.015807  -0.023973  -0.027439
    13  C   -0.927782   0.092200  -0.675060  -0.055553  -0.074728  -0.110142
    14  H   -0.015385   0.133936   0.017190   0.000458   0.026580   0.007943
    15  H    0.006328   0.002287   0.045264   0.001574  -0.054694   0.345179
    16  H    0.007677   0.002869  -0.007078   0.000975  -0.045702   0.429914
    17  H   -0.001088  -0.001533   0.004175  -0.000297   0.001767  -0.069505
    18  H    0.000692  -0.000124  -0.001067  -0.000282   0.002075  -0.052610
    19  H    0.000054   0.000008   0.000318  -0.000056  -0.000171  -0.038530
    20  H    0.000108   0.000032   0.007083   0.000021  -0.000782   0.080713
    21  H   -0.000171  -0.000082  -0.002864  -0.000051  -0.000467  -0.048378
    22  H    0.059465  -0.022377   0.072186   0.003284   0.001724   0.008115
    23  Cl  -0.442311   0.001138   0.012064   0.000745   0.000580   0.001772
    24  C   -1.631214   0.015335  -0.241308  -0.002456   0.001023  -0.007619
    25  H    0.066705  -0.001455   0.003854  -0.000011  -0.000007   0.000039
    26  H    0.085139  -0.018883  -0.006576   0.000076   0.000181  -0.000135
    27  F    0.050862  -0.000047  -0.000194   0.000002   0.000000  -0.000004
    28  F    0.024993   0.000013  -0.000223  -0.000006   0.000000  -0.000001
    29  F    0.042450  -0.000010   0.000221  -0.000001   0.000000  -0.000000
    30  O    0.085978  -0.006228   0.013949  -0.000028   0.000006  -0.000350
    31  O    0.049634  -0.017535  -0.018796   0.000244   0.010189  -0.006437
    32  C   -0.155999   0.002473   0.019287   0.000242  -0.001695   0.003750
    33  C    0.087983  -0.015840   0.018418   0.000359   0.001102   0.007320
    34  C   -0.001299  -0.000202  -0.003030  -0.000125  -0.001187  -0.000654
    35  H   -0.000162   0.000116  -0.000060  -0.000000   0.000004  -0.000053
    36  H   -0.000229   0.000016   0.000065  -0.000000   0.000004  -0.000011
    37  H    0.000018   0.000027   0.000016   0.000001   0.000011  -0.000037
    38  H   -0.000085  -0.000039   0.000036  -0.000000   0.000000  -0.000022
    39  H    0.000274   0.000262  -0.000104   0.000001   0.000001   0.000050
               7          8          9         10         11         12
     1  C    0.021095  -0.017394   0.180612  -7.215997  -1.622765  -5.310981
     2  N    0.028078  -0.008235  -0.241691   0.046153  -0.087560   0.203420
     3  C    0.217930  -0.228599  -0.603089   0.269425  -1.058271  -0.342341
     4  O    0.025816  -0.001140   0.253415   0.083395  -0.009424  -0.015807
     5  O   -0.156252   0.027594   0.074602   0.048145  -0.002404  -0.023973
     6  C   -0.843719   0.322471  -0.190747   0.012107  -0.092725  -0.027439
     7  C    6.375428  -0.245025  -0.028860  -0.012537   0.000554   0.004803
     8  C   -0.245025   6.263208  -0.004045   0.001126  -0.000837  -0.000635
     9  C   -0.028860  -0.004045  15.579453   3.162034  -6.440326  -0.829168
    10  C   -0.012537   0.001126   3.162034  32.871348  -9.828213  -6.035287
    11  C    0.000554  -0.000837  -6.440326  -9.828213  35.135552  -1.310144
    12  C    0.004803  -0.000635  -0.829168  -6.035287  -1.310144  22.322444
    13  C    0.029486  -0.004076  -3.824856  -6.448841  -0.634621  -1.402830
    14  H   -0.001027  -0.000099   0.057978   0.031806  -0.003612  -0.016470
    15  H   -0.005348  -0.018759  -0.002445  -0.000339   0.000019   0.000171
    16  H   -0.048684  -0.008832  -0.004755  -0.000444   0.000002  -0.000033
    17  H    0.466603  -0.070753  -0.000154  -0.000017  -0.000004   0.000052
    18  H    0.433992  -0.049180   0.000214   0.000031   0.000011  -0.000023
    19  H    0.008586   0.370316  -0.000014  -0.000001   0.000000  -0.000000
    20  H   -0.126585   0.385493   0.000054   0.000002   0.000000  -0.000001
    21  H    0.020211   0.370221  -0.000028  -0.000005  -0.000001   0.000001
    22  H   -0.000489   0.000064   0.281386  -0.052164   0.054506  -0.051619
    23  Cl  -0.000147   0.000030   0.395829  -1.544735   0.220516   0.433867
    24  C   -0.000154  -0.000031  -1.268846  -0.437086  -6.990637  -1.355231
    25  H    0.000001   0.000000  -0.017835  -0.023375   0.108579   0.258286
    26  H   -0.000066   0.000005   0.017354   0.017357   0.016350  -0.148622
    27  F    0.000000  -0.000000   0.000917  -0.015759  -0.234731   0.022333
    28  F   -0.000000  -0.000000   0.018956  -0.131294   0.187854  -0.003740
    29  F   -0.000000  -0.000000   0.052568  -0.106357   0.165358  -0.016828
    30  O    0.000352   0.000001  -0.006064   0.004400   0.003566  -0.093706
    31  O    0.002956   0.000593   0.024433   0.006016   0.002876   0.003028
    32  C   -0.000535  -0.001259  -0.018168   0.009397  -0.051764   0.073030
    33  C   -0.000697   0.002352  -0.003235   0.001962  -0.018604  -0.090025
    34  C    0.001307  -0.001505  -0.000324   0.000119  -0.000766   0.002358
    35  H    0.000028  -0.000001  -0.000018  -0.000019   0.000010  -0.000377
    36  H    0.000021  -0.000001   0.000005   0.000007  -0.000063  -0.000069
    37  H    0.000368   0.000080   0.000016   0.000006  -0.000017  -0.000080
    38  H   -0.000017  -0.000007  -0.000001  -0.000000   0.000003   0.000059
    39  H    0.000020   0.000115   0.000026   0.000001  -0.000004  -0.000176
              13         14         15         16         17         18
     1  C   -0.927782  -0.015385   0.006328   0.007677  -0.001088   0.000692
     2  N    0.092200   0.133936   0.002287   0.002869  -0.001533  -0.000124
     3  C   -0.675060   0.017190   0.045264  -0.007078   0.004175  -0.001067
     4  O   -0.055553   0.000458   0.001574   0.000975  -0.000297  -0.000282
     5  O   -0.074728   0.026580  -0.054694  -0.045702   0.001767   0.002075
     6  C   -0.110142   0.007943   0.345179   0.429914  -0.069505  -0.052610
     7  C    0.029486  -0.001027  -0.005348  -0.048684   0.466603   0.433992
     8  C   -0.004076  -0.000099  -0.018759  -0.008832  -0.070753  -0.049180
     9  C   -3.824856   0.057978  -0.002445  -0.004755  -0.000154   0.000214
    10  C   -6.448841   0.031806  -0.000339  -0.000444  -0.000017   0.000031
    11  C   -0.634621  -0.003612   0.000019   0.000002  -0.000004   0.000011
    12  C   -1.402830  -0.016470   0.000171  -0.000033   0.000052  -0.000023
    13  C   20.955980  -0.083809   0.001461  -0.000374   0.000501  -0.000199
    14  H   -0.083809   0.261413   0.000083  -0.000074   0.000033  -0.000050
    15  H    0.001461   0.000083   0.452253  -0.039679   0.005060  -0.008276
    16  H   -0.000374  -0.000074  -0.039679   0.435441  -0.007061   0.004863
    17  H    0.000501   0.000033   0.005060  -0.007061   0.443515  -0.033171
    18  H   -0.000199  -0.000050  -0.008276   0.004863  -0.033171   0.438164
    19  H    0.000003  -0.000001  -0.000623   0.003334  -0.007694   0.006076
    20  H   -0.000018  -0.000000  -0.000185  -0.000135  -0.003665  -0.003642
    21  H    0.000025   0.000000   0.003527  -0.000400   0.006165  -0.007651
    22  H   -0.029262  -0.000106  -0.000025  -0.000009  -0.000000  -0.000000
    23  Cl   0.484100   0.000074  -0.000000  -0.000002   0.000000   0.000000
    24  C   -1.331675   0.001367  -0.000001  -0.000001  -0.000000   0.000000
    25  H   -0.080621   0.000012  -0.000000  -0.000000  -0.000000  -0.000000
    26  H    0.273761   0.010762  -0.000000  -0.000000  -0.000000   0.000000
    27  F    0.144877  -0.000001   0.000000   0.000000  -0.000000   0.000000
    28  F    0.006998   0.000001  -0.000000   0.000000  -0.000000   0.000000
    29  F   -0.004237   0.000001   0.000000  -0.000000   0.000000  -0.000000
    30  O   -0.008363   0.015150  -0.000001   0.000002  -0.000002   0.000000
    31  O   -0.080944   0.048735  -0.000074   0.000082  -0.000198   0.000097
    32  C    0.116854  -0.006812  -0.000002   0.000073   0.000535   0.000140
    33  C   -0.065286   0.009088  -0.000018   0.000013  -0.001252  -0.000113
    34  C    0.001905   0.000318   0.000027  -0.000003   0.001251   0.000011
    35  H    0.001137  -0.000012   0.000000   0.000000   0.000000  -0.000000
    36  H    0.000318   0.000008   0.000000   0.000000   0.000000  -0.000000
    37  H   -0.000292  -0.000073  -0.000000   0.000000  -0.000066  -0.000003
    38  H    0.000155   0.000016  -0.000000  -0.000000   0.000000   0.000000
    39  H   -0.000217  -0.000143  -0.000000   0.000000  -0.000025  -0.000005
              19         20         21         22         23         24
     1  C    0.000054   0.000108  -0.000171   0.059465  -0.442311  -1.631214
     2  N    0.000008   0.000032  -0.000082  -0.022377   0.001138   0.015335
     3  C    0.000318   0.007083  -0.002864   0.072186   0.012064  -0.241308
     4  O   -0.000056   0.000021  -0.000051   0.003284   0.000745  -0.002456
     5  O   -0.000171  -0.000782  -0.000467   0.001724   0.000580   0.001023
     6  C   -0.038530   0.080713  -0.048378   0.008115   0.001772  -0.007619
     7  C    0.008586  -0.126585   0.020211  -0.000489  -0.000147  -0.000154
     8  C    0.370316   0.385493   0.370221   0.000064   0.000030  -0.000031
     9  C   -0.000014   0.000054  -0.000028   0.281386   0.395829  -1.268846
    10  C   -0.000001   0.000002  -0.000005  -0.052164  -1.544735  -0.437086
    11  C    0.000000   0.000000  -0.000001   0.054506   0.220516  -6.990637
    12  C   -0.000000  -0.000001   0.000001  -0.051619   0.433867  -1.355231
    13  C    0.000003  -0.000018   0.000025  -0.029262   0.484100  -1.331675
    14  H   -0.000001  -0.000000   0.000000  -0.000106   0.000074   0.001367
    15  H   -0.000623  -0.000185   0.003527  -0.000025  -0.000000  -0.000001
    16  H    0.003334  -0.000135  -0.000400  -0.000009  -0.000002  -0.000001
    17  H   -0.007694  -0.003665   0.006165  -0.000000   0.000000  -0.000000
    18  H    0.006076  -0.003642  -0.007651  -0.000000   0.000000   0.000000
    19  H    0.448622  -0.023101  -0.034239  -0.000000  -0.000000  -0.000000
    20  H   -0.023101   0.427122  -0.023007   0.000000   0.000000   0.000000
    21  H   -0.034239  -0.023007   0.449833  -0.000000   0.000000  -0.000000
    22  H   -0.000000   0.000000  -0.000000   0.348328  -0.014621   0.008811
    23  Cl  -0.000000   0.000000   0.000000  -0.014621  17.752581  -0.713235
    24  C   -0.000000   0.000000  -0.000000   0.008811  -0.713235  18.877498
    25  H    0.000000  -0.000000   0.000000   0.000045  -0.000228   0.005378
    26  H   -0.000000   0.000000  -0.000000   0.000042   0.000135   0.011389
    27  F    0.000000   0.000000  -0.000000   0.000016   0.008575   0.179109
    28  F   -0.000000   0.000000  -0.000000  -0.000003  -0.015915   0.059686
    29  F   -0.000000   0.000000  -0.000000  -0.000023  -0.017227   0.030221
    30  O    0.000000   0.000000  -0.000000  -0.000015   0.000038  -0.000572
    31  O    0.000003   0.000002  -0.000000  -0.000002   0.000012   0.000467
    32  C    0.000006  -0.000003  -0.000001   0.000217   0.000336  -0.011202
    33  C   -0.000009   0.000007  -0.000005   0.000028  -0.000028  -0.002742
    34  C    0.000012  -0.000025   0.000007   0.000001   0.000004   0.000020
    35  H    0.000000  -0.000000   0.000000   0.000000   0.000000   0.000003
    36  H    0.000000  -0.000000   0.000000  -0.000000   0.000000  -0.000001
    37  H   -0.000000   0.000000  -0.000000   0.000000   0.000000  -0.000000
    38  H    0.000000  -0.000000   0.000000  -0.000000  -0.000000   0.000000
    39  H   -0.000000   0.000000  -0.000000   0.000000   0.000000  -0.000000
              25         26         27         28         29         30
     1  C    0.066705   0.085139   0.050862   0.024993   0.042450   0.085978
     2  N   -0.001455  -0.018883  -0.000047   0.000013  -0.000010  -0.006228
     3  C    0.003854  -0.006576  -0.000194  -0.000223   0.000221   0.013949
     4  O   -0.000011   0.000076   0.000002  -0.000006  -0.000001  -0.000028
     5  O   -0.000007   0.000181   0.000000   0.000000   0.000000   0.000006
     6  C    0.000039  -0.000135  -0.000004  -0.000001  -0.000000  -0.000350
     7  C    0.000001  -0.000066   0.000000  -0.000000  -0.000000   0.000352
     8  C    0.000000   0.000005  -0.000000  -0.000000  -0.000000   0.000001
     9  C   -0.017835   0.017354   0.000917   0.018956   0.052568  -0.006064
    10  C   -0.023375   0.017357  -0.015759  -0.131294  -0.106357   0.004400
    11  C    0.108579   0.016350  -0.234731   0.187854   0.165358   0.003566
    12  C    0.258286  -0.148622   0.022333  -0.003740  -0.016828  -0.093706
    13  C   -0.080621   0.273761   0.144877   0.006998  -0.004237  -0.008363
    14  H    0.000012   0.010762  -0.000001   0.000001   0.000001   0.015150
    15  H   -0.000000  -0.000000   0.000000  -0.000000   0.000000  -0.000001
    16  H   -0.000000  -0.000000   0.000000   0.000000  -0.000000   0.000002
    17  H   -0.000000  -0.000000  -0.000000  -0.000000   0.000000  -0.000002
    18  H   -0.000000   0.000000   0.000000   0.000000  -0.000000   0.000000
    19  H    0.000000  -0.000000   0.000000  -0.000000  -0.000000   0.000000
    20  H   -0.000000   0.000000   0.000000   0.000000   0.000000   0.000000
    21  H    0.000000  -0.000000  -0.000000  -0.000000  -0.000000  -0.000000
    22  H    0.000045   0.000042   0.000016  -0.000003  -0.000023  -0.000015
    23  Cl  -0.000228   0.000135   0.008575  -0.015915  -0.017227   0.000038
    24  C    0.005378   0.011389   0.179109   0.059686   0.030221  -0.000572
    25  H    0.356877  -0.002911   0.008298   0.000183   0.000213   0.000488
    26  H   -0.002911   0.325545   0.000058   0.000026   0.000029   0.001783
    27  F    0.008298   0.000058   9.034600  -0.031184  -0.032740  -0.000005
    28  F    0.000183   0.000026  -0.031184   8.986277  -0.043730  -0.000001
    29  F    0.000213   0.000029  -0.032740  -0.043730   8.988530  -0.000003
    30  O    0.000488   0.001783  -0.000005  -0.000001  -0.000003   8.718423
    31  O   -0.000051   0.007617   0.000001   0.000000  -0.000000  -0.168501
    32  C   -0.000654  -0.001374   0.000036  -0.000016  -0.000006   0.357641
    33  C    0.000219   0.008380   0.000007  -0.000001  -0.000000  -0.194661
    34  C   -0.000018   0.000568   0.000000   0.000000  -0.000000   0.011291
    35  H    0.000000  -0.000020  -0.000000   0.000000   0.000000  -0.003145
    36  H    0.000000  -0.000067  -0.000000  -0.000000  -0.000000  -0.003045
    37  H    0.000000  -0.000003  -0.000000  -0.000000  -0.000000  -0.000403
    38  H    0.000000  -0.000002   0.000000   0.000000   0.000000  -0.000368
    39  H    0.000000   0.000002  -0.000000  -0.000000  -0.000000  -0.000299
              31         32         33         34         35         36
     1  C    0.049634  -0.155999   0.087983  -0.001299  -0.000162  -0.000229
     2  N   -0.017535   0.002473  -0.015840  -0.000202   0.000116   0.000016
     3  C   -0.018796   0.019287   0.018418  -0.003030  -0.000060   0.000065
     4  O    0.000244   0.000242   0.000359  -0.000125  -0.000000  -0.000000
     5  O    0.010189  -0.001695   0.001102  -0.001187   0.000004   0.000004
     6  C   -0.006437   0.003750   0.007320  -0.000654  -0.000053  -0.000011
     7  C    0.002956  -0.000535  -0.000697   0.001307   0.000028   0.000021
     8  C    0.000593  -0.001259   0.002352  -0.001505  -0.000001  -0.000001
     9  C    0.024433  -0.018168  -0.003235  -0.000324  -0.000018   0.000005
    10  C    0.006016   0.009397   0.001962   0.000119  -0.000019   0.000007
    11  C    0.002876  -0.051764  -0.018604  -0.000766   0.000010  -0.000063
    12  C    0.003028   0.073030  -0.090025   0.002358  -0.000377  -0.000069
    13  C   -0.080944   0.116854  -0.065286   0.001905   0.001137   0.000318
    14  H    0.048735  -0.006812   0.009088   0.000318  -0.000012   0.000008
    15  H   -0.000074  -0.000002  -0.000018   0.000027   0.000000   0.000000
    16  H    0.000082   0.000073   0.000013  -0.000003   0.000000   0.000000
    17  H   -0.000198   0.000535  -0.001252   0.001251   0.000000   0.000000
    18  H    0.000097   0.000140  -0.000113   0.000011  -0.000000  -0.000000
    19  H    0.000003   0.000006  -0.000009   0.000012   0.000000   0.000000
    20  H    0.000002  -0.000003   0.000007  -0.000025  -0.000000  -0.000000
    21  H   -0.000000  -0.000001  -0.000005   0.000007   0.000000   0.000000
    22  H   -0.000002   0.000217   0.000028   0.000001   0.000000  -0.000000
    23  Cl   0.000012   0.000336  -0.000028   0.000004   0.000000   0.000000
    24  C    0.000467  -0.011202  -0.002742   0.000020   0.000003  -0.000001
    25  H   -0.000051  -0.000654   0.000219  -0.000018   0.000000   0.000000
    26  H    0.007617  -0.001374   0.008380   0.000568  -0.000020  -0.000067
    27  F    0.000001   0.000036   0.000007   0.000000  -0.000000  -0.000000
    28  F    0.000000  -0.000016  -0.000001   0.000000   0.000000  -0.000000
    29  F   -0.000000  -0.000006  -0.000000  -0.000000   0.000000  -0.000000
    30  O   -0.168501   0.357641  -0.194661   0.011291  -0.003145  -0.003045
    31  O    8.494175   0.280112  -0.122453   0.014438   0.002741   0.002255
    32  C    0.280112   5.903283  -0.880774   0.217515  -0.035914  -0.052819
    33  C   -0.122453  -0.880774   7.229825  -0.338476   0.410869   0.427951
    34  C    0.014438   0.217515  -0.338476   5.996170  -0.049403  -0.048796
    35  H    0.002741  -0.035914   0.410869  -0.049403   0.416246  -0.026704
    36  H    0.002255  -0.052819   0.427951  -0.048796  -0.026704   0.416635
    37  H   -0.003641  -0.037887   0.004259   0.378750  -0.007356   0.005522
    38  H    0.002299   0.073322  -0.133963   0.409436  -0.002950  -0.002894
    39  H   -0.003820  -0.018362  -0.018389   0.382475   0.005492  -0.007286
              37         38         39
     1  C    0.000018  -0.000085   0.000274
     2  N    0.000027  -0.000039   0.000262
     3  C    0.000016   0.000036  -0.000104
     4  O    0.000001  -0.000000   0.000001
     5  O    0.000011   0.000000   0.000001
     6  C   -0.000037  -0.000022   0.000050
     7  C    0.000368  -0.000017   0.000020
     8  C    0.000080  -0.000007   0.000115
     9  C    0.000016  -0.000001   0.000026
    10  C    0.000006  -0.000000   0.000001
    11  C   -0.000017   0.000003  -0.000004
    12  C   -0.000080   0.000059  -0.000176
    13  C   -0.000292   0.000155  -0.000217
    14  H   -0.000073   0.000016  -0.000143
    15  H   -0.000000  -0.000000  -0.000000
    16  H    0.000000  -0.000000   0.000000
    17  H   -0.000066   0.000000  -0.000025
    18  H   -0.000003   0.000000  -0.000005
    19  H   -0.000000   0.000000  -0.000000
    20  H    0.000000  -0.000000   0.000000
    21  H   -0.000000   0.000000  -0.000000
    22  H    0.000000  -0.000000   0.000000
    23  Cl   0.000000  -0.000000   0.000000
    24  C   -0.000000   0.000000  -0.000000
    25  H    0.000000   0.000000   0.000000
    26  H   -0.000003  -0.000002   0.000002
    27  F   -0.000000   0.000000  -0.000000
    28  F   -0.000000   0.000000  -0.000000
    29  F   -0.000000   0.000000  -0.000000
    30  O   -0.000403  -0.000368  -0.000299
[...]
 0.00000016,0.00001619,0.00001908,-0.00053835,0.00025118,0.00029417,0.0
 0001731,-0.00006988,-0.00008959,-0.00007951,0.00007042,-0.00010716,0.0
 0002719,0.00000818,0.00002565,0.00000109,-0.00000300,-0.00000954,-0.00
 003210,-0.00001876,0.00000060,0.00001197,0.00000824,0.00005298,-0.0000
 2905,0.00001221,-0.00001514,0.00000531,0.00000136,0.00001976,-0.000013
 23,-0.00000112,-0.00000821,0.00001105,-0.00000734,0.00002740,0.0000205
 4,0.00000488,-0.00010997,0.00080154,-0.00038177,-0.00000717,0.00000234
 ,0.00000136,-0.00000759,-0.00000154,0.00000067,0.00000561,0.00001969,0
 .00000789,0.00000102,0.00000353,0.00000092,0.00000109,0.,-0.00000013,-
 0.00000136,-0.00000064,0.00000014,0.00000324,0.00000117,-0.00000033,-0
 .00000116,0.00000191,-0.00000188,0.00000437,-0.00001168,0.00000646,-0.
 00002488,0.00001052,-0.00000260,0.00000290,-0.00000063,0.00000089,-0.0
 0001356,0.00001374,-0.00000160,0.00000635,0.00000085,-0.00000103,0.000
 00612,-0.00000691,-0.00000081,0.00000682,-0.00000296,0.00000615,-0.002
 94868,0.00001978,0.00202617,-0.00168378,-0.00732952,0.00139561,0.01998
 264,-0.00237067,-0.02814359,0.02514787,-0.04973886,-0.03353346,-0.0032
 2606,0.00008064,0.00511982,-0.02600537,0.05441577,-0.00002297,0.000000
 45,0.00000181,-0.00001975,-0.00005604,0.00002659,0.00003297,-0.0000083
 3,-0.00001272,-0.00001127,-0.00001014,0.00001204,-0.00001342,-0.000007
 93,0.00000564,0.00000591,-0.00000492,-0.00000335,-0.00000468,-0.000017
 61,-0.00000553,0.00000088,0.00000277,-0.00000065,0.00000667,-0.0000040
 2,0.00000399,-0.00000267,0.00000068,-0.00000075,0.00000356,0.00000141,
 0.00000351,-0.00000045,0.00000138,0.00000361,0.00000434,0.00000600,-0.
 00000597,0.00002139,0.00005771,-0.00004052,-0.00000216,0.00000093,0.00
 000169,-0.00000104,0.00000050,0.00000137,-0.00000111,0.00000158,-0.000
 00297,0.00000128,0.00000102,0.00000067,0.00000054,0.00000048,0.0000006
 3,-0.00000147,0.00000009,-0.00000029,0.00000060,0.00000087,0.00000045,
 -0.00000019,-0.00000012,-0.00000048,0.00000060,-0.00000179,0.00000056,
 -0.00000337,0.00000027,-0.00000340,0.00000029,0.00000008,-0.00000029,0
 .00000014,-0.00000247,-0.00000088,0.00000053,-0.00000008,0.00000005,0.
 00000089,-0.00000077,0.00000014,0.00000095,-0.00000038,0.00000146,-0.0
 0124008,0.00129014,0.00041746,0.00097847,-0.00057653,0.00064467,-0.001
 98148,-0.00109626,-0.00061120,0.11946828,-0.03168890,-0.22901873,0.013
 59750,-0.00312905,-0.02200695,-0.12727165,0.03382190,0.25121666,-0.000
 00520,0.00000040,0.00001355,0.00002569,-0.00002622,-0.00002760,-0.0000
 1593,0.00000428,0.00000070,0.00000257,-0.00000113,0.00000260,0.0000081
 8,-0.00000359,0.00000410,0.00000046,0.00000364,-0.00000047,-0.00000053
 ,0.00000089,-0.00000190,0.00000189,-0.00000063,0.00000017,0.00000354,-
 0.00000110,-0.00000264,-0.00000100,-0.00000015,0.00000201,-0.00000039,
 0.00000005,-0.00000159,0.00000132,0.00000280,0.00000010,-0.00000686,0.
 00000087,-0.00000290,-0.00005426,-0.00002607,0.00005439,-0.00000079,-0
 .00000068,0.00000048,-0.00000043,0.00000013,0.00000062,0.00000021,0.00
 000061,-0.00000201,0.00000099,0.00000193,0.00000279,-0.00000067,-0.000
 00014,0.00000095,0.00000030,0.00000029,-0.00000008,-0.00000060,-0.0000
 0067,-0.00000020,-0.00000024,0.00000010,-0.00000041,0.00000015,0.00000
 009,-0.00000085,0.00000039,-0.00000019,-0.00000082,0.00000038,-0.00000
 003,-0.00000028,0.00000508,0.00000010,-0.00000292,-0.00000007,0.000000
 08,0.00000022,-0.00000012,0.00000038,0.00000049,-0.00000020,0.00000016
 ,0.00000014,-0.00035756,0.00035398,0.00061837,-0.00169615,0.00148581,0
 .00210410,0.01091940,0.00937827,-0.00232514,-0.19418897,-0.13297246,-0
 .00595708,-0.01402177,-0.01101983,-0.00044808,-0.01354526,-0.01209849,
 -0.00011371,0.21242447,-0.00007733,0.00001155,-0.00000338,-0.00004452,
 -0.00021709,0.00019810,0.00011731,0.00002467,-0.00003881,-0.00004081,-
 0.00005048,0.00003591,-0.00004010,-0.00001435,0.00000497,0.00001570,0.
 00000218,-0.00000488,-0.00000290,-0.00000040,0.00000589,0.00000043,-0.
 00000039,-0.00000243,0.00001710,-0.00001517,0.00000600,-0.00000447,0.0
 0000503,-0.00000172,0.00001602,-0.00000844,0.00000681,-0.00001021,-0.0
 0000301,0.00000469,0.00003945,0.00000918,-0.00002713,0.00007629,0.0004
 9502,-0.00032973,-0.00000277,-0.00000144,0.00000083,-0.00000187,0.0000
 0018,0.00000168,0.00000116,-0.00000102,-0.00000165,0.00000181,0.000000
 48,0.00000016,-0.00000032,0.00000016,0.00000052,-0.00000114,0.00000033
 ,0.00000023,-0.00000059,-0.00000049,0.00000004,-0.00000032,0.00000040,
 -0.00000015,0.00000227,-0.00000716,0.00000441,-0.00001901,0.00000304,-
 0.00000237,0.00000238,-0.00000084,-0.00000124,-0.00000156,-0.00003378,
 0.00001340,0.00000540,0.00000126,-0.00000111,0.00000439,-0.00000392,-0
 .00000083,0.00000557,-0.00000167,0.00000451,0.00295944,0.00234974,-0.0
 0142471,0.00475868,-0.00534075,-0.00256836,-0.02717571,-0.01932113,0.0
 0131951,-0.13494071,-0.16581520,-0.00123366,0.00603808,0.00473374,0.00
 007837,0.00434450,0.00378012,0.00077243,0.14343421,0.17824712,0.000015
 43,-0.00000065,0.00000079,-0.00000659,0.00001860,0.00002204,-0.0000226
 5,-0.00000805,0.00001001,0.00000525,0.00000605,-0.00000684,0.00000918,
 0.00000453,0.00000206,-0.00000216,-0.00000101,-0.00000170,-0.00000688,
 -0.00001567,-0.00000650,0.00000120,0.00000213,0.00000137,-0.00000351,0
 .00000009,-0.00000439,0.00000087,-0.00000053,0.00000154,-0.00000202,0.
 00000308,0.00000118,0.00000170,0.00000086,0.00000318,-0.00000183,-0.00
 000135,-0.00000198,0.00001994,-0.00002391,-0.00002586,-0.00000037,0.00
 000097,0.00000026,-0.00000052,-0.00000086,0.00000035,0.00000195,0.0000
 0918,-0.00000088,0.00000179,0.00000253,0.00000306,-0.00000001,-0.00000
 003,0.00000053,0.00000035,-0.00000004,-0.00000013,0.00000139,0.0000000
 8,-0.00000036,-0.00000012,0.00000014,0.00000011,-0.00000047,0.00000146
 ,-0.00000146,0.00000340,-0.00000212,0.00000033,-0.00000006,0.00000021,
 0.00000073,0.00000129,-0.00000033,-0.00000119,-0.00000066,-0.00000018,
 -0.00000042,-0.00000084,0.00000091,-0.00000012,-0.00000122,0.00000037,
 -0.00000135,-0.00121507,0.00162756,-0.00064813,0.00077034,-0.00045094,
 0.00029186,0.00106314,-0.00258363,-0.00196078,-0.00596532,-0.00221831,
 -0.04455719,-0.02142622,-0.01869279,-0.00091261,0.01937342,0.01895593,
 0.00047406,0.00902213,0.00275276,0.04910606,-0.00000686,0.00000306,0.0
 0000168,0.00001237,-0.00000414,0.00001029,-0.00001675,0.00002284,-0.00
 001143,0.00000163,-0.00000912,0.00000609,0.00001288,-0.00000058,0.0000
 0099,-0.00001104,0.00002055,-0.00000818,-0.00003553,-0.00005186,0.0000
 2950,0.00000797,-0.00000996,0.00000035,0.00000132,-0.00000327,-0.00000
 023,-0.00000127,0.00000090,-0.00000015,0.00000215,-0.00000124,-0.00000
 103,-0.00000119,0.00000089,-0.00000046,-0.00000024,0.00000116,0.000000
 92,-0.00000405,0.00002039,-0.00001166,0.00000320,-0.00000250,-0.000000
 75,0.00000239,-0.00000360,0.00000197,-0.00001559,-0.00002133,-0.000013
 23,0.00001822,0.00001774,0.00000903,-0.00000333,-0.00000129,0.00000220
 ,0.00000012,0.00000167,-0.00000109,-0.00000473,-0.00000116,0.00000168,
 -0.00000041,0.00000024,-0.00000093,-0.00000016,-0.00000004,0.00000019,
 -0.00000353,-0.00000040,-0.00000073,0.00000016,-0.00000026,-0.00000011
 ,-0.00000226,0.00000162,-0.00000120,0.00000130,0.00000068,-0.00000002,
 0.00000047,0.00000004,0.00000025,0.00000095,-0.00000002,0.00000102,-0.
 00005934,0.00062580,-0.00002313,0.00068663,0.00032012,0.00075714,0.000
 16240,-0.00182788,-0.00023545,-0.01446953,-0.01117035,-0.00009081,-0.2
 0723702,-0.13300638,-0.00251210,0.00091921,0.00024586,0.00007144,-0.00
 090961,0.00111393,-0.00344443,0.22244694,0.00001255,-0.00000298,0.0000
 0052,-0.00001105,0.00002106,-0.00001844,0.00002240,-0.00002072,0.00000
 591,0.00000076,0.00002023,-0.00001288,-0.00000277,0.00002661,-0.000017
 17,-0.00003885,0.00000966,0.00000447,-0.00003546,-0.00007301,0.0000424
 3,0.00000748,-0.00000926,0.00000086,-0.00000348,0.00000392,-0.00000006
 ,0.00000143,-0.00000182,0.00000115,-0.00000227,0.00000166,-0.00000043,
 0.00000069,0.00000369,0.00000548,-0.00000339,-0.00000395,-0.00000403,0
 .00000204,-0.00003452,0.00003146,0.00000509,-0.00000179,0.00000047,0.0
 0000379,-0.00000068,-0.00000112,-0.00003094,-0.00003349,0.00000260,-0.
 00000365,0.00000372,0.00001867,-0.00000211,-0.00000021,0.00000075,0.00
 000220,0.00000029,0.00000002,-0.00000304,-0.00000095,0.00000056,0.0000
 0042,-0.00000015,0.00000047,-0.00000032,0.00000127,-0.00000081,0.00000
 332,-0.00000280,0.00000020,-0.00000006,-0.00000003,0.00000028,-0.00000
 008,0.00000170,-0.00000137,-0.00000099,0.,-0.00000022,-0.00000059,0.00
 000126,0.00000019,-0.00000107,0.00000042,-0.00000119,-0.00029948,0.000
 34247,0.00010173,0.00105989,0.00011784,0.00077924,0.00050363,-0.000834
 71,-0.00105244,0.00493537,0.00397937,-0.00048364,-0.13494501,-0.159975
 75,-0.00282461,-0.00027672,0.00021954,-0.00053659,0.00106643,0.0006166
 5,0.00077147,0.14651911,0.17029228,0.00000595,-0.00000139,-0.00000363,
 0.00001329,0.00002931,-0.00000830,-0.00003859,0.00001193,0.00000543,0.
 00000756,-0.00000382,-0.00000099,0.00001207,-0.00001530,-0.00000253,0.
 00002113,0.00000980,-0.00000465,0.00001827,0.00001899,-0.00003703,-0.0
 0000523,0.00001289,-0.00000222,-0.00000114,0.00000074,-0.00000047,-0.0
 0000004,-0.00000065,-0.00000059,-0.00000043,0.00000101,0.00000129,0.00
 000015,-0.00000133,-0.00000366,-0.00000187,0.00000127,0.00000564,-0.00
 000270,-0.00004317,0.00001200,-0.00000270,0.00000083,-0.00000079,-0.00
 000082,0.00000149,-0.00000023,0.00003850,0.00005836,-0.00001022,0.0000
 0540,0.00000477,-0.00001266,0.00000191,0.00000083,-0.00000060,0.000000
 78,-0.00000017,0.00000071,0.00000336,-0.00000060,-0.00000138,-0.000000
 33,0.00000031,0.00000004,-0.00000027,0.00000085,-0.00000045,0.00000116
 ,-0.00000002,0.00000079,-0.00000005,0.00000002,0.00000018,-0.00000053,
 0.00000095,-0.00000121,-0.00000011,0.00000006,-0.00000008,-0.00000038,
 0.00000023,-0.00000018,-0.00000045,0.00000021,-0.00000064,0.00010991,0
 .00032182,-0.00016085,0.00006777,0.00056384,0.00023169,0.00057334,-0.0
 0107234,0.00069568,-0.02234375,-0.01903057,-0.00053428,-0.00126646,-0.
 00218181,-0.04791091,0.00093072,-0.00044484,0.00122732,-0.00351801,0.0
 0143439,-0.00403348,0.00593636,0.00209103,0.05070579,0.00003531,-0.000
 00149,0.00000056,0.00000637,0.00009052,-0.00003648,-0.00005464,-0.0000
 1237,0.00001694,0.00001737,0.00002051,-0.00001585,0.00001968,0.0000056
 5,-0.00000298,-0.00000661,0.00000361,0.00000026,-0.00000030,-0.0000058
 9,-0.00001055,-0.00000006,0.00000104,0.00000156,-0.00000832,0.00000363
 ,-0.00000464,0.00000206,-0.00000184,0.00000233,-0.00000551,0.00000318,
 -0.00000365,0.00000367,0.00000207,0.00000397,-0.00001048,-0.00000482,0
 .00000432,0.00000658,-0.00017562,0.00006172,0.00000112,0.00000123,-0.0
 0000059,0.00000129,-0.00000053,-0.00000047,0.00000372,0.00000783,-0.00
 000130,0.00000393,0.00000150,0.00000406,-0.00000045,-0.00000098,-0.000
 00012,0.00000036,0.00000027,-0.00000047,0.00000018,-0.00000054,0.00000
 131,0.00000001,-0.00000038,0.00000006,-0.00000090,0.00000403,-0.000002
 20,0.00000883,-0.00000390,0.00000042,-0.00000057,0.00000027,0.00000027
 ,0.00000061,0.00000786,-0.00000064,-0.00000234,-0.00000013,0.00000049,
 -0.00000226,0.00000274,0.00000055,-0.00000268,0.00000104,-0.00000189,-
 0.00164036,0.00198785,-0.00138624,0.00017741,0.00067597,0.00030735,0.0
 0031638,-0.00291424,-0.00274950,-0.00771432,0.01827432,0.00124726,-0.0
 8478706,0.09192167,0.00072277,0.00071698,-0.00045660,0.00018395,0.0003
 3125,-0.00023473,0.00086310,0.01134913,-0.02316387,-0.00027281,0.08798
 484,-0.00003860,0.00000556,0.00000373,-0.00000239,-0.00009764,0.000041
 49,0.00005062,0.00001955,-0.00002236,-0.00001743,-0.00002534,0.0000205
 5,-0.00001852,-0.00000501,0.00000631,0.00001238,0.00000659,-0.00000456
 ,-0.00000474,-0.00000914,-0.00000684,0.00000371,0.00000059,0.00000112,
 0.00001033,-0.00000793,0.00000281,-0.00000316,0.00000336,-0.00000118,0
 .00000622,-0.00000429,0.00000182,-0.00000338,0.00000196,0.00000029,0.0
 0000856,0.00000275,-0.00000567,-0.00000443,0.00019664,-0.00007385,-0.0
 0000233,-0.00000054,0.00000031,-0.00000140,-0.00000087,0.00000129,0.00
 000479,0.00000616,-0.00000158,0.00000444,0.00000372,0.00000357,-0.0000
 0125,-0.00000032,0.00000137,-0.00000262,0.00000176,-0.00000076,-0.0000
 0060,-0.00000031,0.00000012,-0.00000012,0.00000059,-0.00000005,0.00000
 110,-0.00000410,0.00000219,-0.00000949,0.00000408,-0.00000162,0.000000
 82,0.00000009,-0.00000002,-0.00000312,-0.00000368,-0.00000038,0.000002
 37,-0.00000003,-0.00000031,0.00000242,-0.00000289,-0.00000038,0.000002
 81,-0.00000124,0.00000244,0.00084329,-0.00065462,0.00082205,0.00074399
 ,-0.00069149,0.00070211,-0.00081255,0.00181017,-0.00061276,-0.00002829
 ,-0.00262182,-0.00093342,0.09284021,-0.28265840,-0.00025882,-0.0001510
 3,0.00011840,0.00035465,0.00030811,0.00047746,0.00021442,0.00778125,-0
 .01765630,-0.00043564,-0.10198256,0.30395997,0.00003249,-0.00000088,0.
 00000284,0.00000653,0.00008141,-0.00001747,-0.00004913,-0.00001240,0.0
 0001654,0.00001495,0.00001721,-0.00001416,0.00001755,0.00000070,-0.000
 00463,-0.00000603,0.00000053,0.00000030,-0.00000089,0.00000040,-0.0000
 0060,0.00000005,-0.00000013,0.00000121,-0.00000824,0.00000074,-0.00000
 535,0.00000168,-0.00000090,0.00000222,-0.00000402,0.00000278,-0.000002
 41,0.00000296,0.00000246,0.00000440,-0.00000915,-0.00000626,0.00000296
 ,0.00000831,-0.00012918,0.00003995,0.00000137,0.00000022,-0.00000037,0
 .00000119,0.00000010,0.00000005,-0.00000078,-0.00000031,0.00000094,-0.
 00000027,0.00000029,-0.00000046,-0.00000017,0.00000041,-0.00000003,0.0
 0000084,-0.00000029,0.00000020,0.00000036,0.00000032,-0.00000090,-0.00
 000014,-0.00000018,-0.00000013,-0.00000096,0.00000369,-0.00000206,0.00
 000708,-0.00000351,-0.00000055,-0.00000061,0.00000040,0.00000037,-0.00
 000039,0.00000486,-0.00000421,-0.00000180,0.00000001,0.00000038,-0.000
 00186,0.00000239,0.00000055,-0.00000203,0.00000073,-0.00000142,-0.0021
 9974,0.00266741,-0.00159817,0.00034781,0.00051605,0.00108600,-0.001370
 22,-0.00389766,-0.00385304,-0.01020969,0.02806520,0.00020290,0.0013132
 2,-0.00173571,-0.04766704,0.00103174,-0.00015570,0.00102420,0.00054919
 ,-0.00062412,0.00112311,0.00022059,0.00016805,-0.00138652,0.00208440,0
 .00081487,0.04990443,0.00000558,-0.00000240,-0.00000104,0.00000307,0.0
 0000789,-0.00000617,-0.00000595,0.00000308,0.00000591,0.00000247,0.000
 00049,-0.00000040,0.00000063,-0.00000689,-0.00000338,-0.00000163,0.000
 00675,0.00000079,0.00000020,-0.00000731,-0.00000178,0.00000113,0.00000
 266,-0.00000115,-0.00000128,0.00000081,-0.00000101,0.00000080,0.000000
 15,0.00000030,-0.00000123,-0.00000112,-0.00000185,0.00000102,-0.000000
 37,0.00000108,-0.00000233,-0.00000055,0.00000115,-0.00000278,-0.000015
 78,0.00000327,-0.00000049,-0.00000109,0.00000042,0.00000034,-0.0000005
 7,0.00000033,0.00000328,0.00000893,-0.00000274,0.00000350,0.00000569,0
 .00000136,-0.00000033,-0.00000046,0.00000017,0.00000103,0.00000041,-0.
 00000003,-0.00000028,-0.00000119,0.00000033,0.00000006,-0.00000021,0.0
 0000017,-0.00000027,0.00000020,0.00000012,0.00000077,0.00000124,0.0000
 0058,-0.00000001,0.00000046,-0.00000008,-0.00000052,0.00000181,-0.0000
 0050,-0.00000038,-0.00000040,0.00000025,-0.00000003,-0.00000046,0.0000
 0004,-0.00000019,-0.00000012,-0.00000011,-0.00019517,-0.00026116,0.000
 07982,-0.00026562,0.00037814,-0.00061523,0.00090424,0.00029593,0.00071
 131,0.01185831,-0.00288882,-0.01801788,-0.12640424,0.01705807,0.123088
 13,-0.00152511,0.00114260,-0.00368970,0.00108035,-0.00035505,0.0009450
 8,-0.01284699,0.00467860,0.01970904,-0.00675020,0.00046059,0.00822382,
 0.13413825,0.00001186,0.00000087,0.00000152,0.00000428,0.00004067,-0.0
 0001611,-0.00002083,-0.00000236,0.00000667,0.00000642,0.00000825,-0.00
 001017,0.00000682,0.00000768,-0.00000612,-0.00000458,0.00000345,0.0000
 0149,0.00000161,-0.00000819,-0.00000216,0.00000149,0.00000287,-0.00000
 194,-0.00000275,0.00000123,-0.00000215,0.00000035,-0.00000101,0.000001
 17,-0.00000141,0.00000082,0.00000006,0.00000059,0.00000069,-0.00000094
 ,-0.00000135,-0.00000513,0.00000199,-0.00000576,-0.00006548,0.00002323
 ,0.00000140,0.00000038,-0.00000070,0.00000076,-0.00000005,-0.00000074,
 0.00000490,0.00000899,-0.00000148,0.00000294,0.00000453,0.00000183,-0.
 00000009,-0.00000026,-0.00000014,0.00000004,0.00000022,0.,-0.00000021,
 -0.00000058,0.00000039,-0.00000012,0.00000032,0.00000019,-0.00000044,0
 .00000188,-0.00000099,0.00000483,-0.00000148,0.00000208,0.00000013,0.,
 0.00000046,0.00000233,0.00000108,0.00000056,-0.00000098,-0.00000010,-0
 .00000025,-0.00000115,0.00000112,-0.00000018,-0.00000138,0.00000039,-0
 .00000191,0.00006001,0.00013319,-0.00011088,0.00008367,0.00003663,0.00
 046036,-0.00048904,-0.00038796,0.00019653,-0.00302722,-0.00011782,0.00
 410776,0.01777544,-0.05195902,-0.02888782,0.00062903,0.00057180,0.0008
 2660,0.00010778,0.00007839,-0.00037290,-0.01058249,0.00298951,0.018665
 71,0.01594369,-0.00217343,-0.02578401,-0.02051056,0.05082788,0.0000095
 7,-0.00000360,-0.00000075,-0.00000432,0.00000885,0.00000385,0.00000308
 ,-0.00000585,0.00000002,0.00000034,0.00000414,-0.00000010,0.00000013,0
 .00000558,0.00000019,0.00000019,-0.00000176,-0.00000098,0.00000018,-0.
 00000058,-0.00000168,-0.00000108,0.00000057,-0.00000001,-0.00000236,0.
 00000141,-0.00000048,0.00000106,-0.00000020,-0.00000014,-0.00000202,-0
 .00000036,-0.00000116,0.00000121,0.00000014,0.00000107,-0.00000400,0.0
 0000276,0.00000257,0.00000429,-0.00000129,0.00000741,-0.00000061,0.000
 00118,0.00000074,-0.00000031,-0.00000084,0.00000031,-0.00000203,0.0000
 0029,0.00000320,0.00000139,0.00000067,0.00000004,-0.00000006,-0.000000
 37,-0.00000001,0.00000024,-0.00000074,-0.00000014,0.00000097,0.0000009
 4,0.00000019,0.00000020,-0.00000065,-0.00000042,-0.00000034,0.,0.00000
 019,0.00000146,-0.00000020,-0.00000205,-0.00000072,0.,0.00000005,0.000
 00036,0.00000147,-0.00000201,-0.00000075,-0.00000030,0.00000070,-0.000
 00040,0.00000052,0.00000043,-0.00000017,0.00000020,0.00000089,-0.00044
 839,0.00063894,0.00012380,0.00018950,0.00038849,0.00138371,0.00083800,
 -0.00224141,-0.00034576,0.01430515,-0.00290438,-0.02271024,0.12117861,
 -0.02775827,-0.23626964,-0.00395571,0.00105127,-0.00335391,0.00002960,
 -0.00037932,0.00112272,-0.00069457,0.00092700,0.00123198,-0.00101726,-
 0.00063731,0.00114594,-0.13043044,0.03090301,0.25765950\\0.00000174,0.
 00000056,-0.00000039,-0.00000359,0.00000377,-0.00000315,0.00000607,0.0
 0000063,0.00000071,-0.00000139,-0.00000210,0.00000240,0.00000477,0.000
 00034,0.00000078,-0.00000283,0.00000027,0.00000465,0.00000047,0.000000
 90,0.00000321,0.00000015,0.00000112,0.00000538,0.00000069,0.00000225,-
 0.00000231,-0.00000043,-0.00000035,-0.00000226,0.00000128,0.00000015,-
 0.00000314,-0.00000156,-0.00000114,-0.00000399,-0.00000154,-0.00000043
 ,-0.00000236,0.,-0.00000437,0.00000082,-0.00000020,0.00000076,0.000004
 20,0.00000068,0.00000095,0.00000250,0.00000064,0.00000032,0.00000305,-
 0.00000095,0.00000048,0.00000438,0.00000136,0.00000120,0.00000485,0.00
 000054,0.00000055,0.00000619,0.00000010,0.00000138,0.00000618,0.000000
 24,-0.00000064,0.00000015,0.00000140,-0.00000064,-0.00000277,-0.000000
 78,-0.00000059,-0.00000476,-0.00000024,-0.00000088,-0.00000451,-0.0000
 0177,-0.00000394,-0.00000147,-0.00000086,-0.00000192,-0.00000569,-0.00
 000020,0.00000054,-0.00000354,0.00000206,-0.00000121,-0.00000618,-0.00
 000071,-0.00000380,-0.00000362,-0.00000321,-0.00000683,-0.00000402,0.0
 0000164,0.00001438,0.00000406,0.00000034,0.00000246,0.00000261,-0.0000
 0136,-0.00000101,-0.00000174,0.00000072,-0.00000035,-0.00000096,0.0000
 0005,-0.00000092,-0.00000189,-0.00000079,-0.00000027,0.00000182,-0.000
 00059,-0.00000058,0.00000009,-0.00000190,-0.00000101,0.00000070\\\@


 THERE IS NO SCIENCE WITHOUT FANCY, NOR ART WITHOUT FACTS.
     -- VLADIMIR NABAKOV
 Job cpu time:       0 days  8 hours  8 minutes 40.8 seconds.
 Elapsed time:       0 days  8 hours 15 minutes 38.1 seconds.
 File lengths (MBytes):  RWF=   1399 Int=      0 D2E=      0 Chk=     42 Scr=      1
 Normal termination of Gaussian 16 at Mon Mar 22 22:46:33 2021.
