 Entering Gaussian System, Link 0=/apps/gaussian/g16c01/g16/g16
 Initial command:
 /apps/gaussian/g16c01/g16/l1.exe "/jobfs/19478758.gadi-pbs/Gau-319165.inp" -scrdir="/jobfs/19478758.gadi-pbs/"
 Entering Link 1 = /apps/gaussian/g16c01/g16/l1.exe PID=    319166.
  
 Copyright (c) 1988-2019, Gaussian, Inc.  All Rights Reserved.
  
 This is part of the Gaussian(R) 16 program.  It is based on
 the Gaussian(R) 09 system (copyright 2009, Gaussian, Inc.),
 the Gaussian(R) 03 system (copyright 2003, Gaussian, Inc.),
 the Gaussian(R) 98 system (copyright 1998, Gaussian, Inc.),
 the Gaussian(R) 94 system (copyright 1995, Gaussian, Inc.),
 the Gaussian 92(TM) system (copyright 1992, Gaussian, Inc.),
 the Gaussian 90(TM) system (copyright 1990, Gaussian, Inc.),
 the Gaussian 88(TM) system (copyright 1988, Gaussian, Inc.),
 the Gaussian 86(TM) system (copyright 1986, Carnegie Mellon
 University), and the Gaussian 82(TM) system (copyright 1983,
 Carnegie Mellon University). Gaussian is a federally registered
 trademark of Gaussian, Inc.
  
 This software contains proprietary and confidential information,
 including trade secrets, belonging to Gaussian, Inc.
  
 This software is provided under written license and may be
 used, copied, transmitted, or stored only in accord with that
 written license.
  
 The following legend is applicable only to US Government
 contracts under FAR:
  
                    RESTRICTED RIGHTS LEGEND
  
 Use, reproduction and disclosure by the US Government is
 subject to restrictions as set forth in subparagraphs (a)
 and (c) of the Commercial Computer Software - Restricted
 Rights clause in FAR 52.227-19.
  
 Gaussian, Inc.
 340 Quinnipiac St., Bldg. 40, Wallingford CT 06492
  
  
 ---------------------------------------------------------------
 Warning -- This program may not be used in any manner that
 competes with the business of Gaussian, Inc. or will provide
 assistance to any competitor of Gaussian, Inc.  The licensee
 of this program is prohibited from giving any competitor of
 Gaussian, Inc. access to this program.  By using this program,
 the user acknowledges that Gaussian, Inc. is engaged in the
 business of creating and licensing software in the field of
 computational chemistry and represents and warrants to the
 licensee that it is not a competitor of Gaussian, Inc. and that
 it will not use this program in any manner prohibited above.
 ---------------------------------------------------------------
  

 Cite this work as:
 Gaussian 16, Revision C.01,
 M. J. Frisch, G. W. Trucks, H. B. Schlegel, G. E. Scuseria, 
 M. A. Robb, J. R. Cheeseman, G. Scalmani, V. Barone, 
 G. A. Petersson, H. Nakatsuji, X. Li, M. Caricato, A. V. Marenich, 
 J. Bloino, B. G. Janesko, R. Gomperts, B. Mennucci, H. P. Hratchian, 
 J. V. Ortiz, A. F. Izmaylov, J. L. Sonnenberg, D. Williams-Young, 
 F. Ding, F. Lipparini, F. Egidi, J. Goings, B. Peng, A. Petrone, 
 T. Henderson, D. Ranasinghe, V. G. Zakrzewski, J. Gao, N. Rega, 
 G. Zheng, W. Liang, M. Hada, M. Ehara, K. Toyota, R. Fukuda, 
 J. Hasegawa, M. Ishida, T. Nakajima, Y. Honda, O. Kitao, H. Nakai, 
 T. Vreven, K. Throssell, J. A. Montgomery, Jr., J. E. Peralta, 
 F. Ogliaro, M. J. Bearpark, J. J. Heyd, E. N. Brothers, K. N. Kudin, 
 V. N. Staroverov, T. A. Keith, R. Kobayashi, J. Normand, 
 K. Raghavachari, A. P. Rendell, J. C. Burant, S. S. Iyengar, 
 J. Tomasi, M. Cossi, J. M. Millam, M. Klene, C. Adamo, R. Cammi, 
 J. W. Ochterski, R. L. Martin, K. Morokuma, O. Farkas, 
 J. B. Foresman, and D. J. Fox, Gaussian, Inc., Wallingford CT, 2019.
 
 ******************************************
 Gaussian 16:  ES64L-G16RevC.01  3-Jul-2019
                22-Mar-2021 
 ******************************************
 %NprocShared=32
 Will use up to   32 processors via shared memory.
 %Mem=10000MB
 %chk=CP19CA_carboxy.M062X_6-311pGd_opt_Pentadecane_GD3.chk
 ----------------------------------------------------------------------
 # M062X/6-311+G* SCF=Tight INT(grid=ultrafine) OPT=CalcFC IOP(2/17=4) 
 EmpiricalDispersion=GD3 SCRF=(SMD,Solvent=n-Pentadecane) MaxDisk=10000
 MB
 ----------------------------------------------------------------------
 1/10=4,18=20,19=15,26=6,38=1/1,3;
 2/9=110,12=2,17=4,18=5,40=1/2;
 3/5=4,6=6,7=11,11=2,25=1,30=1,70=32201,71=2,72=151,74=-55,75=-5,124=31,140=1/1,2,3;
 4//1;
 5/5=2,32=2,38=5,53=151/2;
 8/6=4,10=90,11=11/1;
 11/6=1,8=1,9=11,15=111,16=1/1,2,10;
 10/6=1,13=1/2;
 6/7=2,8=2,9=2,10=2,28=1/1;
 7/10=1,25=1/1,2,3,16;
 1/10=4,18=20,19=15,26=6/3(2);
 2/9=110,17=4/2;
 99//99;
 2/9=110,17=4/2;
 3/5=4,6=6,7=11,11=2,25=1,30=1,70=32205,71=1,72=151,74=-55,75=-5,124=31/1,2,3;
 4/5=5,16=3,69=1/1;
 5/5=2,32=2,38=5,53=151/2;
 7//1,2,3,16;
 1/18=20,19=15,26=6/3(-5);
 2/9=110,17=4/2;
 6/7=2,8=2,9=2,10=2,19=2,28=1/1;
 99/9=1/99;
 -------------------------------------------------
 CP19CA_carboxy.M062X_6-311pGd_opt_Pentadecane_GD3
 -------------------------------------------------
 Symbolic Z-matrix:
 Charge = -1 Multiplicity = 1
 C                    -6.47697   1.23274   0.2571 
 N                    -5.16766   0.66992   0.44923 
 C                    -3.96005   1.21231   0.11648 
 O                    -3.86949   2.30581  -0.41816 
 O                    -2.83923   0.48841   0.36853 
 C                    -1.56654   0.86145  -0.01105 
 C                    -0.57365  -0.2065    0.44475 
 C                     0.84824   0.13631   0.01136 
 C                    -6.72511   2.5378   -0.22364 
 C                    -8.03544   3.00693  -0.39001 
 C                    -9.13587   2.17947  -0.07983 
 C                    -8.88813   0.88394   0.4024 
 C                    -7.58186   0.42278   0.56831 
 H                    -5.12564  -0.37383   0.9128 
 H                    -1.30501   1.83932   0.4506 
 H                    -1.52728   0.95595  -1.119 
 H                    -0.85726  -1.18668   0.00298 
 H                    -0.60817  -0.29271   1.55272 
 H                     0.90743   0.20021  -1.09629 
 H                     1.54374  -0.65682   0.35811 
 H                     1.1644    1.10598   0.45103 
 H                    -5.93595   3.22245  -0.47576 
 Cl                   -8.25361   4.64806  -0.99559 
 C                    -10.55511   2.67316  -0.26308 
 H                    -9.70095   0.21513   0.65283 
 H                    -7.41244  -0.69055   0.97535 
 F                    -11.48592   1.71196   0.09274 
 F                    -10.76455   3.7908    0.52423 
 F                    -10.76297   3.00526  -1.5897 
 O                    -7.00117  -2.6857    1.36488 
 O                    -4.78858  -2.3804    1.31149 
 C                    -5.73321  -3.14693   1.46019 
 C                    -5.50519  -4.60757   1.7448 
 C                    -4.02375  -4.97817   1.82701 
 H                    -5.97949  -5.20424   0.93662 
 H                    -5.99253  -4.86358   2.7095 
 H                    -3.51409  -4.75095   0.86609 
 H                    -3.92217  -6.06424   2.03406 
 H                    -3.52978  -4.41301   2.64629 
 
 Add virtual bond connecting atoms O30        and H26        Dist= 3.92D+00.
 Add virtual bond connecting atoms O31        and H14        Dist= 3.92D+00.

 GradGradGradGradGradGradGradGradGradGradGradGradGradGradGradGradGradGrad
 Berny optimization.
 Initialization pass.
                           ----------------------------
                           !    Initial Parameters    !
                           ! (Angstroms and Degrees)  !
 --------------------------                            --------------------------
 ! Name  Definition              Value          Derivative Info.                !
 --------------------------------------------------------------------------------
 ! R1    R(1,2)                  1.438          calculate D2E/DX2 analytically  !
 ! R2    R(1,9)                  1.4128         calculate D2E/DX2 analytically  !
 ! R3    R(1,13)                 1.4049         calculate D2E/DX2 analytically  !
 ! R4    R(2,3)                  1.365          calculate D2E/DX2 analytically  !
 ! R5    R(2,14)                 1.1428         calculate D2E/DX2 analytically  !
 ! R6    R(3,4)                  1.2206         calculate D2E/DX2 analytically  !
 ! R7    R(3,5)                  1.3579         calculate D2E/DX2 analytically  !
 ! R8    R(5,6)                  1.3795         calculate D2E/DX2 analytically  !
 ! R9    R(6,7)                  1.5278         calculate D2E/DX2 analytically  !
 ! R10   R(6,15)                 1.1125         calculate D2E/DX2 analytically  !
 ! R11   R(6,16)                 1.1127         calculate D2E/DX2 analytically  !
 ! R12   R(7,8)                  1.5255         calculate D2E/DX2 analytically  !
 ! R13   R(7,17)                 1.1119         calculate D2E/DX2 analytically  !
 ! R14   R(7,18)                 1.1119         calculate D2E/DX2 analytically  !
 ! R15   R(8,19)                 1.1111         calculate D2E/DX2 analytically  !
 ! R16   R(8,20)                 1.1104         calculate D2E/DX2 analytically  !
 ! R17   R(8,21)                 1.1106         calculate D2E/DX2 analytically  !
 ! R18   R(9,10)                 1.4017         calculate D2E/DX2 analytically  !
 ! R19   R(9,22)                 1.0747         calculate D2E/DX2 analytically  !
 ! R20   R(10,11)                1.4113         calculate D2E/DX2 analytically  !
 ! R21   R(10,23)                1.7628         calculate D2E/DX2 analytically  !
 ! R22   R(11,12)                1.4044         calculate D2E/DX2 analytically  !
 ! R23   R(11,24)                1.5138         calculate D2E/DX2 analytically  !
 ! R24   R(12,13)                1.3952         calculate D2E/DX2 analytically  !
 ! R25   R(12,25)                1.082          calculate D2E/DX2 analytically  !
 ! R26   R(13,26)                1.1975         calculate D2E/DX2 analytically  !
 ! R27   R(14,31)                2.0734         calculate D2E/DX2 analytically  !
 ! R28   R(24,27)                1.3845         calculate D2E/DX2 analytically  !
 ! R29   R(24,28)                1.3831         calculate D2E/DX2 analytically  !
 ! R30   R(24,29)                1.3833         calculate D2E/DX2 analytically  !
 ! R31   R(26,30)                2.074          calculate D2E/DX2 analytically  !
 ! R32   R(30,32)                1.3526         calculate D2E/DX2 analytically  !
 ! R33   R(31,32)                1.2256         calculate D2E/DX2 analytically  !
 ! R34   R(32,33)                1.5055         calculate D2E/DX2 analytically  !
 ! R35   R(33,34)                1.5293         calculate D2E/DX2 analytically  !
 ! R36   R(33,35)                1.1109         calculate D2E/DX2 analytically  !
 ! R37   R(33,36)                1.1107         calculate D2E/DX2 analytically  !
 ! R38   R(34,37)                1.1112         calculate D2E/DX2 analytically  !
 ! R39   R(34,38)                1.1103         calculate D2E/DX2 analytically  !
 ! R40   R(34,39)                1.1111         calculate D2E/DX2 analytically  !
 ! A1    A(2,1,9)              124.5363         calculate D2E/DX2 analytically  !
 ! A2    A(2,1,13)             117.4403         calculate D2E/DX2 analytically  !
 ! A3    A(9,1,13)             118.0233         calculate D2E/DX2 analytically  !
 ! A4    A(1,2,3)              128.1273         calculate D2E/DX2 analytically  !
 ! A5    A(1,2,14)             116.4308         calculate D2E/DX2 analytically  !
 ! A6    A(3,2,14)             115.4203         calculate D2E/DX2 analytically  !
 ! A7    A(2,3,4)              121.8979         calculate D2E/DX2 analytically  !
 ! A8    A(2,3,5)              118.24           calculate D2E/DX2 analytically  !
 ! A9    A(4,3,5)              119.8467         calculate D2E/DX2 analytically  !
 ! A10   A(3,5,6)              124.4916         calculate D2E/DX2 analytically  !
 ! A11   A(5,6,7)              109.1752         calculate D2E/DX2 analytically  !
 ! A12   A(5,6,15)             109.9002         calculate D2E/DX2 analytically  !
 ! A13   A(5,6,16)             109.2393         calculate D2E/DX2 analytically  !
 ! A14   A(7,6,15)             109.7451         calculate D2E/DX2 analytically  !
 ! A15   A(7,6,16)             109.4823         calculate D2E/DX2 analytically  !
 ! A16   A(15,6,16)            109.2838         calculate D2E/DX2 analytically  !
 ! A17   A(6,7,8)              111.3407         calculate D2E/DX2 analytically  !
 ! A18   A(6,7,17)             109.3847         calculate D2E/DX2 analytically  !
 ! A19   A(6,7,18)             109.3491         calculate D2E/DX2 analytically  !
 ! A20   A(8,7,17)             108.8424         calculate D2E/DX2 analytically  !
 ! A21   A(8,7,18)             109.2366         calculate D2E/DX2 analytically  !
 ! A22   A(17,7,18)            108.6417         calculate D2E/DX2 analytically  !
 ! A23   A(7,8,19)             110.2309         calculate D2E/DX2 analytically  !
 ! A24   A(7,8,20)             109.5471         calculate D2E/DX2 analytically  !
 ! A25   A(7,8,21)             110.43           calculate D2E/DX2 analytically  !
 ! A26   A(19,8,20)            108.6038         calculate D2E/DX2 analytically  !
 ! A27   A(19,8,21)            109.2247         calculate D2E/DX2 analytically  !
 ! A28   A(20,8,21)            108.7651         calculate D2E/DX2 analytically  !
 ! A29   A(1,9,10)             120.9147         calculate D2E/DX2 analytically  !
 ! A30   A(1,9,22)             122.638          calculate D2E/DX2 analytically  !
 ! A31   A(10,9,22)            116.4467         calculate D2E/DX2 analytically  !
 ! A32   A(9,10,11)            120.4362         calculate D2E/DX2 analytically  !
 ! A33   A(9,10,23)            117.9077         calculate D2E/DX2 analytically  !
 ! A34   A(11,10,23)           121.6561         calculate D2E/DX2 analytically  !
 ! A35   A(10,11,12)           118.6053         calculate D2E/DX2 analytically  !
 ! A36   A(10,11,24)           120.8772         calculate D2E/DX2 analytically  !
 ! A37   A(12,11,24)           120.5175         calculate D2E/DX2 analytically  !
 ! A38   A(11,12,13)           120.7244         calculate D2E/DX2 analytically  !
 ! A39   A(11,12,25)           121.1427         calculate D2E/DX2 analytically  !
 ! A40   A(13,12,25)           118.1327         calculate D2E/DX2 analytically  !
 ! A41   A(1,13,12)            121.2947         calculate D2E/DX2 analytically  !
 ! A42   A(1,13,26)            120.0041         calculate D2E/DX2 analytically  !
 ! A43   A(12,13,26)           118.6989         calculate D2E/DX2 analytically  !
 ! A44   A(11,24,27)           111.8872         calculate D2E/DX2 analytically  !
 ! A45   A(11,24,28)           109.6703         calculate D2E/DX2 analytically  !
 ! A46   A(11,24,29)           109.5894         calculate D2E/DX2 analytically  !
 ! A47   A(27,24,28)           108.2347         calculate D2E/DX2 analytically  !
 ! A48   A(27,24,29)           108.1874         calculate D2E/DX2 analytically  !
 ! A49   A(28,24,29)           109.2189         calculate D2E/DX2 analytically  !
 ! A50   A(26,30,32)           121.8132         calculate D2E/DX2 analytically  !
 ! A51   A(14,31,32)           120.2205         calculate D2E/DX2 analytically  !
 ! A52   A(30,32,31)           120.0472         calculate D2E/DX2 analytically  !
 ! A53   A(30,32,33)           119.0873         calculate D2E/DX2 analytically  !
 ! A54   A(31,32,33)           120.8652         calculate D2E/DX2 analytically  !
 ! A55   A(32,33,34)           113.0789         calculate D2E/DX2 analytically  !
 ! A56   A(32,33,35)           108.5967         calculate D2E/DX2 analytically  !
 ! A57   A(32,33,36)           108.7457         calculate D2E/DX2 analytically  !
 ! A58   A(34,33,35)           108.8163         calculate D2E/DX2 analytically  !
 ! A59   A(34,33,36)           108.8133         calculate D2E/DX2 analytically  !
 ! A60   A(35,33,36)           108.7071         calculate D2E/DX2 analytically  !
 ! A61   A(33,34,37)           110.3813         calculate D2E/DX2 analytically  !
 ! A62   A(33,34,38)           109.615          calculate D2E/DX2 analytically  !
 ! A63   A(33,34,39)           110.3056         calculate D2E/DX2 analytically  !
 ! A64   A(37,34,38)           108.6221         calculate D2E/DX2 analytically  !
 ! A65   A(37,34,39)           109.2512         calculate D2E/DX2 analytically  !
 ! A66   A(38,34,39)           108.6245         calculate D2E/DX2 analytically  !
 ! A67   L(2,14,31,5,-1)       171.4362         calculate D2E/DX2 analytically  !
 ! A68   L(13,26,30,5,-1)      176.1985         calculate D2E/DX2 analytically  !
 ! A69   L(2,14,31,5,-2)       192.3672         calculate D2E/DX2 analytically  !
 ! A70   L(13,26,30,5,-2)      188.7512         calculate D2E/DX2 analytically  !
 ! D1    D(9,1,2,3)             -5.8327         calculate D2E/DX2 analytically  !
 ! D2    D(9,1,2,14)           175.949          calculate D2E/DX2 analytically  !
 ! D3    D(13,1,2,3)           174.0354         calculate D2E/DX2 analytically  !
 ! D4    D(13,1,2,14)           -4.1829         calculate D2E/DX2 analytically  !
 ! D5    D(2,1,9,10)           179.5984         calculate D2E/DX2 analytically  !
 ! D6    D(2,1,9,22)            -0.6945         calculate D2E/DX2 analytically  !
 ! D7    D(13,1,9,10)           -0.269          calculate D2E/DX2 analytically  !
 ! D8    D(13,1,9,22)          179.4381         calculate D2E/DX2 analytically  !
 ! D9    D(2,1,13,12)         -179.4952         calculate D2E/DX2 analytically  !
 ! D10   D(2,1,13,26)           -0.0585         calculate D2E/DX2 analytically  !
 ! D11   D(9,1,13,12)            0.3818         calculate D2E/DX2 analytically  !
 ! D12   D(9,1,13,26)          179.8184         calculate D2E/DX2 analytically  !
 ! D13   D(1,2,3,4)             -0.1938         calculate D2E/DX2 analytically  !
 ! D14   D(1,2,3,5)           -178.7613         calculate D2E/DX2 analytically  !
 ! D15   D(14,2,3,4)           178.0397         calculate D2E/DX2 analytically  !
 ! D16   D(14,2,3,5)            -0.5278         calculate D2E/DX2 analytically  !
 ! D17   D(1,2,31,32)            2.152          calculate D2E/DX2 analytically  !
 ! D18   D(3,2,31,32)         -168.6357         calculate D2E/DX2 analytically  !
 ! D19   D(2,3,5,6)            174.5189         calculate D2E/DX2 analytically  !
 ! D20   D(4,3,5,6)             -4.079          calculate D2E/DX2 analytically  !
 ! D21   D(3,5,6,7)           -179.8211         calculate D2E/DX2 analytically  !
 ! D22   D(3,5,6,15)            59.7624         calculate D2E/DX2 analytically  !
 ! D23   D(3,5,6,16)           -60.1275         calculate D2E/DX2 analytically  !
 ! D24   D(5,6,7,8)            178.2397         calculate D2E/DX2 analytically  !
 ! D25   D(5,6,7,17)            57.9051         calculate D2E/DX2 analytically  !
 ! D26   D(5,6,7,18)           -60.9568         calculate D2E/DX2 analytically  !
 ! D27   D(15,6,7,8)           -61.2487         calculate D2E/DX2 analytically  !
 ! D28   D(15,6,7,17)          178.4166         calculate D2E/DX2 analytically  !
 ! D29   D(15,6,7,18)           59.5548         calculate D2E/DX2 analytically  !
 ! D30   D(16,6,7,8)            58.6963         calculate D2E/DX2 analytically  !
 ! D31   D(16,6,7,17)          -61.6383         calculate D2E/DX2 analytically  !
 ! D32   D(16,6,7,18)          179.4999         calculate D2E/DX2 analytically  !
 ! D33   D(6,7,8,19)           -60.6142         calculate D2E/DX2 analytically  !
 ! D34   D(6,7,8,20)           179.9374         calculate D2E/DX2 analytically  !
 ! D35   D(6,7,8,21)            60.1669         calculate D2E/DX2 analytically  !
 ! D36   D(17,7,8,19)           60.0396         calculate D2E/DX2 analytically  !
 ! D37   D(17,7,8,20)          -59.4089         calculate D2E/DX2 analytically  !
 ! D38   D(17,7,8,21)         -179.1794         calculate D2E/DX2 analytically  !
 ! D39   D(18,7,8,19)          178.5163         calculate D2E/DX2 analytically  !
 ! D40   D(18,7,8,20)           59.0679         calculate D2E/DX2 analytically  !
 ! D41   D(18,7,8,21)          -60.7026         calculate D2E/DX2 analytically  !
 ! D42   D(1,9,10,11)           -0.0558         calculate D2E/DX2 analytically  !
 ! D43   D(1,9,10,23)         -179.9811         calculate D2E/DX2 analytically  !
 ! D44   D(22,9,10,11)        -179.7803         calculate D2E/DX2 analytically  !
 ! D45   D(22,9,10,23)           0.2943         calculate D2E/DX2 analytically  !
 ! D46   D(9,10,11,12)           0.2728         calculate D2E/DX2 analytically  !
 ! D47   D(9,10,11,24)        -179.6537         calculate D2E/DX2 analytically  !
 ! D48   D(23,10,11,12)       -179.8048         calculate D2E/DX2 analytically  !
 ! D49   D(23,10,11,24)          0.2687         calculate D2E/DX2 analytically  !
 ! D50   D(10,11,12,13)         -0.1629         calculate D2E/DX2 analytically  !
 ! D51   D(10,11,12,25)       -179.9915         calculate D2E/DX2 analytically  !
 ! D52   D(24,11,12,13)        179.7639         calculate D2E/DX2 analytically  !
 ! D53   D(24,11,12,25)         -0.0647         calculate D2E/DX2 analytically  !
 ! D54   D(10,11,24,27)        179.825          calculate D2E/DX2 analytically  !
 ! D55   D(10,11,24,28)        -60.061          calculate D2E/DX2 analytically  !
 ! D56   D(10,11,24,29)         59.8245         calculate D2E/DX2 analytically  !
 ! D57   D(12,11,24,27)         -0.1002         calculate D2E/DX2 analytically  !
 ! D58   D(12,11,24,28)        120.0139         calculate D2E/DX2 analytically  !
 ! D59   D(12,11,24,29)       -120.1006         calculate D2E/DX2 analytically  !
 ! D60   D(11,12,13,1)          -0.169          calculate D2E/DX2 analytically  !
 ! D61   D(11,12,13,26)       -179.6128         calculate D2E/DX2 analytically  !
 ! D62   D(25,12,13,1)         179.6647         calculate D2E/DX2 analytically  !
 ! D63   D(25,12,13,26)          0.2209         calculate D2E/DX2 analytically  !
 ! D64   D(1,13,30,32)           3.5357         calculate D2E/DX2 analytically  !
 ! D65   D(12,13,30,32)        176.6995         calculate D2E/DX2 analytically  !
 ! D66   D(26,30,32,31)         -0.2115         calculate D2E/DX2 analytically  !
 ! D67   D(26,30,32,33)       -179.9899         calculate D2E/DX2 analytically  !
 ! D68   D(14,31,32,30)         -0.0158         calculate D2E/DX2 analytically  !
 ! D69   D(14,31,32,33)        179.7586         calculate D2E/DX2 analytically  !
 ! D70   D(30,32,33,34)       -179.8591         calculate D2E/DX2 analytically  !
 ! D71   D(30,32,33,35)         59.2584         calculate D2E/DX2 analytically  !
 ! D72   D(30,32,33,36)        -58.8762         calculate D2E/DX2 analytically  !
 ! D73   D(31,32,33,34)          0.3643         calculate D2E/DX2 analytically  !
 ! D74   D(31,32,33,35)       -120.5182         calculate D2E/DX2 analytically  !
 ! D75   D(31,32,33,36)        121.3472         calculate D2E/DX2 analytically  !
 ! D76   D(32,33,34,37)        -60.1732         calculate D2E/DX2 analytically  !
 ! D77   D(32,33,34,38)       -179.7797         calculate D2E/DX2 analytically  !
 ! D78   D(32,33,34,39)         60.6579         calculate D2E/DX2 analytically  !
 ! D79   D(35,33,34,37)         60.5847         calculate D2E/DX2 analytically  !
 ! D80   D(35,33,34,38)        -59.0218         calculate D2E/DX2 analytically  !
 ! D81   D(35,33,34,39)       -178.5843         calculate D2E/DX2 analytically  !
 ! D82   D(36,33,34,37)        178.8822         calculate D2E/DX2 analytically  !
 ! D83   D(36,33,34,38)         59.2757         calculate D2E/DX2 analytically  !
 ! D84   D(36,33,34,39)        -60.2867         calculate D2E/DX2 analytically  !
 --------------------------------------------------------------------------------
 Trust Radius=3.00D-01 FncErr=5.00D-06 GrdErr=5.00D-06 EigMax=2.50D+02 EigMin=1.00D-04
 Number of steps in this run=    204 maximum allowed number of steps=    234.
 GradGradGradGradGradGradGradGradGradGradGradGradGradGradGradGradGradGrad

                          Input orientation:                          
 ---------------------------------------------------------------------
 Center     Atomic      Atomic             Coordinates (Angstroms)
 Number     Number       Type             X           Y           Z
 ---------------------------------------------------------------------
      1          6           0       -6.476970    1.232740    0.257100
      2          7           0       -5.167660    0.669920    0.449230
      3          6           0       -3.960050    1.212310    0.116480
      4          8           0       -3.869490    2.305810   -0.418160
      5          8           0       -2.839230    0.488410    0.368530
      6          6           0       -1.566540    0.861450   -0.011050
      7          6           0       -0.573650   -0.206500    0.444750
      8          6           0        0.848240    0.136310    0.011360
      9          6           0       -6.725110    2.537800   -0.223640
     10          6           0       -8.035440    3.006930   -0.390010
     11          6           0       -9.135870    2.179470   -0.079830
     12          6           0       -8.888130    0.883940    0.402400
     13          6           0       -7.581860    0.422780    0.568310
     14          1           0       -5.125640   -0.373830    0.912800
     15          1           0       -1.305010    1.839320    0.450600
     16          1           0       -1.527280    0.955950   -1.119000
     17          1           0       -0.857260   -1.186680    0.002980
     18          1           0       -0.608170   -0.292710    1.552720
     19          1           0        0.907430    0.200210   -1.096290
     20          1           0        1.543740   -0.656820    0.358110
     21          1           0        1.164400    1.105980    0.451030
     22          1           0       -5.935950    3.222450   -0.475760
     23         17           0       -8.253610    4.648060   -0.995590
     24          6           0      -10.555110    2.673160   -0.263080
     25          1           0       -9.700950    0.215130    0.652830
     26          1           0       -7.412440   -0.690550    0.975350
     27          9           0      -11.485920    1.711960    0.092740
     28          9           0      -10.764550    3.790800    0.524230
     29          9           0      -10.762970    3.005260   -1.589700
     30          8           0       -7.001170   -2.685700    1.364880
     31          8           0       -4.788580   -2.380400    1.311490
     32          6           0       -5.733210   -3.146930    1.460190
     33          6           0       -5.505190   -4.607570    1.744800
     34          6           0       -4.023750   -4.978170    1.827010
     35          1           0       -5.979490   -5.204240    0.936620
     36          1           0       -5.992530   -4.863580    2.709500
     37          1           0       -3.514090   -4.750950    0.866090
     38          1           0       -3.922170   -6.064240    2.034060
     39          1           0       -3.529780   -4.413010    2.646290
 ---------------------------------------------------------------------
                    Distance matrix (angstroms):
                    1          2          3          4          5
     1  C    0.000000
     2  N    1.438045   0.000000
     3  C    2.520928   1.365002   0.000000
     4  O    2.899380   2.261360   1.220567   0.000000
     5  O    3.714781   2.336888   1.357865   2.232322   0.000000
     6  C    4.931742   3.635465   2.422449   2.748726   1.379485
     7  C    6.079129   4.676864   3.686257   4.233069   2.370983
     8  C    7.410887   6.055371   4.928334   5.210393   3.721422
     9  C    1.412751   2.523367   3.085152   2.871624   4.432914
    10  C    2.448536   3.793429   4.481740   4.224630   5.823996
    11  C    2.842458   4.278474   5.269065   5.278749   6.535165
    12  C    2.440587   3.726915   4.947277   5.280320   6.061912
    13  C    1.404873   2.429737   3.734303   4.277922   4.747290
    14  H    2.199341   1.142837   2.123338   3.244971   2.503469
    15  H    5.211003   4.035785   2.748457   2.747529   2.045855
    16  H    5.144871   3.974107   2.740529   2.792713   2.037781
    17  H    6.123668   4.714409   3.923690   4.631239   2.620641
    18  H    6.200681   4.788872   3.944993   4.612253   2.643877
    19  H    7.578070   6.286174   5.117374   5.264255   4.033140
    20  H    8.240900   6.841888   5.817537   6.219552   4.530131
    21  H    7.644881   6.347057   5.136460   5.247393   4.051821
    22  H    2.188317   2.821575   2.880207   2.261372   4.216334
    23  Cl   4.048468   5.237957   5.610324   5.004005   6.962688
    24  C    4.356217   5.791802   6.765572   6.697500   8.044058
    25  H    3.403848   4.560593   5.851493   6.286803   6.873042
    26  H    2.256110   2.677073   4.034542   4.844847   4.761557
    27  F    5.034506   6.413528   7.542475   7.656610   8.737184
    28  F    4.999837   6.408642   7.288079   7.115838   8.587242
    29  F    4.992223   6.396760   7.239160   7.027219   8.541361
    30  O    4.105622   3.931966   5.099156   6.156446   5.328173
    31  O    4.125188   3.192436   3.875832   5.079073   3.594330
    32  C    4.602403   3.988763   4.894142   6.060860   4.773106
    33  C    6.104656   5.444661   6.237779   7.426219   5.913584
    34  C    6.859906   5.925178   6.422773   7.623710   5.780463
    35  H    6.491837   5.949989   6.776642   7.917599   6.526119
    36  H    6.588935   6.033975   6.911669   8.104919   6.638316
    37  H    6.704780   5.682772   6.026713   7.181467   5.306024
    38  H    7.932875   7.029356   7.525073   8.722035   6.847187
    39  H    6.802106   5.774591   6.182984   7.392483   5.448758
                    6          7          8          9         10
     6  C    0.000000
     7  C    1.527777   0.000000
     8  C    2.521407   1.525489   0.000000
     9  C    5.428277   6.768928   7.948460   0.000000
    10  C    6.825933   8.167084   9.344588   1.401687   0.000000
    11  C    7.683532   8.903912  10.191431   2.441484   1.411328
    12  C    7.333289   8.385787   9.772859   2.793892   2.421173
    13  C    6.059056   7.037490   8.453333   2.415474   2.793196
    14  H    3.878996   4.579048   6.063009   3.511038   4.646912
    15  H    1.112541   2.172625   2.780227   5.506356   6.882487
    16  H    1.112666   2.169335   2.755471   5.506483   6.862514
    17  H    2.167513   1.111912   2.158496   6.953760   8.322684
    18  H    2.167011   1.111855   2.163557   6.970236   8.356205
    19  H    2.781279   2.175733   1.111069   8.030038   9.399544
    20  H    3.480699   2.166480   1.110410   8.883575  10.283163
    21  H    2.780530   2.177949   1.110643   8.046717   9.431756
    22  H    4.988188   6.431120   7.469055   1.074748   2.112264
    23  Cl   7.747557   9.199082  10.208502   2.717612   1.762848
    24  C    9.172797  10.412637  11.685346   3.832594   2.544848
    25  H    8.187008   9.139402  10.568969   3.875386   3.414028
    26  H    6.128314   6.876401   8.357739   3.511729   3.990451
    27  F    9.956317  11.085217  12.434661   4.842254   3.716962
    28  F    9.668040  10.947108  12.185041   4.294927   2.983007
    29  F    9.574047  10.875506  12.067082   4.288234   2.979711
    30  O    6.634053   6.950258   8.450384   5.466677   6.046105
    31  O    4.758177   4.821070   6.308558   5.504132   6.516174
    32  C    5.965970   6.024808   7.496283   6.011265   6.825943
    33  C    6.964636   6.736441   8.116359   7.511276   8.303023
    34  C    6.596780   6.048361   7.293201   8.245745   9.207098
    35  H    7.560741   7.378513   8.717538   7.863926   8.567975
    36  H    7.730896   7.495448   8.892412   7.995024   8.702033
    37  H    6.005111   5.429157   6.606497   8.038908   9.066703
    38  H    7.595831   6.931927   8.080529   9.324633  10.250914
    39  H    6.223801   5.592871   6.841508   8.170703   9.196499
                   11         12         13         14         15
    11  C    0.000000
    12  C    1.404393   0.000000
    13  C    2.433309   1.395183   0.000000
    14  H    4.856604   3.999853   2.605048   0.000000
    15  H    7.856171   7.643218   6.435782   4.439468   0.000000
    16  H    7.776086   7.516778   6.307870   4.341051   1.814770
    17  H    8.937181   8.303125   6.937594   4.439320   3.091524
    18  H    9.027655   8.441888   7.079078   4.563290   2.499161
    19  H   10.286814   9.933104   8.653813   6.384661   3.158234
    20  H   11.058499  10.545132   9.191643   6.698387   3.788753
    21  H   10.369656  10.055100   8.773687   6.478246   2.576000
    22  H    3.388813   3.867190   3.411342   3.939281   4.921056
    23  Cl   2.776857   4.065168   4.555219   6.216553   7.633055
    24  C    1.513787   2.534363   3.820423   6.336086   9.314987
    25  H    2.171345   1.081988   2.130916   4.620381   8.553987
    26  H    3.510076   2.232700   1.197451   2.309476   6.631463
    27  F    2.402307   2.744088   4.138821   6.743603  10.187994
    28  F    2.369361   3.462027   4.634115   7.020857   9.659016
    29  F    2.368352   3.461717   4.630947   7.032798   9.745524
    30  O    5.505816   4.150821   3.261039   3.011101   7.331981
    31  O    6.451908   5.318709   4.026481   2.073376   5.539172
    32  C    6.505405   5.226887   4.117740   2.891169   6.744695
    33  C    7.910438   6.588096   5.567864   4.331378   7.802490
    34  C    9.000090   7.749583   6.588986   4.821814   7.467545
    35  H    8.094139   6.768420   5.862303   4.905353   8.467509
    36  H    8.201555   6.836753   5.920833   4.912991   8.485537
    37  H    8.973845   7.800468   6.588088   4.664596   6.963069
    38  H    9.980479   8.694842   7.590994   5.923372   8.474853
    39  H    9.073079   7.861592   6.642456   4.676188   6.990156
                   16         17         18         19         20
    16  H    0.000000
    17  H    2.509707   0.000000
    18  H    3.089013   1.806356   0.000000
    19  H    2.549406   2.499198   3.091483   0.000000
    20  H    3.770152   2.484285   2.488049   1.804070   0.000000
    21  H    3.119719   3.089360   2.512381   1.811257   1.805546
    22  H    4.998715   6.742604   6.697486   7.506720   8.466985
    23  Cl   7.674009   9.473507   9.452928  10.184212  11.223294
    24  C    9.229470  10.441142  10.537321  11.755830  12.564108
    25  H    8.396254   8.977652   9.151303  10.751622  11.282296
    26  H    6.460060   6.645452   6.840301   8.620057   8.977488
    27  F   10.060536  11.017195  11.156867  12.541703  13.245889
    28  F    9.801211  11.099613  10.994767  12.318829  13.088274
    29  F    9.472022  10.873458  11.129752  12.012910  12.986913
    30  O    7.028140   6.469116   6.828773   8.771077   8.839990
    31  O    5.260664   4.311895   4.678939   6.700857   6.631586
    32  C    6.416829   5.453524   5.866956   7.863653   7.769764
    33  C    7.414707   6.028240   6.529603   8.503425   8.198704
    34  C    7.079909   5.265847   5.804736   7.725143   7.199214
    35  H    7.873734   6.576451   7.304368   8.987239   8.809807
    36  H    8.274225   6.871378   7.156977   9.366721   8.945459
    37  H    6.360558   4.528546   5.365793   6.922049   6.526989
    38  H    8.059799   6.108154   6.672694   8.506907   7.869255
    39  H    6.856613   4.953651   5.168034   7.414684   6.714562
                   21         22         23         24         25
    21  H    0.000000
    22  H    7.466817   0.000000
    23  Cl  10.165528   2.770223   0.000000
    24  C   11.845376   4.656564   3.119888   0.000000
    25  H   10.903677   4.949032   4.946003   2.758694   0.000000
    26  H    8.778645   4.426885   5.752645   4.767036   2.482248
    27  F   12.669893   5.779874   4.500330   1.384529   2.395896
    28  F   12.227570   4.963706   3.057706   1.383055   3.732720
    29  F   12.248837   4.958645   3.057556   1.383263   3.733852
    30  O    9.049226   6.279242   7.805412   6.633108   4.026244
    31  O    6.952209   5.991882   8.168739   7.827554   5.594818
    32  C    8.165946   6.660181   8.552493   7.752021   5.262912
    33  C    8.877045   8.150194  10.036445   9.085279   6.485001
    34  C    8.113390   8.729801  10.886831  10.274726   7.783294
    35  H    9.544100   8.544344  10.294313   9.188526   6.580226
    36  H    9.589472   8.690970  10.455213   9.298162   6.616311
    37  H    7.507608   8.440443  10.689728  10.294095   7.936288
    38  H    8.932594   9.828383  11.945439  11.207805   8.644801
    39  H    7.570584   8.592852  10.848080  10.393917   7.967239
                   26         27         28         29         30
    26  H    0.000000
    27  F    4.810852   0.000000
    28  F    5.614503   2.242350   0.000000
    29  F    5.609327   2.241849   2.255166   0.000000
    30  O    2.074006   6.408645   7.537558   7.434225   0.000000
    31  O    3.138985   7.942740   8.626454   8.550764   2.234192
    32  C    3.014745   7.653261   8.621050   8.511742   1.352605
    33  C    4.424105   8.856348   9.984151   9.834547   2.464930
    34  C    5.531024  10.171013  11.136896  10.992095   3.786029
    35  H    4.735847   8.880694  10.196941   9.831575   2.751414
    36  H    4.736834   8.958934  10.121555  10.156715   2.751094
    37  H    5.629913  10.291615  11.209261  10.896603   4.083354
    38  H    6.494567  11.020360  12.092128  11.924094   4.619803
    39  H    5.632388  10.360311  11.142151  11.193452   4.083645
                   31         32         33         34         35
    31  O    0.000000
    32  C    1.225563   0.000000
    33  C    2.379406   1.505478   0.000000
    34  C    2.756653   2.531847   1.529303   0.000000
    35  H    3.087534   2.137125   1.110914   2.160745   0.000000
    36  H    3.093560   2.138904   1.110715   2.160559   1.805359
    37  H    2.728042   2.801844   2.181093   1.111193   2.507717
    38  H    3.852720   3.481363   2.170602   1.110287   2.485265
    39  H    2.738206   2.804442   2.180088   1.111140   3.090323
                   36         37         38         39
    36  H    0.000000
    37  H    3.090875   0.000000
    38  H    2.486804   1.804277   0.000000
    39  H    2.504425   1.812060   1.804261   0.000000
 Stoichiometry    C14H16ClF3NO4(1-)
 Framework group  C1[X(C14H16ClF3NO4)]
 Deg. of freedom   111
 Full point group                 C1      NOp   1
 Largest Abelian subgroup         C1      NOp   1
 Largest concise Abelian subgroup C1      NOp   1
                         Standard orientation:                         
 ---------------------------------------------------------------------
 Center     Atomic      Atomic             Coordinates (Angstroms)
 Number     Number       Type             X           Y           Z
 ---------------------------------------------------------------------
      1          6           0       -0.466069   -0.260391   -0.149416
      2          7           0        0.954220   -0.478401   -0.206188
      3          6           0        1.631077   -1.658089   -0.090293
      4          8           0        1.053355   -2.718219    0.088995
      5          8           0        2.987327   -1.629205   -0.149873
      6          6           0        3.801916   -2.722670    0.059313
      7          6           0        5.261656   -2.296349   -0.087357
      8          6           0        6.209655   -3.461821    0.177388
      9          6           0       -1.431840   -1.288721   -0.073990
     10          6           0       -2.799764   -0.988932   -0.013680
     11          6           0       -3.238978    0.352256   -0.026106
     12          6           0       -2.278387    1.373643   -0.105795
     13          6           0       -0.918147    1.069628   -0.167923
     14          1           0        1.606671    0.450740   -0.336885
     15          1           0        3.566261   -3.517836   -0.682256
     16          1           0        3.631498   -3.115718    1.086199
     17          1           0        5.482812   -1.481955    0.636659
     18          1           0        5.431649   -1.912464   -1.116899
     19          1           0        6.072171   -3.841412    1.212513
     20          1           0        7.259851   -3.120098    0.061950
     21          1           0        6.021013   -4.286239   -0.542526
     22          1           0       -1.169329   -2.330869   -0.064115
     23         17           0       -3.935844   -2.333677    0.079140
     24          6           0       -4.713372    0.687595    0.046451
     25          1           0       -2.569322    2.415711   -0.118041
     26          1           0       -0.130046    1.969172   -0.227976
     27          9           0       -4.933481    2.054349    0.025106
     28          9           0       -5.372117    0.126259   -1.032344
     29          9           0       -5.246704    0.182642    1.218626
     30          8           0        1.325356    3.431336   -0.014951
     31          8           0        3.007305    1.964995   -0.126782
     32          6           0        2.643820    3.129425   -0.008505
     33          6           0        3.648103    4.239672    0.150341
     34          6           0        5.095326    3.745624    0.135250
     35          1           0        3.455795    4.756003    1.114992
     36          1           0        3.509437    4.967509   -0.677133
     37          1           0        5.268448    3.029434    0.967026
     38          1           0        5.784573    4.607097    0.259912
     39          1           0        5.322326    3.246507   -0.831179
 ---------------------------------------------------------------------
 Rotational constants (GHZ):           0.2764052           0.1021970           0.0759718
 Standard basis: 6-311+G(d) (5D, 7F)
 There are   585 symmetry adapted cartesian basis functions of A   symmetry.
 There are   562 symmetry adapted basis functions of A   symmetry.
   562 basis functions,   925 primitive gaussians,   585 cartesian basis functions
    92 alpha electrons       92 beta electrons
       nuclear repulsion energy      2046.4112214164 Hartrees.
 NAtoms=   39 NActive=   39 NUniq=   39 SFac= 1.00D+00 NAtFMM=   60 NAOKFM=F Big=F
 Integral buffers will be    131072 words long.
 Raffenetti 2 integral format.
 Two-electron integral symmetry is turned on.
 Nuclear repulsion after empirical dispersion term =     2046.4090872026 Hartrees.
 Force inversion solution in PCM.
 ------------------------------------------------------------------------------
 Polarizable Continuum Model (PCM)
 =================================
 Model                : PCM.
 Atomic radii         : SMD-Coulomb.
 Polarization charges : Total charges.
 Charge compensation  : None.
 Solution method      : Matrix inversion.
 Cavity type          : VdW (van der Waals Surface) (Alpha=1.000).
 Cavity algorithm     : GePol (No added spheres)
                        Default sphere list used, NSphG=   39.
                        Lebedev-Laikov grids with approx.  5.0 points / Ang**2.
                        Smoothing algorithm: York/Karplus (Gamma=1.0000).
                        Polarization charges: spherical gaussians, with
                                              point-specific exponents (IZeta= 3).
                        Self-potential: point-specific (ISelfS= 7).
                        Self-field    : sphere-specific E.n sum rule (ISelfD= 2).
 1st derivatives      : Analytical E(r).r(x)/FMM algorithm (CHGder, D1EAlg=3).
                        Cavity 1st derivative terms included.
 2nd derivatives      : Analytical E(r).r(xy)/FMM algorithm (CHGder, D2EAlg=3).
                        Cavity 2nd derivative terms included.
 Solvent              : n-Pentadecane, Eps=   2.033300 Eps(inf)=   2.049192
 ------------------------------------------------------------------------------
 ------------------------------------------------------------------------------
 Atomic radii for non-electrostatic terms: SMD-CDS.
 ------------------------------------------------------------------------------
 Nuclear repulsion after PCM non-electrostatic terms =     2046.4017469388 Hartrees.
 One-electron integrals computed using PRISM.
 NBasis=   562 RedAO= T EigKep=  1.61D-06  NBF=   562
 NBsUse=   560 1.00D-06 EigRej=  5.84D-07 NBFU=   560
 ExpMin= 4.38D-02 ExpMax= 1.06D+05 ExpMxC= 3.62D+03 IAcc=3 IRadAn=         5 AccDes= 0.00D+00
 Harris functional with IExCor= 1009 and IRadAn=       5 diagonalized for initial guess.
 HarFok:  IExCor= 1009 AccDes= 0.00D+00 IRadAn=         5 IDoV= 1 UseB2=F ITyADJ=14
 ICtDFT=  3500011 ScaDFX=  1.000000  1.000000  1.000000  1.000000
 FoFCou: FMM=F IPFlag=           0 FMFlag=      100000 FMFlg1=           0
         NFxFlg=           0 DoJE=T BraDBF=F KetDBF=T FulRan=T
         wScrn=  0.000000 ICntrl=       500 IOpCl=  0 I1Cent=   200000004 NGrid=           0
         NMat0=    1 NMatS0=      1 NMatT0=    0 NMatD0=    1 NMtDS0=    0 NMtDT0=    0
 Petite list used in FoFCou.
 Requested convergence on RMS density matrix=1.00D-08 within 128 cycles.
 Requested convergence on MAX density matrix=1.00D-06.
 Requested convergence on             energy=1.00D-06.
 No special actions if energy rises.
 Inv3:  Mode=1 IEnd=    31687500.
 Iteration    1 A*A^-1 deviation from unit magnitude is 6.22D-15 for   3225.
 Iteration    1 A*A^-1 deviation from orthogonality  is 2.04D-15 for   1586    361.
 Iteration    1 A^-1*A deviation from unit magnitude is 5.77D-15 for   3225.
 Iteration    1 A^-1*A deviation from orthogonality  is 1.62D-15 for   1904    995.
 Error on total polarization charges =  0.01420
 SCF Done:  E(RM062X) =  -1658.51602326     A.U. after   16 cycles
            NFock= 16  Conv=0.94D-08     -V/T= 2.0038
 SMD-CDS (non-electrostatic) energy       (kcal/mol) =      -4.61
 (included in total energy above)
 DoSCS=F DFT=T ScalE2(SS,OS)=  1.000000  1.000000
 Range of M.O.s used for correlation:     1   560
 NBasis=   562 NAE=    92 NBE=    92 NFC=     0 NFV=     0
 NROrb=    560 NOA=    92 NOB=    92 NVA=   468 NVB=   468

 **** Warning!!: The largest alpha MO coefficient is  0.15178955D+03

 Symmetrizing basis deriv contribution to polar:
 IMax=3 JMax=2 DiffMx= 0.00D+00
 G2DrvN: will do    40 centers at a time, making    1 passes.
 Calling FoFCou, ICntrl=  3107 FMM=F I1Cent=   0 AccDes= 0.00D+00.
 NEqPCM:  Using equilibrium solvation (IEInf=0, Eps=   2.0333, EpsInf=   2.0492)
 G2PCM: DoFxE=T DoFxN=T DoGrad=T DoDP/DQ/DG/TGxP=FFFF NFrqRd=   0 IEInf=0 SqF1=F DoCFld=F IF1Alg=4.
 End of G2Drv F.D. properties file   721 does not exist.
 End of G2Drv F.D. properties file   722 does not exist.
 End of G2Drv F.D. properties file   788 does not exist.
          IDoAtm=111111111111111111111111111111111111111
 NEqPCM:  Using equilibrium solvation (IEInf=0, Eps=   2.0333, EpsInf=   2.0492)
          Differentiating once with respect to nuclear coordinates.
 CalDSu exits because no D1Ps are significant.
          There are   120 degrees of freedom in the 1st order CPHF.  IDoFFX=6 NUNeed=     0.
    114 vectors produced by pass  0 Test12= 4.31D-14 1.00D-09 XBig12= 4.43D-01 1.85D-01.
 AX will form    64 AO Fock derivatives at one time.
    114 vectors produced by pass  1 Test12= 4.31D-14 1.00D-09 XBig12= 4.12D-02 8.29D-02.
    114 vectors produced by pass  2 Test12= 4.31D-14 1.00D-09 XBig12= 1.38D-03 4.03D-03.
    114 vectors produced by pass  3 Test12= 4.31D-14 1.00D-09 XBig12= 1.23D-05 4.57D-04.
    114 vectors produced by pass  4 Test12= 4.31D-14 1.00D-09 XBig12= 7.16D-08 2.32D-05.
    114 vectors produced by pass  5 Test12= 4.31D-14 1.00D-09 XBig12= 4.41D-10 2.20D-06.
     99 vectors produced by pass  6 Test12= 4.31D-14 1.00D-09 XBig12= 2.12D-12 1.07D-07.
     36 vectors produced by pass  7 Test12= 4.31D-14 1.00D-09 XBig12= 8.23D-15 7.51D-09.
 InvSVY:  IOpt=1 It=  1 EMax= 8.88D-16
 Solved reduced A of dimension   819 with   120 vectors.
 End of Minotr F.D. properties file   721 does not exist.
 End of Minotr F.D. properties file   722 does not exist.
 End of Minotr F.D. properties file   788 does not exist.

 **********************************************************************

            Population analysis using the SCF Density.

 **********************************************************************

 Orbital symmetries:
       Occupied  (A) (A) (A) (A) (A) (A) (A) (A) (A) (A) (A) (A)
                 (A) (A) (A) (A) (A) (A) (A) (A) (A) (A) (A) (A)
                 (A) (A) (A) (A) (A) (A) (A) (A) (A) (A) (A) (A)
                 (A) (A) (A) (A) (A) (A) (A) (A) (A) (A) (A) (A)
                 (A) (A) (A) (A) (A) (A) (A) (A) (A) (A) (A) (A)
                 (A) (A) (A) (A) (A) (A) (A) (A) (A) (A) (A) (A)
                 (A) (A) (A) (A) (A) (A) (A) (A) (A) (A) (A) (A)
                 (A) (A) (A) (A) (A) (A) (A) (A)
       Virtual   (A) (A) (A) (A) (A) (A) (A) (A) (A) (A) (A) (A)
                 (A) (A) (A) (A) (A) (A) (A) (A) (A) (A) (A) (A)
                 (A) (A) (A) (A) (A) (A) (A) (A) (A) (A) (A) (A)
                 (A) (A) (A) (A) (A) (A) (A) (A) (A) (A) (A) (A)
                 (A) (A) (A) (A) (A) (A) (A) (A) (A) (A) (A) (A)
                 (A) (A) (A) (A) (A) (A) (A) (A) (A) (A) (A) (A)
                 (A) (A) (A) (A) (A) (A) (A) (A) (A) (A) (A) (A)
                 (A) (A) (A) (A) (A) (A) (A) (A) (A) (A) (A) (A)
                 (A) (A) (A) (A) (A) (A) (A) (A) (A) (A) (A) (A)
                 (A) (A) (A) (A) (A) (A) (A) (A) (A) (A) (A) (A)
                 (A) (A) (A) (A) (A) (A) (A) (A) (A) (A) (A) (A)
                 (A) (A) (A) (A) (A) (A) (A) (A) (A) (A) (A) (A)
                 (A) (A) (A) (A) (A) (A) (A) (A) (A) (A) (A) (A)
                 (A) (A) (A) (A) (A) (A) (A) (A) (A) (A) (A) (A)
                 (A) (A) (A) (A) (A) (A) (A) (A) (A) (A) (A) (A)
                 (A) (A) (A) (A) (A) (A) (A) (A) (A) (A) (A) (A)
                 (A) (A) (A) (A) (A) (A) (A) (A) (A) (A) (A) (A)
                 (A) (A) (A) (A) (A) (A) (A) (A) (A) (A) (A) (A)
                 (A) (A) (A) (A) (A) (A) (A) (A) (A) (A) (A) (A)
                 (A) (A) (A) (A) (A) (A) (A) (A) (A) (A) (A) (A)
                 (A) (A) (A) (A) (A) (A) (A) (A) (A) (A) (A) (A)
                 (A) (A) (A) (A) (A) (A) (A) (A) (A) (A) (A) (A)
                 (A) (A) (A) (A) (A) (A) (A) (A) (A) (A) (A) (A)
                 (A) (A) (A) (A) (A) (A) (A) (A) (A) (A) (A) (A)
                 (A) (A) (A) (A) (A) (A) (A) (A) (A) (A) (A) (A)
                 (A) (A) (A) (A) (A) (A) (A) (A) (A) (A) (A) (A)
                 (A) (A) (A) (A) (A) (A) (A) (A) (A) (A) (A) (A)
                 (A) (A) (A) (A) (A) (A) (A) (A) (A) (A) (A) (A)
                 (A) (A) (A) (A) (A) (A) (A) (A) (A) (A) (A) (A)
                 (A) (A) (A) (A) (A) (A) (A) (A) (A) (A) (A) (A)
                 (A) (A) (A) (A) (A) (A) (A) (A) (A) (A) (A) (A)
                 (A) (A) (A) (A) (A) (A) (A) (A) (A) (A) (A) (A)
                 (A) (A) (A) (A) (A) (A) (A) (A) (A) (A) (A) (A)
                 (A) (A) (A) (A) (A) (A) (A) (A) (A) (A) (A) (A)
                 (A) (A) (A) (A) (A) (A) (A) (A) (A) (A) (A) (A)
                 (A) (A) (A) (A) (A) (A) (A) (A) (A) (A) (A) (A)
                 (A) (A) (A) (A) (A) (A) (A) (A) (A) (A) (A) (A)
                 (A) (A) (A) (A) (A) (A) (A) (A) (A) (A) (A) (A)
                 (A) (A) (A) (A) (A) (A) (A) (A) (A) (A) (A) (A)
 The electronic state is 1-A.
 Alpha  occ. eigenvalues -- -102.64468 -25.24675 -25.24184 -25.24149 -19.61579
 Alpha  occ. eigenvalues --  -19.54985 -19.49358 -19.46289 -14.74565 -10.77736
 Alpha  occ. eigenvalues --  -10.65729 -10.58501 -10.57173 -10.55556 -10.54777
 Alpha  occ. eigenvalues --  -10.54034 -10.52215 -10.51714 -10.50690 -10.50067
 Alpha  occ. eigenvalues --  -10.49918 -10.47089 -10.46936  -9.78710  -7.51227
 Alpha  occ. eigenvalues --   -7.50545  -7.50534  -1.40903  -1.33189  -1.32998
 Alpha  occ. eigenvalues --   -1.19431  -1.09500  -1.06879  -0.99483  -0.95939
 Alpha  occ. eigenvalues --   -0.93404  -0.89891  -0.85781  -0.84122  -0.79807
 Alpha  occ. eigenvalues --   -0.79545  -0.77549  -0.74821  -0.69081  -0.66613
 Alpha  occ. eigenvalues --   -0.65590  -0.64611  -0.64403  -0.63860  -0.61413
 Alpha  occ. eigenvalues --   -0.60216  -0.58303  -0.54543  -0.54167  -0.53549
 Alpha  occ. eigenvalues --   -0.53301  -0.51372  -0.51024  -0.49979  -0.49931
 Alpha  occ. eigenvalues --   -0.49006  -0.48617  -0.48147  -0.47774  -0.46376
 Alpha  occ. eigenvalues --   -0.46154  -0.45890  -0.44625  -0.44477  -0.44252
 Alpha  occ. eigenvalues --   -0.42357  -0.41219  -0.40924  -0.40023  -0.38965
 Alpha  occ. eigenvalues --   -0.37849  -0.37697  -0.37155  -0.37104  -0.36300
 Alpha  occ. eigenvalues --   -0.35354  -0.34639  -0.34505  -0.33428  -0.33139
 Alpha  occ. eigenvalues --   -0.31950  -0.30687  -0.26788  -0.24097  -0.23889
 Alpha  occ. eigenvalues --   -0.22161  -0.21199
 Alpha virt. eigenvalues --    0.03640   0.04886   0.05129   0.05508   0.06435
 Alpha virt. eigenvalues --    0.06776   0.06971   0.07346   0.07597   0.08452
 Alpha virt. eigenvalues --    0.08952   0.08987   0.09578   0.09671   0.09915
 Alpha virt. eigenvalues --    0.10327   0.10666   0.10856   0.11527   0.11799
 Alpha virt. eigenvalues --    0.11933   0.12198   0.12547   0.13104   0.13391
 Alpha virt. eigenvalues --    0.13791   0.14189   0.14407   0.14619   0.15180
 Alpha virt. eigenvalues --    0.15367   0.15814   0.16077   0.16179   0.16747
 Alpha virt. eigenvalues --    0.17094   0.18100   0.18313   0.18547   0.18784
 Alpha virt. eigenvalues --    0.19114   0.19615   0.20013   0.20494   0.21071
 Alpha virt. eigenvalues --    0.21208   0.21484   0.22200   0.22598   0.22827
 Alpha virt. eigenvalues --    0.23452   0.23590   0.23975   0.24059   0.24542
 Alpha virt. eigenvalues --    0.24845   0.24861   0.25439   0.25788   0.26086
 Alpha virt. eigenvalues --    0.26392   0.26661   0.26750   0.27408   0.27639
 Alpha virt. eigenvalues --    0.27927   0.28196   0.28504   0.29021   0.29361
 Alpha virt. eigenvalues --    0.29607   0.29884   0.30241   0.30417   0.30826
 Alpha virt. eigenvalues --    0.31234   0.31373   0.31458   0.32301   0.32578
 Alpha virt. eigenvalues --    0.32706   0.33360   0.33442   0.33574   0.34053
 Alpha virt. eigenvalues --    0.34254   0.34524   0.34872   0.35519   0.36100
 Alpha virt. eigenvalues --    0.36369   0.36521   0.36887   0.37220   0.37598
 Alpha virt. eigenvalues --    0.38325   0.38612   0.39250   0.39413   0.39911
 Alpha virt. eigenvalues --    0.40464   0.40715   0.40997   0.41340   0.41549
 Alpha virt. eigenvalues --    0.41725   0.41836   0.42636   0.43290   0.43879
 Alpha virt. eigenvalues --    0.44833   0.45311   0.45690   0.46290   0.46475
 Alpha virt. eigenvalues --    0.46994   0.47481   0.48215   0.48667   0.48965
 Alpha virt. eigenvalues --    0.49884   0.50333   0.50622   0.51244   0.51765
 Alpha virt. eigenvalues --    0.52356   0.52712   0.53600   0.54356   0.54498
 Alpha virt. eigenvalues --    0.55542   0.56399   0.57048   0.57571   0.58239
 Alpha virt. eigenvalues --    0.58581   0.60482   0.60916   0.61360   0.61702
 Alpha virt. eigenvalues --    0.61833   0.62942   0.63406   0.63665   0.65120
 Alpha virt. eigenvalues --    0.65446   0.66052   0.66872   0.67782   0.67945
 Alpha virt. eigenvalues --    0.68742   0.69588   0.70184   0.70605   0.71711
 Alpha virt. eigenvalues --    0.71975   0.72144   0.72506   0.73379   0.73627
 Alpha virt. eigenvalues --    0.74149   0.74634   0.74837   0.75279   0.75628
 Alpha virt. eigenvalues --    0.76615   0.76958   0.77816   0.78003   0.78470
 Alpha virt. eigenvalues --    0.78985   0.79357   0.79776   0.80439   0.80993
 Alpha virt. eigenvalues --    0.81408   0.81946   0.82526   0.82790   0.83600
 Alpha virt. eigenvalues --    0.85207   0.85770   0.86758   0.89171   0.89689
 Alpha virt. eigenvalues --    0.91854   0.93235   0.94327   0.95584   0.96656
 Alpha virt. eigenvalues --    0.97199   0.97810   0.98910   1.00252   1.00369
 Alpha virt. eigenvalues --    1.00985   1.01191   1.02142   1.03913   1.05038
 Alpha virt. eigenvalues --    1.05663   1.06680   1.07796   1.09094   1.09924
 Alpha virt. eigenvalues --    1.10408   1.11060   1.11778   1.13686   1.14212
 Alpha virt. eigenvalues --    1.15542   1.15926   1.16865   1.17655   1.18673
 Alpha virt. eigenvalues --    1.20307   1.22194   1.23390   1.24042   1.25899
 Alpha virt. eigenvalues --    1.26368   1.27490   1.27741   1.29291   1.29838
 Alpha virt. eigenvalues --    1.31196   1.31608   1.33335   1.34055   1.34416
 Alpha virt. eigenvalues --    1.36447   1.37161   1.38974   1.39271   1.40620
 Alpha virt. eigenvalues --    1.42233   1.43919   1.44915   1.45981   1.48612
 Alpha virt. eigenvalues --    1.49654   1.50114   1.50681   1.51103   1.51370
 Alpha virt. eigenvalues --    1.52788   1.54266   1.55543   1.55881   1.56584
 Alpha virt. eigenvalues --    1.58963   1.59367   1.59988   1.60504   1.62194
 Alpha virt. eigenvalues --    1.62346   1.62971   1.63522   1.64204   1.65263
 Alpha virt. eigenvalues --    1.65465   1.66252   1.66498   1.67165   1.68471
 Alpha virt. eigenvalues --    1.69235   1.70645   1.72299   1.73123   1.74156
 Alpha virt. eigenvalues --    1.76901   1.78178   1.78620   1.79318   1.81916
 Alpha virt. eigenvalues --    1.82309   1.83971   1.84214   1.84459   1.85224
 Alpha virt. eigenvalues --    1.85615   1.86460   1.87772   1.88355   1.88765
 Alpha virt. eigenvalues --    1.91095   1.92322   1.93900   1.94622   1.95761
 Alpha virt. eigenvalues --    1.96823   1.97471   1.98907   2.00404   2.03358
 Alpha virt. eigenvalues --    2.03497   2.04621   2.05931   2.08855   2.09758
 Alpha virt. eigenvalues --    2.12751   2.13934   2.14835   2.18461   2.22945
 Alpha virt. eigenvalues --    2.24217   2.24542   2.25499   2.27908   2.30491
 Alpha virt. eigenvalues --    2.30669   2.35622   2.36773   2.39524   2.41052
 Alpha virt. eigenvalues --    2.46760   2.47843   2.50331   2.53464   2.53685
 Alpha virt. eigenvalues --    2.56031   2.57919   2.58406   2.59063   2.59867
 Alpha virt. eigenvalues --    2.61264   2.62715   2.63402   2.64688   2.65600
 Alpha virt. eigenvalues --    2.66481   2.66756   2.69647   2.72553   2.73959
 Alpha virt. eigenvalues --    2.75097   2.80197   2.81750   2.82843   2.86865
 Alpha virt. eigenvalues --    2.87468   2.87652   2.88987   2.95856   2.99627
 Alpha virt. eigenvalues --    2.99794   3.00670   3.02022   3.03592   3.03712
 Alpha virt. eigenvalues --    3.05658   3.06533   3.07619   3.07782   3.08152
 Alpha virt. eigenvalues --    3.09614   3.09894   3.11160   3.11376   3.15317
 Alpha virt. eigenvalues --    3.16433   3.16913   3.21095   3.23271   3.23759
 Alpha virt. eigenvalues --    3.24347   3.25112   3.27255   3.30353   3.30617
 Alpha virt. eigenvalues --    3.31267   3.32523   3.34484   3.36511   3.37152
 Alpha virt. eigenvalues --    3.39777   3.41975   3.43465   3.45049   3.45662
 Alpha virt. eigenvalues --    3.46667   3.48840   3.52747   3.53252   3.57272
 Alpha virt. eigenvalues --    3.69034   3.70296   3.73469   3.77702   3.80430
 Alpha virt. eigenvalues --    3.81722   3.84642   3.84722   3.88151   3.88653
 Alpha virt. eigenvalues --    3.89894   3.91230   3.91962   3.92659   3.93964
 Alpha virt. eigenvalues --    3.98892   4.03091   4.04302   4.04529   4.07022
 Alpha virt. eigenvalues --    4.08782   4.13710   4.20430   4.21686   4.24237
 Alpha virt. eigenvalues --    4.24673   4.26714   4.28841   4.29896   4.55494
 Alpha virt. eigenvalues --    4.75211   4.84925   4.97182   4.99926   5.11108
 Alpha virt. eigenvalues --    5.16518   5.22926   5.26436   5.30655   5.43604
 Alpha virt. eigenvalues --    5.46543   5.48896   5.52509   5.77115   5.87117
 Alpha virt. eigenvalues --    6.05472   6.07145   6.47574   6.52049   6.53739
 Alpha virt. eigenvalues --    6.54736   6.58294   6.61142   6.65564   6.85340
 Alpha virt. eigenvalues --    6.88402  10.03420  23.46992  23.62000  23.65309
 Alpha virt. eigenvalues --   23.67506  23.77746  23.84452  23.86742  23.93847
 Alpha virt. eigenvalues --   23.95385  23.99070  24.01451  24.09110  24.11989
 Alpha virt. eigenvalues --   24.20667  25.99639  26.36065  26.83143  35.70927
 Alpha virt. eigenvalues --   50.07820  50.13980  50.19517  50.23261  66.91551
 Alpha virt. eigenvalues --   66.94487  67.00006 216.14277
          Condensed to atoms (all electrons):
               1          2          3          4          5          6
     1  C   26.703024  -0.090825  -0.436422  -0.237466  -0.350702  -0.615247
     2  N   -0.090825   7.857113   0.230196  -0.045353  -0.286741  -0.374503
     3  C   -0.436422   0.230196   8.595962   0.575624   0.239268  -0.712233
     4  O   -0.237466  -0.045353   0.575624   8.136143  -0.201152  -0.199041
     5  O   -0.350702  -0.286741   0.239268  -0.201152   8.490639   0.365758
     6  C   -0.615247  -0.374503  -0.712233  -0.199041   0.365758   8.149446
     7  C    0.027155   0.047388   0.262638   0.032981  -0.179100  -0.916603
     8  C   -0.017517  -0.008581  -0.227230  -0.000271   0.029128   0.335396
     9  C    0.139456  -0.244769  -0.762318   0.313220   0.085629  -0.206488
    10  C   -7.917519   0.019340   0.193028   0.102236   0.052193   0.005767
    11  C   -1.529941  -0.090767  -1.105659  -0.010260  -0.003214  -0.094859
    12  C   -6.067499   0.256336  -0.293151  -0.021114  -0.027678  -0.022602
    13  C   -1.284744   0.156213  -0.606672  -0.075020  -0.091603  -0.092103
    14  H   -0.007157   0.099315   0.029079  -0.000111   0.024228   0.004668
    15  H    0.001854   0.003832   0.051580   0.000806  -0.057925   0.330269
    16  H    0.013893   0.003077   0.006336   0.000030  -0.044286   0.419131
    17  H   -0.001956  -0.001705   0.003426  -0.000335   0.000064  -0.072051
    18  H    0.001381  -0.000200   0.002829  -0.000303   0.001783  -0.043281
    19  H    0.000089   0.000013   0.000780  -0.000060  -0.000178  -0.033826
    20  H    0.000113   0.000031   0.006712   0.000023  -0.000915   0.082400
    21  H   -0.000225  -0.000089  -0.003023  -0.000056  -0.000619  -0.051013
    22  H    0.042595  -0.023640   0.086018   0.001669   0.002637   0.009305
    23  Cl  -0.431020   0.000041   0.011071   0.000901   0.000570   0.001826
    24  C   -1.617251   0.021059  -0.240207  -0.003066   0.001323  -0.007552
    25  H    0.066170  -0.001657   0.004326  -0.000013  -0.000008   0.000044
    26  H    0.137322  -0.017547  -0.005022   0.000129   0.000095  -0.000230
    27  F    0.051699  -0.000021  -0.000149   0.000001   0.000000  -0.000003
    28  F    0.025274   0.000035  -0.000161  -0.000007   0.000000  -0.000000
    29  F    0.043220   0.000007   0.000269  -0.000003   0.000000   0.000000
    30  O    0.072005  -0.007947   0.015879  -0.000060   0.000014  -0.000038
    31  O    0.114304  -0.024532  -0.026195   0.000490   0.006614  -0.009931
    32  C   -0.194730   0.006057   0.019471   0.000060  -0.001650   0.005583
    33  C    0.093101  -0.029002   0.025679   0.000424   0.001630   0.004997
    34  C    0.010669   0.002013  -0.006526  -0.000133  -0.000915  -0.000059
    35  H    0.000083   0.000069  -0.000049  -0.000000   0.000005  -0.000060
    36  H   -0.000617   0.000062   0.000078  -0.000000   0.000007   0.000009
    37  H   -0.000082   0.000240  -0.000131   0.000001   0.000010   0.000170
    38  H   -0.000144  -0.000054   0.000050  -0.000000  -0.000000  -0.000031
    39  H    0.000541   0.000212  -0.000063   0.000001  -0.000013  -0.000009
               7          8          9         10         11         12
     1  C    0.027155  -0.017517   0.139456  -7.917519  -1.529941  -6.067499
     2  N    0.047388  -0.008581  -0.244769   0.019340  -0.090767   0.256336
     3  C    0.262638  -0.227230  -0.762318   0.193028  -1.105659  -0.293151
     4  O    0.032981  -0.000271   0.313220   0.102236  -0.010260  -0.021114
     5  O   -0.179100   0.029128   0.085629   0.052193  -0.003214  -0.027678
     6  C   -0.916603   0.335396  -0.206488   0.005767  -0.094859  -0.022602
     7  C    6.443771  -0.286482  -0.027333  -0.012835   0.000612   0.004716
     8  C   -0.286482   6.264140  -0.003913   0.001122  -0.000839  -0.000699
     9  C   -0.027333  -0.003913  16.613687   3.218482  -6.882807  -0.818566
    10  C   -0.012835   0.001122   3.218482  35.045169 -10.415193  -6.657889
    11  C    0.000612  -0.000839  -6.882807 -10.415193  36.683835  -1.689177
    12  C    0.004716  -0.000699  -0.818566  -6.657889  -1.689177  24.215418
    13  C    0.029942  -0.004364  -4.246956  -6.879321  -0.509130  -1.523216
    14  H   -0.000316  -0.000191   0.051985   0.029737  -0.002643  -0.014981
    15  H    0.006423  -0.020948  -0.000223   0.000033   0.000010   0.000133
    16  H   -0.049948  -0.014107  -0.007839  -0.000816  -0.000008   0.000015
    17  H    0.475687  -0.072563   0.000106   0.000001  -0.000003   0.000045
    18  H    0.432110  -0.062796   0.000180   0.000031   0.000011  -0.000025
    19  H    0.008439   0.365742  -0.000015  -0.000001   0.000000  -0.000000
    20  H   -0.139015   0.398246   0.000053   0.000002   0.000000  -0.000001
    21  H    0.025673   0.368108  -0.000007  -0.000003  -0.000001   0.000001
    22  H   -0.000645   0.000079   0.288811  -0.038922   0.049684  -0.056968
    23  Cl  -0.000143   0.000028   0.410316  -1.555800   0.243030   0.428501
    24  C   -0.000199  -0.000031  -1.337776  -0.261635  -7.289176  -1.477806
    25  H    0.000001   0.000000  -0.018299  -0.024671   0.116497   0.267793
    26  H   -0.000040   0.000003   0.011662   0.015571   0.020453  -0.195294
    27  F    0.000000  -0.000000   0.001557  -0.015374  -0.233688   0.022124
    28  F   -0.000000  -0.000000   0.019470  -0.128975   0.181518  -0.004027
    29  F   -0.000000  -0.000000   0.054993  -0.103505   0.146233  -0.016286
    30  O    0.000461   0.000021  -0.018652  -0.000850   0.011037  -0.092207
    31  O    0.003761   0.000840   0.040674   0.009976   0.002332  -0.018059
    32  C   -0.000578  -0.000853  -0.023176   0.010080  -0.051079   0.079581
    33  C    0.000211   0.002086  -0.005888   0.001657  -0.015396  -0.087046
    34  C    0.000495  -0.001522   0.002351   0.000713  -0.000868  -0.002247
    35  H    0.000035  -0.000001   0.000005  -0.000009  -0.000024  -0.000407
    36  H    0.000013  -0.000001  -0.000030  -0.000003  -0.000058  -0.000059
    37  H    0.000197   0.000098  -0.000006   0.000001  -0.000016  -0.000139
    38  H   -0.000011  -0.000008  -0.000004  -0.000000   0.000004   0.000085
    39  H    0.000093   0.000104   0.000045   0.000005  -0.000011  -0.000221
              13         14         15         16         17         18
     1  C   -1.284744  -0.007157   0.001854   0.013893  -0.001956   0.001381
     2  N    0.156213   0.099315   0.003832   0.003077  -0.001705  -0.000200
     3  C   -0.606672   0.029079   0.051580   0.006336   0.003426   0.002829
     4  O   -0.075020  -0.000111   0.000806   0.000030  -0.000335  -0.000303
     5  O   -0.091603   0.024228  -0.057925  -0.044286   0.000064   0.001783
     6  C   -0.092103   0.004668   0.330269   0.419131  -0.072051  -0.043281
     7  C    0.029942  -0.000316   0.006423  -0.049948   0.475687   0.432110
     8  C   -0.004364  -0.000191  -0.020948  -0.014107  -0.072563  -0.062796
     9  C   -4.246956   0.051985  -0.000223  -0.007839   0.000106   0.000180
    10  C   -6.879321   0.029737   0.000033  -0.000816   0.000001   0.000031
    11  C   -0.509130  -0.002643   0.000010  -0.000008  -0.000003   0.000011
    12  C   -1.523216  -0.014981   0.000133   0.000015   0.000045  -0.000025
    13  C   22.120813  -0.095138   0.001282   0.000039   0.000495  -0.000239
    14  H   -0.095138   0.276007   0.000097  -0.000076   0.000008  -0.000057
    15  H    0.001282   0.000097   0.487124  -0.044194   0.005298  -0.009339
    16  H    0.000039  -0.000076  -0.044194   0.464589  -0.007079   0.005186
    17  H    0.000495   0.000008   0.005298  -0.007079   0.436710  -0.029705
    18  H   -0.000239  -0.000057  -0.009339   0.005186  -0.029705   0.446092
    19  H    0.000001  -0.000001  -0.000940   0.003883  -0.007852   0.006502
    20  H   -0.000018  -0.000000  -0.000251  -0.000181  -0.003900  -0.003873
    21  H    0.000026   0.000000   0.004270  -0.000565   0.006351  -0.008097
    22  H   -0.035416  -0.000115  -0.000033  -0.000019  -0.000000  -0.000000
    23  Cl   0.482624   0.000038   0.000001  -0.000003   0.000000   0.000000
    24  C   -1.295444   0.001653  -0.000002  -0.000003  -0.000000   0.000000
    25  H   -0.101335   0.000026   0.000000  -0.000000  -0.000000  -0.000000
    26  H    0.241530   0.013412  -0.000000   0.000000  -0.000000   0.000000
    27  F    0.143479  -0.000001  -0.000000   0.000000  -0.000000   0.000000
    28  F    0.008019   0.000001  -0.000000  -0.000000  -0.000000   0.000000
    29  F   -0.007001   0.000001   0.000000  -0.000000   0.000000  -0.000000
    30  O    0.012713   0.016028  -0.000001   0.000002  -0.000005   0.000001
    31  O   -0.138962   0.060966  -0.000102   0.000093  -0.000241   0.000121
    32  C    0.150216  -0.007333  -0.000012   0.000129   0.000326   0.000227
    33  C   -0.084501   0.023803  -0.000015  -0.000001  -0.001106  -0.000266
    34  C   -0.006899  -0.001654   0.000029   0.000011   0.001048   0.000176
    35  H    0.000782  -0.000006   0.000000   0.000000   0.000000  -0.000000
    36  H    0.000771  -0.000020   0.000000   0.000000   0.000000   0.000000
    37  H   -0.000177  -0.000182  -0.000000  -0.000000  -0.000050  -0.000004
    38  H    0.000231   0.000025  -0.000000  -0.000000   0.000000   0.000000
    39  H   -0.000526  -0.000161  -0.000000   0.000000  -0.000022  -0.000010
              19         20         21         22         23         24
     1  C    0.000089   0.000113  -0.000225   0.042595  -0.431020  -1.617251
     2  N    0.000013   0.000031  -0.000089  -0.023640   0.000041   0.021059
     3  C    0.000780   0.006712  -0.003023   0.086018   0.011071  -0.240207
     4  O   -0.000060   0.000023  -0.000056   0.001669   0.000901  -0.003066
     5  O   -0.000178  -0.000915  -0.000619   0.002637   0.000570   0.001323
     6  C   -0.033826   0.082400  -0.051013   0.009305   0.001826  -0.007552
     7  C    0.008439  -0.139015   0.025673  -0.000645  -0.000143  -0.000199
     8  C    0.365742   0.398246   0.368108   0.000079   0.000028  -0.000031
     9  C   -0.000015   0.000053  -0.000007   0.288811   0.410316  -1.337776
    10  C   -0.000001   0.000002  -0.000003  -0.038922  -1.555800  -0.261635
    11  C    0.000000   0.000000  -0.000001   0.049684   0.243030  -7.289176
    12  C   -0.000000  -0.000001   0.000001  -0.056968   0.428501  -1.477806
    13  C    0.000001  -0.000018   0.000026  -0.035416   0.482624  -1.295444
    14  H   -0.000001  -0.000000   0.000000  -0.000115   0.000038   0.001653
    15  H   -0.000940  -0.000251   0.004270  -0.000033   0.000001  -0.000002
    16  H    0.003883  -0.000181  -0.000565  -0.000019  -0.000003  -0.000003
    17  H   -0.007852  -0.003900   0.006351  -0.000000   0.000000  -0.000000
    18  H    0.006502  -0.003873  -0.008097  -0.000000   0.000000   0.000000
    19  H    0.464692  -0.024429  -0.036550  -0.000000  -0.000000  -0.000000
    20  H   -0.024429   0.441727  -0.024805   0.000000  -0.000000   0.000000
    21  H   -0.036550  -0.024805   0.468237  -0.000000   0.000000  -0.000000
    22  H   -0.000000   0.000000  -0.000000   0.363150  -0.016002   0.010492
    23  Cl  -0.000000  -0.000000   0.000000  -0.016002  17.748759  -0.722580
    24  C   -0.000000   0.000000  -0.000000   0.010492  -0.722580  19.165570
    25  H    0.000000  -0.000000   0.000000   0.000053  -0.000389   0.010840
    26  H   -0.000000   0.000000  -0.000000   0.000064   0.000020   0.009354
    27  F    0.000000   0.000000  -0.000000   0.000018   0.008263   0.172805
    28  F   -0.000000   0.000000  -0.000000   0.000001  -0.015943   0.058139
    29  F   -0.000000   0.000000  -0.000000  -0.000016  -0.017880   0.041208
    30  O    0.000000   0.000000  -0.000000  -0.000011   0.000034  -0.000563
    31  O    0.000004   0.000002  -0.000001   0.000001   0.000022   0.000372
    32  C    0.000008  -0.000005  -0.000003   0.000230   0.000287  -0.010475
    33  C   -0.000011   0.000011  -0.000005   0.000030  -0.000043  -0.002422
    34  C    0.000015  -0.000029   0.000006   0.000001   0.000005   0.000020
    35  H    0.000000  -0.000000   0.000000  -0.000000   0.000000   0.000001
    36  H    0.000000  -0.000000   0.000000  -0.000000   0.000000  -0.000001
    37  H   -0.000000   0.000000  -0.000000   0.000000  -0.000000  -0.000000
    38  H    0.000000  -0.000000   0.000000  -0.000000   0.000000   0.000000
    39  H   -0.000000   0.000000  -0.000000   0.000000   0.000000  -0.000000
              25         26         27         28         29         30
     1  C    0.066170   0.137322   0.051699   0.025274   0.043220   0.072005
     2  N   -0.001657  -0.017547  -0.000021   0.000035   0.000007  -0.007947
     3  C    0.004326  -0.005022  -0.000149  -0.000161   0.000269   0.015879
     4  O   -0.000013   0.000129   0.000001  -0.000007  -0.000003  -0.000060
     5  O   -0.000008   0.000095   0.000000   0.000000   0.000000   0.000014
     6  C    0.000044  -0.000230  -0.000003  -0.000000   0.000000  -0.000038
     7  C    0.000001  -0.000040   0.000000  -0.000000  -0.000000   0.000461
     8  C    0.000000   0.000003  -0.000000  -0.000000  -0.000000   0.000021
     9  C   -0.018299   0.011662   0.001557   0.019470   0.054993  -0.018652
    10  C   -0.024671   0.015571  -0.015374  -0.128975  -0.103505  -0.000850
    11  C    0.116497   0.020453  -0.233688   0.181518   0.146233   0.011037
    12  C    0.267793  -0.195294   0.022124  -0.004027  -0.016286  -0.092207
    13  C   -0.101335   0.241530   0.143479   0.008019  -0.007001   0.012713
    14  H    0.000026   0.013412  -0.000001   0.000001   0.000001   0.016028
    15  H    0.000000  -0.000000  -0.000000  -0.000000   0.000000  -0.000001
    16  H   -0.000000   0.000000   0.000000  -0.000000  -0.000000   0.000002
    17  H   -0.000000  -0.000000  -0.000000  -0.000000   0.000000  -0.000005
    18  H   -0.000000   0.000000   0.000000   0.000000  -0.000000   0.000001
    19  H    0.000000  -0.000000   0.000000  -0.000000  -0.000000   0.000000
    20  H   -0.000000   0.000000   0.000000   0.000000   0.000000   0.000000
    21  H    0.000000  -0.000000  -0.000000  -0.000000  -0.000000  -0.000000
    22  H    0.000053   0.000064   0.000018   0.000001  -0.000016  -0.000011
    23  Cl  -0.000389   0.000020   0.008263  -0.015943  -0.017880   0.000034
    24  C    0.010840   0.009354   0.172805   0.058139   0.041208  -0.000563
    25  H    0.382020  -0.002182   0.008167   0.000215   0.000221   0.000425
    26  H   -0.002182   0.289828   0.000059   0.000016   0.000020   0.025925
    27  F    0.008167   0.000059   9.040888  -0.031548  -0.033153  -0.000006
    28  F    0.000215   0.000016  -0.031548   8.988694  -0.045995  -0.000001
    29  F    0.000221   0.000020  -0.033153  -0.045995   8.991078  -0.000003
    30  O    0.000425   0.025925  -0.000006  -0.000001  -0.000003   8.521627
    31  O   -0.000057   0.007777   0.000000   0.000000  -0.000000  -0.191475
    32  C   -0.000866  -0.002236   0.000040  -0.000014  -0.000009   0.446722
    33  C    0.000210   0.014335   0.000009  -0.000001  -0.000000  -0.236502
    34  C   -0.000024   0.000223  -0.000000  -0.000000  -0.000000   0.012925
    35  H    0.000000  -0.000041  -0.000000  -0.000000  -0.000000  -0.002543
    36  H    0.000000  -0.000081  -0.000000  -0.000000  -0.000000  -0.002667
    37  H    0.000000  -0.000006  -0.000000  -0.000000  -0.000000  -0.000381
    38  H    0.000000  -0.000002   0.000000   0.000000   0.000000  -0.000129
    39  H    0.000000  -0.000001  -0.000000  -0.000000  -0.000000  -0.000230
              31         32         33         34         35         36
     1  C    0.114304  -0.194730   0.093101   0.010669   0.000083  -0.000617
     2  N   -0.024532   0.006057  -0.029002   0.002013   0.000069   0.000062
     3  C   -0.026195   0.019471   0.025679  -0.006526  -0.000049   0.000078
     4  O    0.000490   0.000060   0.000424  -0.000133  -0.000000  -0.000000
     5  O    0.006614  -0.001650   0.001630  -0.000915   0.000005   0.000007
     6  C   -0.009931   0.005583   0.004997  -0.000059  -0.000060   0.000009
     7  C    0.003761  -0.000578   0.000211   0.000495   0.000035   0.000013
     8  C    0.000840  -0.000853   0.002086  -0.001522  -0.000001  -0.000001
     9  C    0.040674  -0.023176  -0.005888   0.002351   0.000005  -0.000030
    10  C    0.009976   0.010080   0.001657   0.000713  -0.000009  -0.000003
    11  C    0.002332  -0.051079  -0.015396  -0.000868  -0.000024  -0.000058
    12  C   -0.018059   0.079581  -0.087046  -0.002247  -0.000407  -0.000059
    13  C   -0.138962   0.150216  -0.084501  -0.006899   0.000782   0.000771
    14  H    0.060966  -0.007333   0.023803  -0.001654  -0.000006  -0.000020
    15  H   -0.000102  -0.000012  -0.000015   0.000029   0.000000   0.000000
    16  H    0.000093   0.000129  -0.000001   0.000011   0.000000   0.000000
    17  H   -0.000241   0.000326  -0.001106   0.001048   0.000000   0.000000
    18  H    0.000121   0.000227  -0.000266   0.000176  -0.000000   0.000000
    19  H    0.000004   0.000008  -0.000011   0.000015   0.000000   0.000000
    20  H    0.000002  -0.000005   0.000011  -0.000029  -0.000000  -0.000000
    21  H   -0.000001  -0.000003  -0.000005   0.000006   0.000000   0.000000
    22  H    0.000001   0.000230   0.000030   0.000001  -0.000000  -0.000000
    23  Cl   0.000022   0.000287  -0.000043   0.000005   0.000000   0.000000
    24  C    0.000372  -0.010475  -0.002422   0.000020   0.000001  -0.000001
    25  H   -0.000057  -0.000866   0.000210  -0.000024   0.000000   0.000000
    26  H    0.007777  -0.002236   0.014335   0.000223  -0.000041  -0.000081
    27  F    0.000000   0.000040   0.000009  -0.000000  -0.000000  -0.000000
    28  F    0.000000  -0.000014  -0.000001  -0.000000  -0.000000  -0.000000
    29  F   -0.000000  -0.000009  -0.000000  -0.000000  -0.000000  -0.000000
    30  O   -0.191475   0.446722  -0.236502   0.012925  -0.002543  -0.002667
    31  O    8.464924   0.275032  -0.184036   0.053399   0.000904   0.000805
    32  C    0.275032   6.243839  -1.212732   0.258762  -0.036160  -0.049283
    33  C   -0.184036  -1.212732   7.769891  -0.507871   0.419807   0.429908
    34  C    0.053399   0.258762  -0.507871   6.067473  -0.054367  -0.051242
    35  H    0.000904  -0.036160   0.419807  -0.054367   0.450993  -0.029183
    36  H    0.000805  -0.049283   0.429908  -0.051242  -0.029183   0.452317
    37  H   -0.008243  -0.021769  -0.013567   0.388989  -0.007223   0.006039
    38  H    0.003700   0.075124  -0.135742   0.402604  -0.003666  -0.003605
    39  H   -0.008394  -0.014192  -0.019170   0.386736   0.006029  -0.007391
              37         38         39
     1  C   -0.000082  -0.000144   0.000541
     2  N    0.000240  -0.000054   0.000212
     3  C   -0.000131   0.000050  -0.000063
     4  O    0.000001  -0.000000   0.000001
     5  O    0.000010  -0.000000  -0.000013
     6  C    0.000170  -0.000031  -0.000009
     7  C    0.000197  -0.000011   0.000093
     8  C    0.000098  -0.000008   0.000104
     9  C   -0.000006  -0.000004   0.000045
    10  C    0.000001  -0.000000   0.000005
    11  C   -0.000016   0.000004  -0.000011
    12  C   -0.000139   0.000085  -0.000221
    13  C   -0.000177   0.000231  -0.000526
    14  H   -0.000182   0.000025  -0.000161
    15  H   -0.000000  -0.000000  -0.000000
    16  H   -0.000000  -0.000000   0.000000
    17  H   -0.000050   0.000000  -0.000022
    18  H   -0.000004   0.000000  -0.000010
    19  H   -0.000000   0.000000  -0.000000
    20  H    0.000000  -0.000000   0.000000
    21  H   -0.000000   0.000000  -0.000000
    22  H    0.000000  -0.000000   0.000000
    23  Cl  -0.000000   0.000000   0.000000
    24  C   -0.000000   0.000000  -0.000000
    25  H    0.000000   0.000000   0.000000
    26  H   -0.000006  -0.000002  -0.000001
    27  F   -0.000000   0.000000  -0.000000
    28  F   -0.000000   0.000000  -0.000000
    29  F   -0.000000   0.000000  -0.000000
[...]
 399,0.00037641,0.00015332,-0.00009782,-0.00013624,-0.00021089,0.000095
 83,-0.00014550,-0.00002834,0.00002502,0.00011222,0.00001710,-0.0000235
 8,-0.00000755,-0.00000933,-0.00000630,0.00000067,0.00000755,-0.0000008
 2,0.00009801,-0.00007352,0.00002702,-0.00004055,0.00003455,-0.00000795
 ,0.00007567,-0.00004730,0.00001745,-0.00005135,0.00002366,0.00000371,0
 .00012445,0.00008770,-0.00004890,0.00005098,0.00162582,-0.00032202,-0.
 00001556,-0.00000741,0.00000224,-0.00001525,-0.00000934,0.00000964,0.0
 0000395,0.00000078,-0.00000293,0.00000585,-0.00000075,0.00000692,-0.00
 000237,-0.00000344,0.00000373,-0.00000756,0.00000146,-0.00000127,-0.00
 000018,-0.00000127,0.00000038,-0.00001031,0.00000826,-0.00000534,0.000
 01196,-0.00003759,0.00001074,-0.00012340,0.00001779,-0.00002727,0.0000
 0723,-0.00000571,-0.00000708,-0.00008328,-0.00001518,0.00000794,0.0000
 4006,0.00001498,-0.00000033,0.00002911,-0.00001745,-0.00000261,0.00003
 410,-0.00001452,0.00002863,0.00088093,0.00391045,0.00293367,0.00128692
 ,-0.00652407,0.00512661,-0.01769619,-0.01927451,-0.02030187,-0.0884046
 2,-0.17545820,-0.10193780,0.00387193,0.00424159,0.00390651,0.09685175,
 0.18842123,0.00000177,0.00000847,-0.00001090,0.00002405,0.00015194,-0.
 00000314,-0.00004295,0.00004284,-0.00001668,0.00001229,-0.00001608,0.0
 0000348,0.00000952,-0.00002888,0.00000944,0.00001227,0.00000633,-0.000
 00341,0.00000047,0.00000577,-0.00000413,0.00000211,-0.00000303,0.00000
 118,-0.00000218,-0.00000634,0.00000200,-0.00000327,0.00001439,-0.00000
 482,0.00001487,-0.00001051,0.00000228,-0.00002202,-0.00000307,-0.00000
 392,0.00001112,-0.00000600,0.00002194,-0.00001325,-0.00019960,-0.00004
 001,0.00000016,-0.00000103,-0.00000264,0.00000027,0.00000042,0.0000028
 6,0.00000378,-0.00000064,-0.00000341,0.00000299,-0.00000015,0.00000302
 ,-0.00000109,-0.00000022,0.00000265,-0.00000037,0.00000161,-0.00000070
 ,-0.00000156,-0.00000200,-0.00000138,-0.00000008,-0.00000048,-0.000000
 54,0.00000198,-0.00001186,0.00000357,-0.00004831,0.00000451,-0.0000021
 4,-0.00000078,0.00000093,-0.00000106,-0.00000020,0.00002743,-0.0000130
 3,0.00001765,0.00000537,-0.00000148,0.00001188,-0.00000662,-0.00000239
 ,0.00001265,-0.00000445,0.00000752,0.00171595,-0.00062503,0.00001993,0
 .00034173,0.00203915,-0.00160651,0.00327679,0.00927573,0.00578017,-0.0
 6754172,-0.10013324,-0.11904793,0.00210341,0.00384182,0.00217188,0.074
 87582,0.10761590,0.12833775,-0.00002059,0.00001227,0.00000051,0.000071
 26,0.00005852,-0.00006759,-0.00016713,0.00001115,0.00002120,0.00004281
 ,0.00000876,-0.00000939,0.00010048,-0.00004915,-0.00001565,-0.00003897
 ,0.00000890,0.00000516,0.00000506,0.00002680,0.00002871,0.00000671,-0.
 00001386,-0.00000691,0.00000499,0.00000033,-0.00000368,-0.00000411,-0.
 00001088,0.00000388,-0.00000398,0.00001340,-0.00000147,0.00001196,0.00
 000356,-0.00000534,0.00000325,0.00000112,-0.00000538,-0.00002815,-0.00
 010355,0.00012424,0.00000728,-0.00001047,-0.00000166,0.00000511,0.0000
 0287,-0.00000113,0.00000352,-0.00000572,-0.00002939,-0.00000004,0.0000
 0825,0.00000716,-0.00000154,0.00000207,0.00000115,0.00000631,0.0000033
 3,0.00000349,-0.00000811,-0.00000969,-0.00000167,-0.00000265,0.0000034
 6,0.00000139,-0.00000156,0.00001543,-0.00000479,0.00002925,-0.00000868
 ,0.00000494,0.00000393,-0.00000405,-0.00000030,0.00002432,-0.00011598,
 0.00004035,-0.00000946,0.00000020,0.00000017,-0.00000815,0.00000634,0.
 00000207,-0.00000887,0.00000455,-0.00000803,-0.00137376,0.00172434,0.0
 0123317,0.00056324,0.00062253,0.00041255,0.00124332,-0.00117076,-0.010
 00585,-0.06525131,-0.00853875,0.06722956,-0.01024856,-0.00383701,0.033
 23030,0.00400272,0.00297797,-0.01500369,0.07481615,-0.00017898,0.00003
 424,0.00000447,-0.00003229,-0.00050777,0.00030379,0.00024719,0.0000832
 8,-0.00002184,-0.00008489,-0.00011575,0.00002848,-0.00010121,-0.000002
 29,-0.00000376,0.00006410,0.00000969,0.00000038,-0.00000292,-0.0000060
 5,0.00001216,-0.00000241,0.00000579,-0.00000536,0.00004096,-0.00004480
 ,-0.00000286,-0.00001542,0.00001801,-0.00000465,0.00003455,-0.00002841
 ,-0.00000218,-0.00002304,0.00000818,-0.00000094,0.00005560,0.00002644,
 0.00001686,0.00003412,0.00081153,-0.00058944,-0.00001032,-0.00000671,0
 .00000134,-0.00000927,-0.00000309,0.00000072,0.00000250,-0.00000279,0.
 00000024,-0.00000073,0.00000044,-0.00000408,0.00000147,-0.00000009,-0.
 00000163,-0.00000457,0.00000034,0.00000089,-0.00000029,-0.00000138,0.0
 0000081,-0.00000348,0.00000258,0.00000174,0.00000561,-0.00002251,0.000
 00711,-0.00005057,0.00002332,0.00001079,0.00000258,0.00000543,0.000004
 93,-0.00005269,0.00005512,-0.00004520,0.00001402,0.00000058,-0.0000043
 3,0.00001480,-0.00001674,-0.00001052,0.00001310,-0.00000793,0.00000604
 ,0.00094937,-0.00095596,-0.00371106,0.00035616,-0.00598674,-0.00291097
 ,-0.00897237,-0.00116790,0.03301729,-0.00901618,-0.04834737,0.03580869
 ,0.00157215,-0.00009559,-0.00457912,0.00685377,0.00309478,-0.02304431,
 0.00773937,0.05237016,0.00016862,-0.00004217,-0.00000186,-0.00002484,0
 .00036537,-0.00011400,-0.00010885,-0.00012434,0.00002189,0.00004670,0.
 00011834,-0.00003168,0.00003144,0.00005025,0.00000370,-0.00004692,-0.0
 0002067,0.00000157,0.00000134,-0.00001055,-0.00001688,-0.00000431,0.00
 000402,0.00000368,-0.00003794,0.00004376,-0.00000668,0.00001918,-0.000
 02856,0.00000733,-0.00004790,0.00003506,-0.00000114,0.00004196,-0.0000
 0562,0.00000250,-0.00006475,-0.00000766,0.00000949,-0.00001900,-0.0005
 8084,0.00021853,0.00000528,0.00001158,0.00000258,0.00000385,0.00000142
 ,-0.00000304,-0.00000742,0.00000499,0.00001825,-0.00000422,-0.00000738
 ,-0.00000573,0.00000137,-0.00000024,-0.00000253,0.00000103,-0.00000374
 ,-0.00000126,0.00000560,0.00000816,0.00000222,0.00000480,-0.00000384,-
 0.00000285,-0.00000713,0.00002885,-0.00000752,0.00009340,-0.00002637,-
 0.00002470,-0.00000346,-0.00000457,-0.00000828,0.00003808,-0.00005761,
 0.00000708,-0.00003107,-0.00000721,0.00000956,-0.00002602,0.00002437,0
 .00001693,-0.00002233,0.00001009,-0.00000443,-0.00168636,0.00132368,0.
 00194028,-0.00089422,0.00225003,0.00037989,0.00457049,-0.00122362,-0.0
 1003737,0.06919316,0.03071260,-0.28592371,0.00005740,-0.00007078,-0.00
 042337,0.00430609,0.00236165,-0.01729425,-0.07672667,-0.03472990,0.308
 75831,-0.00002698,0.00001011,0.00000284,-0.00003408,-0.00004112,-0.000
 01631,0.00010148,0.00000842,0.00001114,-0.00002814,-0.00000596,-0.0000
 0302,-0.00009094,0.00001020,-0.00001500,0.00006799,-0.00000242,0.00001
 418,-0.00000414,-0.00002544,-0.00003932,-0.00001109,0.00001750,0.00000
 972,0.00000627,-0.00000126,0.00000295,-0.00000278,0.00000364,-0.000004
 68,0.00000513,-0.00000318,0.00000199,-0.00000843,0.00000150,-0.0000048
 5,0.00000543,0.00000925,-0.00002465,0.00001441,0.00006804,0.00000225,-
 0.00001337,0.00000888,-0.00000092,-0.00000600,0.00000392,-0.00000387,-
 0.00002640,-0.00003338,0.00006983,-0.00000045,-0.00001200,-0.00001945,
 0.00000510,0.00000094,-0.00000517,-0.00001041,-0.00000372,-0.00000309,
 0.00000921,0.00001007,0.00000167,0.00000066,0.00000127,0.00000177,0.00
 000080,-0.00000332,0.00000077,-0.00001257,0.00000536,0.00001718,0.0000
 0069,-0.00000046,0.00000569,-0.00000520,-0.00001166,0.00001922,0.00000
 471,0.00000125,-0.00000445,0.00000419,-0.00000564,-0.00000604,0.000001
 46,-0.00000046,-0.00000577,0.00026760,0.00022361,-0.00050148,0.0010122
 3,0.00082993,-0.00081940,-0.00011355,-0.00164911,0.00108825,-0.0100636
 3,-0.00313837,0.03364659,-0.06732144,-0.00838453,0.07064367,0.00146157
 ,-0.00069256,-0.00035677,-0.00673761,0.00120975,0.00015312,0.07584135,
 0.00013212,-0.00004622,0.00000362,-0.00008439,0.00016724,-0.00001989,0
 .00010265,-0.00017100,0.00003166,-0.00000459,0.00012127,-0.00003899,-0
 .00007376,0.00014425,0.00000628,-0.00004979,-0.00003734,0.00001235,0.0
 0001601,-0.00005139,-0.00005172,-0.00001937,0.00003094,0.00001740,-0.0
 0002957,0.00003535,-0.00001040,0.00001702,-0.00002706,0.00000990,-0.00
 003631,0.00002513,-0.00000696,0.00002691,-0.00001110,-0.00000860,-0.00
 004474,-0.00000812,0.00002854,0.00000953,-0.00028170,0.00005835,0.0000
 0179,0.00002315,0.00000289,0.00000392,0.00000327,-0.00000790,-0.000067
 66,-0.00001268,0.00008142,-0.00000668,-0.00000973,-0.00002647,0.000006
 60,0.00000371,-0.00000788,0.00000633,-0.00000619,0.00000054,0.00001918
 ,0.00001350,0.00000009,0.00000582,-0.00000448,0.00000009,-0.00000506,0
 .00002352,-0.00000687,0.00006988,-0.00002660,0.00000483,-0.00000102,-0
 .00000203,0.00000023,0.00002482,-0.00002972,0.00000607,-0.00002021,-0.
 00000162,0.00000151,-0.00001869,0.00001752,0.00000740,-0.00001931,0.00
 001038,-0.00001414,-0.00047476,-0.00007147,0.00006245,-0.00057625,0.00
 030039,0.00055721,0.00110098,0.00036741,-0.00093992,0.00062036,-0.0000
 6124,-0.00356427,-0.00846258,-0.05140745,0.02865550,-0.00022364,0.0000
 1272,0.00036777,0.00084792,0.00054106,-0.00011624,0.00888413,0.0498721
 0,0.00006537,-0.00003364,0.00000455,-0.00012793,-0.00005949,0.00006393
 ,0.00026216,-0.00007443,-0.00001904,-0.00006288,0.00002935,0.00000313,
 -0.00017141,0.00010386,0.00002027,0.00005650,-0.00001962,-0.00000341,-
 0.00002400,-0.00006606,-0.00005453,-0.00001528,0.00003035,0.00001502,-
 0.00001386,0.00000887,0.00000026,0.00001008,0.00000591,-0.00000088,-0.
 00001209,-0.00000290,-0.00000038,0.00000103,-0.00000427,0.00001272,-0.
 00002051,-0.00001299,0.00000653,0.00004020,0.00008560,-0.00009275,-0.0
 0001158,0.00002334,0.00000221,-0.00000752,-0.00000072,-0.00000115,0.00
 001612,0.00002816,0.00005604,-0.00000168,-0.00002131,-0.00002977,0.000
 00518,-0.00000230,-0.00000393,-0.00001166,-0.00000752,-0.00000716,0.00
 001813,0.00002121,0.00000268,0.00000515,-0.00000534,-0.00000272,-0.000
 00025,-0.00000968,0.00000383,0.00000778,0.00000900,-0.00002200,-0.0000
 0347,0.00000307,-0.00000463,0.00000097,0.00004287,-0.00002515,-0.00000
 577,-0.00000764,0.00000601,-0.00000135,-0.00000042,0.00000463,0.000001
 58,-0.00000372,0.00001103,-0.00006433,-0.00077601,0.00012982,-0.001430
 98,-0.00051924,0.00119107,0.00087099,0.00215336,-0.00041245,0.00075596
 ,-0.00040951,-0.00107030,0.07202173,0.02745721,-0.29365229,0.00058048,
 0.00007097,0.00063661,0.00034895,0.00027085,0.00162134,-0.07889200,-0.
 03156531,0.31625926,-0.00001525,0.00003212,0.00000068,0.00011672,0.000
 24338,-0.00008664,-0.00030498,-0.00005481,0.00003543,0.00008426,0.0000
 7011,-0.00002841,0.00016324,-0.00004741,0.00001077,-0.00005823,-0.0000
 0004,0.00000276,0.00000249,0.00002623,0.00000331,0.00000825,-0.0000179
 7,0.00000289,0.00000725,0.00002286,-0.00001259,-0.00000426,-0.00003785
 ,0.00001477,-0.00002336,0.00003587,-0.00001158,0.00003738,0.00001276,0
 .00000234,0.00000392,0.00003919,-0.00002132,-0.00002158,-0.00043995,0.
 00013408,0.00000894,-0.00000080,-0.00000167,0.00000818,0.00000136,-0.0
 0000006,0.00000278,-0.00001376,-0.00001721,0.00001015,0.00000682,0.000
 01161,-0.00000452,0.00000002,0.00000157,0.00000115,0.00000036,0.000000
 23,-0.00000632,-0.00000189,-0.00000049,-0.00000336,0.00000649,-0.00000
 166,-0.00000548,0.00004596,-0.00001350,0.00008216,-0.00004625,0.000011
 35,0.00000601,-0.00001419,0.00000406,0.00002251,-0.00024091,0.00005970
 ,-0.00002165,0.00000807,-0.00000181,-0.00002476,0.00002782,0.00001157,
 -0.00002602,0.00001708,-0.00002408,-0.00321672,0.00318186,-0.00130657,
 0.00167434,0.00101226,-0.00046777,-0.00459381,-0.00586966,0.00285807,-
 0.00837090,0.03322789,-0.01140070,-0.06902295,0.06662039,-0.02338336,0
 .00113784,-0.00071488,-0.00056452,0.00143595,-0.00034509,0.00054646,0.
 00163254,-0.00897299,0.00132124,0.07486594,-0.00015684,0.00004365,0.00
 000095,-0.00000938,-0.00034142,0.00011703,0.00012550,0.00021749,-0.000
 08127,-0.00006399,-0.00018462,0.00006723,-0.00006183,-0.00010140,0.000
 03762,0.00012811,0.00003937,-0.00002398,-0.00001854,0.00002032,0.00000
 658,0.00001711,-0.00001626,0.00000225,0.00003390,-0.00005528,0.0000112
 0,-0.00001728,0.00005863,-0.00001473,0.00005259,-0.00005239,0.00001329
 ,-0.00004872,0.00000841,0.00000469,0.00005745,0.00001019,-0.00002230,0
 .00003189,0.00062895,-0.00022389,-0.00001287,-0.00001531,-0.00000263,-
 0.00001219,-0.00000861,0.00001226,0.00002527,-0.00001226,-0.00003312,0
 .00003103,0.00001289,0.00002011,-0.00000916,-0.00000428,0.00000581,-0.
 00001697,0.00000702,-0.00000084,-0.00001076,-0.00000829,-0.00000033,-0
 .00000410,0.00000242,-0.00000028,0.00000910,-0.00005623,0.00001589,-0.
 00012485,0.00006506,-0.00001271,-0.00000295,0.00000936,-0.00000180,-0.
 00005529,0.00015643,-0.00003761,0.00003357,-0.00000661,0.,0.00003613,-
 0.00003899,-0.00001611,0.00003697,-0.00002363,0.00003054,0.00174593,-0
 .00043293,0.00026427,0.00186404,-0.00059839,0.00028590,-0.00204098,0.0
 0066247,-0.00020133,-0.00139452,-0.00141610,0.00018953,0.06694403,-0.2
 6334549,0.07404358,0.00059951,0.00043043,0.00011719,0.00040783,-0.0000
 0624,-0.00045592,-0.00025705,-0.00228632,0.00066635,-0.07454287,0.2854
 5081,0.00005904,-0.00002010,0.00000640,-0.00002000,0.00008384,0.000006
 79,-0.00000127,-0.00007240,0.00000765,0.00000911,0.00005127,-0.0000167
 3,0.00000489,0.00005013,0.00002035,-0.00003255,-0.00001300,0.00000118,
 -0.00000077,-0.00002372,-0.00001798,-0.00000565,0.00001051,0.00000670,
 -0.00001354,0.00001556,-0.00000514,0.00000813,-0.00001615,0.00000446,-
 0.00001648,0.00001396,-0.00000340,0.00001318,-0.00000550,-0.00000266,-
 0.00002211,-0.00000789,0.00000289,-0.00000412,-0.00014891,0.00000050,0
 .00000304,0.00000783,0.00000193,0.00000191,-0.00000103,-0.00000184,-0.
 00001472,0.00001051,0.00001090,0.00000349,0.00000261,-0.00000285,0.000
 00033,0.00000079,-0.00000233,0.00000490,-0.00000237,0.00000144,0.00000
 674,0.00000358,-0.00000004,0.00000190,-0.00000208,-0.00000025,-0.00000
 260,0.00001387,-0.00000390,0.00003606,-0.00001595,0.00000605,0.0000002
 2,-0.00000107,0.00000061,0.00001630,-0.00001721,0.00000306,-0.00001003
 ,0.00000050,-0.00000017,-0.00000992,0.00000946,0.00000311,-0.00001083,
 0.00000644,-0.00000899,-0.00007347,-0.00015953,0.00007979,-0.00033767,
 0.00012427,0.00058846,0.00110978,0.00019910,0.00060255,0.00102995,-0.0
 0411351,0.00018028,-0.02342904,0.07430497,-0.07618132,-0.00028822,0.00
 023821,-0.00009952,-0.00040570,-0.00036680,0.00030066,-0.00983252,0.02
 884978,-0.00787836,0.02512044,-0.08297861,0.07598416,-0.00010191,0.000
 03466,-0.00000250,-0.00000243,-0.00011627,0.00006679,0.00005548,0.0000
 7276,-0.00005302,-0.00002807,-0.00006217,0.00003221,-0.00005904,-0.000
 03993,0.00004586,0.00009518,0.00000356,-0.00002443,-0.00002875,-0.0000
 0983,0.00001766,-0.00000030,0.00000327,-0.00000162,0.00002224,-0.00001
 798,0.00000108,-0.00001033,0.00001600,0.00000229,0.00002205,-0.0000155
 8,0.00000229,-0.00001887,0.00001218,0.00001641,0.00003324,0.00002791,-
 0.00002138,0.00002176,0.00020937,-0.00012686,-0.00001144,0.00000299,0.
 00000047,-0.00001474,0.00000048,0.00000434,-0.00001632,-0.00002807,0.0
 0002950,0.00000776,-0.00002502,-0.00001901,0.00000127,0.00000133,-0.00
 000310,-0.00001336,-0.00000067,0.00000166,0.00000296,0.00000454,0.0000
 0210,-0.00000237,0.00000203,-0.00000361,0.00000284,-0.00001220,0.00000
 369,-0.00004491,0.00000399,-0.00001729,0.00000114,-0.00000304,-0.00000
 305,-0.00002214,-0.00000976,-0.00000800,0.00001482,0.00000566,0.000000
 74,0.00001033,-0.00000424,0.00000162,0.00001273,-0.00000525,0.00001246
 ,0.00101194,0.00086814,0.00006410,0.00145357,0.00229306,-0.00001283,-0
 .00150232,-0.00291355,0.00005259,-0.01698743,-0.02400116,-0.01941522,-
 0.10853537,-0.09033725,-0.06949517,-0.00643215,0.00169543,0.00114919,0
 .00152694,-0.00030447,0.00047401,0.00407437,0.00729541,0.00448895,0.00
 441216,0.00668118,0.00710178,0.12104947,0.00007714,-0.00002352,-0.0000
 1685,0.00000801,0.00017876,-0.00004440,-0.00007042,-0.00011322,0.00003
 793,0.00003712,0.00009400,-0.00003106,0.00004816,0.00006931,-0.0000493
 7,-0.00011368,-0.00002125,0.00000993,0.00001400,-0.00001457,0.00003559
 ,-0.00000244,0.00000286,-0.00001020,-0.00001730,0.00002661,0.00000422,
 0.00000773,-0.00002705,0.00000095,-0.00002174,0.00002367,-0.00000080,0
 .00002182,-0.00000596,-0.00000436,-0.00002431,-0.00000029,0.00001916,-
 0.00000409,-0.00028959,0.00010722,0.00001343,0.00000517,0.00000158,0.0
 0001292,0.00000396,-0.00000486,-0.00004513,-0.00002658,-0.00000106,-0.
 00003479,0.00001118,-0.00000871,0.00000505,-0.00000098,0.00000321,0.00
 001856,-0.00000240,-0.00000413,0.00000092,0.00000178,-0.00000036,0.000
 00141,-0.00000156,-0.00000087,-0.00000388,0.00002510,-0.00000678,0.000
 04934,-0.00003330,-0.00000043,0.00000093,-0.00000430,-0.00000091,0.000
 01710,-0.00005248,0.00000929,-0.00001211,0.00000468,0.00000082,-0.0000
 1519,0.00001881,0.00000931,-0.00001439,0.00001031,-0.00001042,-0.00049
 276,0.00036063,-0.00016916,0.00238395,-0.00119460,0.00081899,0.0002791
 9,-0.00074034,0.00077148,0.00127902,0.00346582,0.00263161,-0.09239420,
 -0.18002736,-0.10348320,0.00126461,0.00053257,0.00057594,-0.00063272,0
 .00023514,0.00017362,0.00296383,0.00284053,0.00259181,-0.01327758,-0.0
 1881287,-0.01603139,0.09867251,0.19348133,-0.00015567,0.00005641,-0.00
 001014,0.00016316,-0.00009890,0.00002965,-0.00030480,0.00018697,-0.000
 06386,0.00005448,-0.00013278,0.00004783,0.00023516,-0.00018472,0.00007
 773,-0.00001420,0.00005292,-0.00003259,-0.00000635,0.00004756,0.000025
 55,0.00003225,-0.00004062,0.00000091,0.00003419,-0.00003693,0.00000811
 ,-0.00001937,0.00001785,-0.00000319,0.00003854,-0.00001992,0.00000453,
 -0.00002112,0.00001018,-0.00000076,0.00005607,0.00001667,-0.00000736,-
 0.00003114,0.00019801,-0.00007592,0.00000812,-0.00002660,-0.00000154,0
 .00000617,-0.00002064,0.00002004,0.00003483,-0.00000070,-0.00013250,0.
 00005697,0.00008243,0.00006332,-0.00002152,-0.00001256,0.00002009,0.00
 000739,0.00000926,-0.00000425,-0.00002444,-0.00002025,-0.00000270,-0.0
 0000906,0.00000603,-0.00000208,0.00000397,-0.00001258,0.00000365,-0.00
 006054,0.00001128,-0.00000491,0.00000355,-0.00000045,-0.00000031,-0.00
 002241,0.00000633,-0.00000607,0.00001937,0.00000649,-0.00000216,0.0000
 1482,-0.00001010,-0.00000408,0.00001583,-0.00000653,0.00001082,0.00056
 035,0.00051550,-0.00016982,0.00099340,0.00082748,-0.00076654,-0.001532
 44,-0.00188076,0.00040091,0.00201164,0.00364174,0.00198418,-0.07043749
 ,-0.10168606,-0.12780273,0.00101308,0.00006517,0.00115770,-0.00039467,
 0.00054135,0.00058546,-0.01513406,-0.02238035,-0.01677005,0.00719060,0
 .00819518,0.00640557,0.07563532,0.11207666,0.13501753\\0.00000134,0.00
 000214,-0.00000062,0.00000251,0.00000048,-0.00000262,0.00000121,-0.000
 00446,-0.00000198,0.00000373,-0.00000411,-0.00000661,0.00000078,-0.000
 00398,-0.00000410,0.00000010,-0.00000818,-0.00000513,-0.00000067,-0.00
 000879,-0.00000475,0.00000024,-0.00001216,-0.00000745,0.00000447,0.000
 00109,-0.00000269,0.00000526,0.00000475,-0.00000282,0.00000468,0.00000
 714,0.00000024,0.00000130,0.00000744,0.00000314,0.00000129,0.00000549,
 0.00000123,0.00000027,0.00000218,0.00000151,0.00000394,-0.00000648,-0.
 00000784,0.00000094,-0.00001037,-0.00000694,-0.00000276,-0.00000969,-0
 .00000317,0.00000033,-0.00000646,-0.00000385,-0.00000094,-0.00001479,-
 0.00000843,-0.00000138,-0.00001350,-0.00000662,0.00000241,-0.00001153,
 -0.00000933,0.00000520,0.00000009,-0.00000560,0.00000792,0.00000404,-0
 .00000589,0.00000437,0.00001021,0.00000129,0.00000096,0.00000950,0.000
 00525,-0.00000080,0.00000590,0.00000365,0.00000335,0.00001220,0.000003
 74,0.00000824,0.00001165,-0.00000149,0.00000447,0.00000768,0.00000116,
 -0.00000329,0.00000544,0.00000731,-0.00000296,0.00000049,0.00000467,-0
 .00000450,0.00000198,0.00000674,-0.00000889,0.00000476,0.00000910,-0.0
 0000753,0.00000076,0.00000722,-0.00000796,0.00000379,0.00001125,-0.000
 00508,0.00000629,0.00000956,-0.00000838,-0.00000231,0.00000637,-0.0000
 0896,0.00000008,0.00000899,-0.00000523,0.00000122,0.00000552\\\@


 A SOLDIER'S LIFE IS A LIFE OF HONOR, BUT A DOG WOULD NOT LEAD IT.
 -- PRINCE RUPERT, FOUNDER OF THE HUDSON'S BAY COMPANY
 Job cpu time:       0 days  7 hours 48 minutes 51.5 seconds.
 Elapsed time:       0 days  7 hours 48 minutes 52.2 seconds.
 File lengths (MBytes):  RWF=   1407 Int=      0 D2E=      0 Chk=     42 Scr=      1
 Normal termination of Gaussian 16 at Mon Mar 22 22:28:36 2021.
