 Entering Gaussian System, Link 0=/apps/gaussian/g16c01/g16/g16
 Initial command:
 /apps/gaussian/g16c01/g16/l1.exe "/jobfs/19479062.gadi-pbs/Gau-2827608.inp" -scrdir="/jobfs/19479062.gadi-pbs/"
 Entering Link 1 = /apps/gaussian/g16c01/g16/l1.exe PID=   2827609.
  
 Copyright (c) 1988-2019, Gaussian, Inc.  All Rights Reserved.
  
 This is part of the Gaussian(R) 16 program.  It is based on
 the Gaussian(R) 09 system (copyright 2009, Gaussian, Inc.),
 the Gaussian(R) 03 system (copyright 2003, Gaussian, Inc.),
 the Gaussian(R) 98 system (copyright 1998, Gaussian, Inc.),
 the Gaussian(R) 94 system (copyright 1995, Gaussian, Inc.),
 the Gaussian 92(TM) system (copyright 1992, Gaussian, Inc.),
 the Gaussian 90(TM) system (copyright 1990, Gaussian, Inc.),
 the Gaussian 88(TM) system (copyright 1988, Gaussian, Inc.),
 the Gaussian 86(TM) system (copyright 1986, Carnegie Mellon
 University), and the Gaussian 82(TM) system (copyright 1983,
 Carnegie Mellon University). Gaussian is a federally registered
 trademark of Gaussian, Inc.
  
 This software contains proprietary and confidential information,
 including trade secrets, belonging to Gaussian, Inc.
  
 This software is provided under written license and may be
 used, copied, transmitted, or stored only in accord with that
 written license.
  
 The following legend is applicable only to US Government
 contracts under FAR:
  
                    RESTRICTED RIGHTS LEGEND
  
 Use, reproduction and disclosure by the US Government is
 subject to restrictions as set forth in subparagraphs (a)
 and (c) of the Commercial Computer Software - Restricted
 Rights clause in FAR 52.227-19.
  
 Gaussian, Inc.
 340 Quinnipiac St., Bldg. 40, Wallingford CT 06492
  
  
 ---------------------------------------------------------------
 Warning -- This program may not be used in any manner that
 competes with the business of Gaussian, Inc. or will provide
 assistance to any competitor of Gaussian, Inc.  The licensee
 of this program is prohibited from giving any competitor of
 Gaussian, Inc. access to this program.  By using this program,
 the user acknowledges that Gaussian, Inc. is engaged in the
 business of creating and licensing software in the field of
 computational chemistry and represents and warrants to the
 licensee that it is not a competitor of Gaussian, Inc. and that
 it will not use this program in any manner prohibited above.
 ---------------------------------------------------------------
  

 Cite this work as:
 Gaussian 16, Revision C.01,
 M. J. Frisch, G. W. Trucks, H. B. Schlegel, G. E. Scuseria, 
 M. A. Robb, J. R. Cheeseman, G. Scalmani, V. Barone, 
 G. A. Petersson, H. Nakatsuji, X. Li, M. Caricato, A. V. Marenich, 
 J. Bloino, B. G. Janesko, R. Gomperts, B. Mennucci, H. P. Hratchian, 
 J. V. Ortiz, A. F. Izmaylov, J. L. Sonnenberg, D. Williams-Young, 
 F. Ding, F. Lipparini, F. Egidi, J. Goings, B. Peng, A. Petrone, 
 T. Henderson, D. Ranasinghe, V. G. Zakrzewski, J. Gao, N. Rega, 
 G. Zheng, W. Liang, M. Hada, M. Ehara, K. Toyota, R. Fukuda, 
 J. Hasegawa, M. Ishida, T. Nakajima, Y. Honda, O. Kitao, H. Nakai, 
 T. Vreven, K. Throssell, J. A. Montgomery, Jr., J. E. Peralta, 
 F. Ogliaro, M. J. Bearpark, J. J. Heyd, E. N. Brothers, K. N. Kudin, 
 V. N. Staroverov, T. A. Keith, R. Kobayashi, J. Normand, 
 K. Raghavachari, A. P. Rendell, J. C. Burant, S. S. Iyengar, 
 J. Tomasi, M. Cossi, J. M. Millam, M. Klene, C. Adamo, R. Cammi, 
 J. W. Ochterski, R. L. Martin, K. Morokuma, O. Farkas, 
 J. B. Foresman, and D. J. Fox, Gaussian, Inc., Wallingford CT, 2019.
 
 ******************************************
 Gaussian 16:  ES64L-G16RevC.01  3-Jul-2019
                22-Mar-2021 
 ******************************************
 %NprocShared=32
 Will use up to   32 processors via shared memory.
 %Mem=10000MB
 %chk=CP22CA_carboxy.M062X_6-311pGd_opt_Pentadecane_GD3.chk
 ----------------------------------------------------------------------
 # M062X/6-311+G* SCF=Tight INT(grid=ultrafine) OPT=CalcFC IOP(2/17=4) 
 EmpiricalDispersion=GD3 SCRF=(SMD,Solvent=n-Pentadecane) MaxDisk=10000
 MB
 ----------------------------------------------------------------------
 1/10=4,18=20,19=15,26=6,38=1/1,3;
 2/9=110,12=2,17=4,18=5,40=1/2;
 3/5=4,6=6,7=11,11=2,25=1,30=1,70=32201,71=2,72=151,74=-55,75=-5,124=31,140=1/1,2,3;
 4//1;
 5/5=2,32=2,38=5,53=151/2;
 8/6=4,10=90,11=11/1;
 11/6=1,8=1,9=11,15=111,16=1/1,2,10;
 10/6=1,13=1/2;
 6/7=2,8=2,9=2,10=2,28=1/1;
 7/10=1,25=1/1,2,3,16;
 1/10=4,18=20,19=15,26=6/3(2);
 2/9=110,17=4/2;
 99//99;
 2/9=110,17=4/2;
 3/5=4,6=6,7=11,11=2,25=1,30=1,70=32205,71=1,72=151,74=-55,75=-5,124=31/1,2,3;
 4/5=5,16=3,69=1/1;
 5/5=2,32=2,38=5,53=151/2;
 7//1,2,3,16;
 1/18=20,19=15,26=6/3(-5);
 2/9=110,17=4/2;
 6/7=2,8=2,9=2,10=2,19=2,28=1/1;
 99/9=1/99;
 -------------------------------------------------
 CP22CA_carboxy.M062X_6-311pGd_opt_Pentadecane_GD3
 -------------------------------------------------
 Symbolic Z-matrix:
 Charge = -1 Multiplicity = 1
 C                    -5.96997   1.2401    0.28809 
 N                    -4.67838   0.58155   0.22322 
 C                    -3.46733   1.22125   0.14221 
 O                    -3.39243   2.43868   0.14406 
 O                    -2.31727   0.50384   0.04587 
 C                    -1.08089   1.13131   0.02825 
 C                     0.04036   0.12534  -0.19196 
 C                     1.39833   0.82694  -0.17631 
 C                    -6.17065   2.65251   0.2834 
 C                    -7.45803   3.22004   0.34882 
 C                    -8.56793   2.36797   0.41459 
 C                    -8.39678   0.98401   0.41648 
 C                    -7.11329   0.43189   0.35475 
 H                    -4.66133  -0.587     0.24069 
 H                    -0.9267    1.66029   0.99604 
 H                    -1.05116   1.8798   -0.79716 
 H                    -0.10399  -0.37216  -1.17538 
 H                     0.01566  -0.64101   0.61099 
 H                     1.44924   1.59861  -0.97504 
 H                     2.20554   0.08528  -0.34686 
 H                     1.56746   1.31712   0.80694 
 H                    -5.3711    3.35977   0.2316 
 Cl                   -9.80007  -0.06455   0.49819 
 H                    -6.98374  -0.74554   0.35645 
 S                    -7.68093   5.03649   0.35316 
 H                    -9.56864   2.77746   0.46477 
 F                    -6.5875    5.19591  -0.95574 
 F                    -8.96612   4.90338  -0.77091 
 F                    -6.40117   5.21274   1.47817 
 F                    -8.77899   4.91398   1.66136 
 F                    -7.88924   6.7353    0.35996 
 O                    -6.71605  -2.77971   0.59903 
 O                    -4.48526  -2.66176   0.49587 
 C                    -5.49624  -3.35631   0.62456 
 C                    -5.46817  -4.86158   0.81828 
 C                    -4.10368  -5.54938   0.85724 
 H                    -6.05386  -5.32078  -0.00697 
 H                    -5.98603  -5.08844   1.77493 
 H                    -3.5586   -5.41971  -0.09985 
 H                    -4.26979  -6.6417    1.0089 
 H                    -3.48996  -5.17993   1.70392 
 
 Add virtual bond connecting atoms O32        and H24        Dist= 3.90D+00.
 Add virtual bond connecting atoms O33        and H14        Dist= 3.96D+00.

 GradGradGradGradGradGradGradGradGradGradGradGradGradGradGradGradGradGrad
 Berny optimization.
 Initialization pass.
                           ----------------------------
                           !    Initial Parameters    !
                           ! (Angstroms and Degrees)  !
 --------------------------                            --------------------------
 ! Name  Definition              Value          Derivative Info.                !
 --------------------------------------------------------------------------------
 ! R1    R(1,2)                  1.4512         calculate D2E/DX2 analytically  !
 ! R2    R(1,9)                  1.4266         calculate D2E/DX2 analytically  !
 ! R3    R(1,13)                 1.4017         calculate D2E/DX2 analytically  !
 ! R4    R(2,3)                  1.372          calculate D2E/DX2 analytically  !
 ! R5    R(2,14)                 1.1688         calculate D2E/DX2 analytically  !
 ! R6    R(3,4)                  1.2197         calculate D2E/DX2 analytically  !
 ! R7    R(3,5)                  1.3589         calculate D2E/DX2 analytically  !
 ! R8    R(5,6)                  1.3866         calculate D2E/DX2 analytically  !
 ! R9    R(6,7)                  1.5224         calculate D2E/DX2 analytically  !
 ! R10   R(6,15)                 1.1136         calculate D2E/DX2 analytically  !
 ! R11   R(6,16)                 1.1146         calculate D2E/DX2 analytically  !
 ! R12   R(7,8)                  1.5286         calculate D2E/DX2 analytically  !
 ! R13   R(7,17)                 1.1115         calculate D2E/DX2 analytically  !
 ! R14   R(7,18)                 1.1102         calculate D2E/DX2 analytically  !
 ! R15   R(8,19)                 1.1118         calculate D2E/DX2 analytically  !
 ! R16   R(8,20)                 1.1094         calculate D2E/DX2 analytically  !
 ! R17   R(8,21)                 1.1116         calculate D2E/DX2 analytically  !
 ! R18   R(9,10)                 1.4084         calculate D2E/DX2 analytically  !
 ! R19   R(9,22)                 1.0687         calculate D2E/DX2 analytically  !
 ! R20   R(10,11)                1.4008         calculate D2E/DX2 analytically  !
 ! R21   R(10,25)                1.8301         calculate D2E/DX2 analytically  !
 ! R22   R(11,12)                1.3945         calculate D2E/DX2 analytically  !
 ! R23   R(11,26)                1.0824         calculate D2E/DX2 analytically  !
 ! R24   R(12,13)                1.3986         calculate D2E/DX2 analytically  !
 ! R25   R(12,23)                1.7537         calculate D2E/DX2 analytically  !
 ! R26   R(13,24)                1.1845         calculate D2E/DX2 analytically  !
 ! R27   R(14,33)                2.0978         calculate D2E/DX2 analytically  !
 ! R28   R(24,32)                2.066          calculate D2E/DX2 analytically  !
 ! R29   R(25,27)                1.713          calculate D2E/DX2 analytically  !
 ! R30   R(25,28)                1.7126         calculate D2E/DX2 analytically  !
 ! R31   R(25,29)                1.713          calculate D2E/DX2 analytically  !
 ! R32   R(25,30)                1.7123         calculate D2E/DX2 analytically  !
 ! R33   R(25,31)                1.7115         calculate D2E/DX2 analytically  !
 ! R34   R(32,34)                1.3495         calculate D2E/DX2 analytically  !
 ! R35   R(33,34)                1.2333         calculate D2E/DX2 analytically  !
 ! R36   R(34,35)                1.5179         calculate D2E/DX2 analytically  !
 ! R37   R(35,36)                1.5285         calculate D2E/DX2 analytically  !
 ! R38   R(35,37)                1.1113         calculate D2E/DX2 analytically  !
 ! R39   R(35,38)                1.1112         calculate D2E/DX2 analytically  !
 ! R40   R(36,39)                1.109          calculate D2E/DX2 analytically  !
 ! R41   R(36,40)                1.1152         calculate D2E/DX2 analytically  !
 ! R42   R(36,41)                1.1091         calculate D2E/DX2 analytically  !
 ! A1    A(2,1,9)              125.0518         calculate D2E/DX2 analytically  !
 ! A2    A(2,1,13)             117.8012         calculate D2E/DX2 analytically  !
 ! A3    A(9,1,13)             117.1464         calculate D2E/DX2 analytically  !
 ! A4    A(1,2,3)              125.2146         calculate D2E/DX2 analytically  !
 ! A5    A(1,2,14)             117.7749         calculate D2E/DX2 analytically  !
 ! A6    A(3,2,14)             117.0105         calculate D2E/DX2 analytically  !
 ! A7    A(2,3,4)              121.2975         calculate D2E/DX2 analytically  !
 ! A8    A(2,3,5)              120.3358         calculate D2E/DX2 analytically  !
 ! A9    A(4,3,5)              118.3644         calculate D2E/DX2 analytically  !
 ! A10   A(3,5,6)              121.1064         calculate D2E/DX2 analytically  !
 ! A11   A(5,6,7)              111.0715         calculate D2E/DX2 analytically  !
 ! A12   A(5,6,15)             109.1086         calculate D2E/DX2 analytically  !
 ! A13   A(5,6,16)             109.6982         calculate D2E/DX2 analytically  !
 ! A14   A(7,6,15)             109.7307         calculate D2E/DX2 analytically  !
 ! A15   A(7,6,16)             108.4794         calculate D2E/DX2 analytically  !
 ! A16   A(15,6,16)            108.7156         calculate D2E/DX2 analytically  !
 ! A17   A(6,7,8)              110.4585         calculate D2E/DX2 analytically  !
 ! A18   A(6,7,17)             109.1528         calculate D2E/DX2 analytically  !
 ! A19   A(6,7,18)             109.5794         calculate D2E/DX2 analytically  !
 ! A20   A(8,7,17)             109.2608         calculate D2E/DX2 analytically  !
 ! A21   A(8,7,18)             109.2189         calculate D2E/DX2 analytically  !
 ! A22   A(17,7,18)            109.1497         calculate D2E/DX2 analytically  !
 ! A23   A(7,8,19)             110.6038         calculate D2E/DX2 analytically  !
 ! A24   A(7,8,20)             109.7541         calculate D2E/DX2 analytically  !
 ! A25   A(7,8,21)             110.2808         calculate D2E/DX2 analytically  !
 ! A26   A(19,8,20)            108.6784         calculate D2E/DX2 analytically  !
 ! A27   A(19,8,21)            108.8104         calculate D2E/DX2 analytically  !
 ! A28   A(20,8,21)            108.6675         calculate D2E/DX2 analytically  !
 ! A29   A(1,9,10)             121.8276         calculate D2E/DX2 analytically  !
 ! A30   A(1,9,22)             123.3748         calculate D2E/DX2 analytically  !
 ! A31   A(10,9,22)            114.7977         calculate D2E/DX2 analytically  !
 ! A32   A(9,10,11)            118.7708         calculate D2E/DX2 analytically  !
 ! A33   A(9,10,25)            120.7562         calculate D2E/DX2 analytically  !
 ! A34   A(11,10,25)           120.4728         calculate D2E/DX2 analytically  !
 ! A35   A(10,11,12)           120.4307         calculate D2E/DX2 analytically  !
 ! A36   A(10,11,26)           120.3039         calculate D2E/DX2 analytically  !
 ! A37   A(12,11,26)           119.2654         calculate D2E/DX2 analytically  !
 ! A38   A(11,12,13)           120.2891         calculate D2E/DX2 analytically  !
 ! A39   A(11,12,23)           119.6865         calculate D2E/DX2 analytically  !
 ! A40   A(13,12,23)           120.0244         calculate D2E/DX2 analytically  !
 ! A41   A(1,13,12)            121.5349         calculate D2E/DX2 analytically  !
 ! A42   A(1,13,24)            118.9461         calculate D2E/DX2 analytically  !
 ! A43   A(12,13,24)           119.519          calculate D2E/DX2 analytically  !
 ! A44   A(10,25,27)            90.7343         calculate D2E/DX2 analytically  !
 ! A45   A(10,25,28)            90.7277         calculate D2E/DX2 analytically  !
 ! A46   A(10,25,29)            90.7269         calculate D2E/DX2 analytically  !
 ! A47   A(10,25,30)            90.5102         calculate D2E/DX2 analytically  !
 ! A48   A(27,25,28)            89.1248         calculate D2E/DX2 analytically  !
 ! A49   A(27,25,29)            90.8806         calculate D2E/DX2 analytically  !
 ! A50   A(27,25,31)            89.3326         calculate D2E/DX2 analytically  !
 ! A51   A(28,25,30)            90.8399         calculate D2E/DX2 analytically  !
 ! A52   A(28,25,31)            89.3364         calculate D2E/DX2 analytically  !
 ! A53   A(29,25,30)            89.1231         calculate D2E/DX2 analytically  !
 ! A54   A(29,25,31)            89.2089         calculate D2E/DX2 analytically  !
 ! A55   A(30,25,31)            89.423          calculate D2E/DX2 analytically  !
 ! A56   A(24,32,34)           122.6863         calculate D2E/DX2 analytically  !
 ! A57   A(14,33,34)           120.0575         calculate D2E/DX2 analytically  !
 ! A58   A(32,34,33)           119.8923         calculate D2E/DX2 analytically  !
 ! A59   A(32,34,35)           116.2854         calculate D2E/DX2 analytically  !
 ! A60   A(33,34,35)           123.8222         calculate D2E/DX2 analytically  !
 ! A61   A(34,35,36)           117.7735         calculate D2E/DX2 analytically  !
 ! A62   A(34,35,37)           107.7732         calculate D2E/DX2 analytically  !
 ! A63   A(34,35,38)           107.6799         calculate D2E/DX2 analytically  !
 ! A64   A(36,35,37)           107.6662         calculate D2E/DX2 analytically  !
 ! A65   A(36,35,38)           107.5901         calculate D2E/DX2 analytically  !
 ! A66   A(37,35,38)           108.0194         calculate D2E/DX2 analytically  !
 ! A67   A(35,36,39)           111.3544         calculate D2E/DX2 analytically  !
 ! A68   A(35,36,40)           108.1335         calculate D2E/DX2 analytically  !
 ! A69   A(35,36,41)           111.318          calculate D2E/DX2 analytically  !
 ! A70   A(39,36,40)           107.7632         calculate D2E/DX2 analytically  !
 ! A71   A(39,36,41)           110.3592         calculate D2E/DX2 analytically  !
 ! A72   A(40,36,41)           107.7509         calculate D2E/DX2 analytically  !
 ! A73   L(2,14,33,7,-1)       176.5297         calculate D2E/DX2 analytically  !
 ! A74   L(13,24,32,5,-1)      179.1627         calculate D2E/DX2 analytically  !
 ! A75   L(10,25,31,27,-1)     180.0668         calculate D2E/DX2 analytically  !
 ! A76   L(27,25,30,10,-1)     181.2444         calculate D2E/DX2 analytically  !
 ! A77   L(28,25,29,10,-1)     181.4546         calculate D2E/DX2 analytically  !
 ! A78   L(2,14,33,7,-2)       173.5151         calculate D2E/DX2 analytically  !
 ! A79   L(13,24,32,5,-2)      173.2104         calculate D2E/DX2 analytically  !
 ! A80   L(10,25,31,27,-2)     180.0631         calculate D2E/DX2 analytically  !
 ! A81   L(27,25,30,10,-2)     180.0196         calculate D2E/DX2 analytically  !
 ! A82   L(28,25,29,10,-2)     180.0241         calculate D2E/DX2 analytically  !
 ! D1    D(9,1,2,3)             -0.3068         calculate D2E/DX2 analytically  !
 ! D2    D(9,1,2,14)           179.7096         calculate D2E/DX2 analytically  !
 ! D3    D(13,1,2,3)           179.3958         calculate D2E/DX2 analytically  !
 ! D4    D(13,1,2,14)           -0.5878         calculate D2E/DX2 analytically  !
 ! D5    D(2,1,9,10)           179.9885         calculate D2E/DX2 analytically  !
 ! D6    D(2,1,9,22)            -0.0594         calculate D2E/DX2 analytically  !
 ! D7    D(13,1,9,10)            0.2841         calculate D2E/DX2 analytically  !
 ! D8    D(13,1,9,22)         -179.7637         calculate D2E/DX2 analytically  !
 ! D9    D(2,1,13,12)         -179.8362         calculate D2E/DX2 analytically  !
 ! D10   D(2,1,13,24)            0.0457         calculate D2E/DX2 analytically  !
 ! D11   D(9,1,13,12)           -0.1098         calculate D2E/DX2 analytically  !
 ! D12   D(9,1,13,24)          179.7721         calculate D2E/DX2 analytically  !
 ! D13   D(1,2,3,4)              1.4143         calculate D2E/DX2 analytically  !
 ! D14   D(1,2,3,5)           -178.0158         calculate D2E/DX2 analytically  !
 ! D15   D(14,2,3,4)          -178.6019         calculate D2E/DX2 analytically  !
 ! D16   D(14,2,3,5)             1.9679         calculate D2E/DX2 analytically  !
 ! D17   D(1,2,33,34)            1.6575         calculate D2E/DX2 analytically  !
 ! D18   D(3,2,33,34)          177.4326         calculate D2E/DX2 analytically  !
 ! D19   D(2,3,5,6)           -176.8484         calculate D2E/DX2 analytically  !
 ! D20   D(4,3,5,6)              3.705          calculate D2E/DX2 analytically  !
 ! D21   D(3,5,6,7)           -175.6749         calculate D2E/DX2 analytically  !
 ! D22   D(3,5,6,15)            63.2357         calculate D2E/DX2 analytically  !
 ! D23   D(3,5,6,16)           -55.7587         calculate D2E/DX2 analytically  !
 ! D24   D(5,6,7,8)           -178.6792         calculate D2E/DX2 analytically  !
 ! D25   D(5,6,7,17)            61.1702         calculate D2E/DX2 analytically  !
 ! D26   D(5,6,7,18)           -58.3087         calculate D2E/DX2 analytically  !
 ! D27   D(15,6,7,8)           -57.9562         calculate D2E/DX2 analytically  !
 ! D28   D(15,6,7,17)         -178.1068         calculate D2E/DX2 analytically  !
 ! D29   D(15,6,7,18)           62.4143         calculate D2E/DX2 analytically  !
 ! D30   D(16,6,7,8)            60.6821         calculate D2E/DX2 analytically  !
 ! D31   D(16,6,7,17)          -59.4685         calculate D2E/DX2 analytically  !
 ! D32   D(16,6,7,18)         -178.9474         calculate D2E/DX2 analytically  !
 ! D33   D(6,7,8,19)           -59.5842         calculate D2E/DX2 analytically  !
 ! D34   D(6,7,8,20)          -179.4879         calculate D2E/DX2 analytically  !
 ! D35   D(6,7,8,21)            60.8244         calculate D2E/DX2 analytically  !
 ! D36   D(17,7,8,19)           60.5016         calculate D2E/DX2 analytically  !
 ! D37   D(17,7,8,20)          -59.4022         calculate D2E/DX2 analytically  !
 ! D38   D(17,7,8,21)         -179.0898         calculate D2E/DX2 analytically  !
 ! D39   D(18,7,8,19)          179.8296         calculate D2E/DX2 analytically  !
 ! D40   D(18,7,8,20)           59.9259         calculate D2E/DX2 analytically  !
 ! D41   D(18,7,8,21)          -59.7618         calculate D2E/DX2 analytically  !
 ! D42   D(1,9,10,11)           -0.2662         calculate D2E/DX2 analytically  !
 ! D43   D(1,9,10,25)          179.5514         calculate D2E/DX2 analytically  !
 ! D44   D(22,9,10,11)         179.7778         calculate D2E/DX2 analytically  !
 ! D45   D(22,9,10,25)          -0.4046         calculate D2E/DX2 analytically  !
 ! D46   D(9,10,11,12)           0.0689         calculate D2E/DX2 analytically  !
 ! D47   D(9,10,11,26)        -179.9453         calculate D2E/DX2 analytically  !
 ! D48   D(25,10,11,12)       -179.7492         calculate D2E/DX2 analytically  !
 ! D49   D(25,10,11,26)          0.2366         calculate D2E/DX2 analytically  !
 ! D50   D(9,10,25,27)          46.8196         calculate D2E/DX2 analytically  !
 ! D51   D(9,10,25,28)         135.9535         calculate D2E/DX2 analytically  !
 ! D52   D(9,10,25,29)         -44.0705         calculate D2E/DX2 analytically  !
 ! D53   D(9,10,25,30)        -133.2            calculate D2E/DX2 analytically  !
 ! D54   D(11,10,25,27)       -133.3659         calculate D2E/DX2 analytically  !
 ! D55   D(11,10,25,28)        -44.232          calculate D2E/DX2 analytically  !
 ! D56   D(11,10,25,29)        135.7439         calculate D2E/DX2 analytically  !
 ! D57   D(11,10,25,30)         46.6145         calculate D2E/DX2 analytically  !
 ! D58   D(10,11,12,13)          0.1004         calculate D2E/DX2 analytically  !
 ! D59   D(10,11,12,23)       -179.9543         calculate D2E/DX2 analytically  !
 ! D60   D(26,11,12,13)       -179.8856         calculate D2E/DX2 analytically  !
 ! D61   D(26,11,12,23)          0.0597         calculate D2E/DX2 analytically  !
 ! D62   D(11,12,13,1)          -0.078          calculate D2E/DX2 analytically  !
 ! D63   D(11,12,13,24)       -179.9593         calculate D2E/DX2 analytically  !
 ! D64   D(23,12,13,1)         179.9768         calculate D2E/DX2 analytically  !
 ! D65   D(23,12,13,24)          0.0956         calculate D2E/DX2 analytically  !
 ! D66   D(1,13,32,34)          -0.6783         calculate D2E/DX2 analytically  !
 ! D67   D(12,13,32,34)       -176.0208         calculate D2E/DX2 analytically  !
 ! D68   D(24,32,34,33)         -0.2233         calculate D2E/DX2 analytically  !
 ! D69   D(24,32,34,35)        179.6749         calculate D2E/DX2 analytically  !
 ! D70   D(14,33,34,32)          0.0952         calculate D2E/DX2 analytically  !
 ! D71   D(14,33,34,35)       -179.795          calculate D2E/DX2 analytically  !
 ! D72   D(32,34,35,36)       -179.796          calculate D2E/DX2 analytically  !
 ! D73   D(32,34,35,37)         58.2668         calculate D2E/DX2 analytically  !
 ! D74   D(32,34,35,38)        -58.0364         calculate D2E/DX2 analytically  !
 ! D75   D(33,34,35,36)          0.0978         calculate D2E/DX2 analytically  !
 ! D76   D(33,34,35,37)       -121.8394         calculate D2E/DX2 analytically  !
 ! D77   D(33,34,35,38)        121.8573         calculate D2E/DX2 analytically  !
 ! D78   D(34,35,36,39)        -62.0155         calculate D2E/DX2 analytically  !
 ! D79   D(34,35,36,40)        179.7724         calculate D2E/DX2 analytically  !
 ! D80   D(34,35,36,41)         61.5964         calculate D2E/DX2 analytically  !
 ! D81   D(37,35,36,39)         59.9765         calculate D2E/DX2 analytically  !
 ! D82   D(37,35,36,40)        -58.2355         calculate D2E/DX2 analytically  !
 ! D83   D(37,35,36,41)       -176.4115         calculate D2E/DX2 analytically  !
 ! D84   D(38,35,36,39)        176.1789         calculate D2E/DX2 analytically  !
 ! D85   D(38,35,36,40)         57.9668         calculate D2E/DX2 analytically  !
 ! D86   D(38,35,36,41)        -60.2091         calculate D2E/DX2 analytically  !
 --------------------------------------------------------------------------------
 Trust Radius=3.00D-01 FncErr=5.00D-06 GrdErr=5.00D-06 EigMax=2.50D+02 EigMin=1.00D-04
 Number of steps in this run=    220 maximum allowed number of steps=    246.
 GradGradGradGradGradGradGradGradGradGradGradGradGradGradGradGradGradGrad

                          Input orientation:                          
 ---------------------------------------------------------------------
 Center     Atomic      Atomic             Coordinates (Angstroms)
 Number     Number       Type             X           Y           Z
 ---------------------------------------------------------------------
      1          6           0       -5.969970    1.240100    0.288090
      2          7           0       -4.678380    0.581550    0.223220
      3          6           0       -3.467330    1.221250    0.142210
      4          8           0       -3.392430    2.438680    0.144060
      5          8           0       -2.317270    0.503840    0.045870
      6          6           0       -1.080890    1.131310    0.028250
      7          6           0        0.040360    0.125340   -0.191960
      8          6           0        1.398330    0.826940   -0.176310
      9          6           0       -6.170650    2.652510    0.283400
     10          6           0       -7.458030    3.220040    0.348820
     11          6           0       -8.567930    2.367970    0.414590
     12          6           0       -8.396780    0.984010    0.416480
     13          6           0       -7.113290    0.431890    0.354750
     14          1           0       -4.661330   -0.587000    0.240690
     15          1           0       -0.926700    1.660290    0.996040
     16          1           0       -1.051160    1.879800   -0.797160
     17          1           0       -0.103990   -0.372160   -1.175380
     18          1           0        0.015660   -0.641010    0.610990
     19          1           0        1.449240    1.598610   -0.975040
     20          1           0        2.205540    0.085280   -0.346860
     21          1           0        1.567460    1.317120    0.806940
     22          1           0       -5.371100    3.359770    0.231600
     23         17           0       -9.800070   -0.064550    0.498190
     24          1           0       -6.983740   -0.745540    0.356450
     25         16           0       -7.680930    5.036490    0.353160
     26          1           0       -9.568640    2.777460    0.464770
     27          9           0       -6.587500    5.195910   -0.955740
     28          9           0       -8.966120    4.903380   -0.770910
     29          9           0       -6.401170    5.212740    1.478170
     30          9           0       -8.778990    4.913980    1.661360
     31          9           0       -7.889240    6.735300    0.359960
     32          8           0       -6.716050   -2.779710    0.599030
     33          8           0       -4.485260   -2.661760    0.495870
     34          6           0       -5.496240   -3.356310    0.624560
     35          6           0       -5.468170   -4.861580    0.818280
     36          6           0       -4.103680   -5.549380    0.857240
     37          1           0       -6.053860   -5.320780   -0.006970
     38          1           0       -5.986030   -5.088440    1.774930
     39          1           0       -3.558600   -5.419710   -0.099850
     40          1           0       -4.269790   -6.641700    1.008900
     41          1           0       -3.489960   -5.179930    1.703920
 ---------------------------------------------------------------------
                    Distance matrix (angstroms):
                    1          2          3          4          5
     1  C    0.000000
     2  N    1.451241   0.000000
     3  C    2.506959   1.372013   0.000000
     4  O    2.846235   2.260280   1.219733   0.000000
     5  O    3.734028   2.369036   1.358895   2.215675   0.000000
     6  C    4.897189   3.644473   2.390852   2.658166   1.386602
     7  C    6.131656   4.758887   3.690065   4.153131   2.399634
     8  C    7.394472   6.094772   4.891992   5.064753   3.736234
     9  C    1.426603   2.553305   3.062087   2.789919   4.418341
    10  C    2.477534   3.834561   4.468057   4.145064   5.822107
    11  C    2.835047   4.284451   5.235005   5.183048   6.533122
    12  C    2.443660   3.745106   4.942771   5.218601   6.109694
    13  C    1.401723   2.443048   3.736481   4.232776   4.806495
    14  H    2.247906   1.168805   2.169125   3.282405   2.592779
    15  H    5.110022   3.979451   2.715986   2.722423   2.043009
    16  H    5.077566   3.985392   2.674693   2.584528   2.051097
    17  H    6.257064   4.877570   3.948044   4.522785   2.675338
    18  H    6.282564   4.866110   3.977309   4.617098   2.659437
    19  H    7.534501   6.325975   5.056017   5.039828   4.053070
    20  H    8.281047   6.925289   5.806124   6.092353   4.559083
    21  H    7.555659   6.316036   5.079387   5.128140   4.041260
    22  H    2.203370   2.863291   2.864542   2.184309   4.185297
    23  Cl   4.051656   5.169600   6.471754   6.888354   7.517976
    24  H    2.230509   2.663382   4.034762   4.804360   4.840801
    25  S    4.164636   5.373889   5.688144   5.018324   7.029096
    26  H    3.917284   5.366098   6.304904   6.193803   7.610992
    27  F    4.192480   5.130985   5.170965   4.361233   6.422897
    28  F    4.849538   6.168567   6.680461   6.162624   8.014380
    29  F    4.169424   5.098120   5.130711   4.304390   6.395581
    30  F    4.824299   6.136220   6.645134   6.119178   7.988302
    31  F    5.821167   6.942403   7.071453   6.223251   8.365201
    32  O    4.100267   3.948595   5.174026   6.203631   5.516969
    33  O    4.179958   3.260474   4.029767   5.228053   3.863121
    34  C    4.632992   4.041870   5.030228   6.183753   5.034033
    35  C    6.145194   5.532226   6.439041   7.619519   6.269970
    36  C    7.064277   6.190361   6.837956   8.051311   6.363258
    37  H    6.568047   6.064852   7.036373   8.204586   6.920339
    38  H    6.500875   6.022171   6.987261   8.126748   6.908187
    39  H    7.093537   6.113379   6.645997   7.863930   6.053972
    40  H    8.095242   7.277333   7.951168   9.163570   7.469840
    41  H    7.026508   6.066256   6.588972   7.777268   6.035692
                    6          7          8          9         10
     6  C    0.000000
     7  C    1.522389   0.000000
     8  C    2.506196   1.528584   0.000000
     9  C    5.318346   6.722291   7.799583   0.000000
    10  C    6.718145   8.129912   9.189004   1.408445   0.000000
    11  C    7.598313   8.916274  10.101994   2.417669   1.400795
    12  C    7.327664   8.502520   9.814288   2.785185   2.426038
    13  C    6.081582   7.181057   8.537316   2.413465   2.809388
    14  H    3.977093   4.774987   6.236393   3.574115   4.725122
    15  H    1.113648   2.168553   2.733979   5.384363   6.746109
    16  H    1.114640   2.153094   2.737512   5.289033   6.645111
    17  H    2.159509   1.111512   2.166321   6.934049   8.325202
    18  H    2.164053   1.110239   2.164831   7.016054   8.416204
    19  H    2.761615   2.183731   1.111772   7.794684   9.149923
    20  H    3.469223   2.171083   1.109385   8.783419  10.183088
    21  H    2.766702   2.179490   1.111603   7.869924   9.235283
    22  H    4.838728   6.318611   7.239254   1.068728   2.094885
    23  Cl   8.813344   9.866429  11.254060   4.538859   4.036830
    24  H    6.202735   7.099096   8.544918   3.494738   3.993850
    25  S    7.675710   9.167053  10.021657   2.822972   1.830080
    26  H    8.656920   9.989891  11.157506   3.405120   2.159629
    27  F    6.914620   8.379891   9.136131   2.859740   2.522650
    28  F    8.777472  10.211833  11.153149   3.740673   2.522254
    29  F    6.860446   8.376412   9.099711   2.834677   2.522546
    30  F    8.731345  10.205234  11.120196   3.717050   2.517366
    31  F    8.824305  10.338024  11.020674   4.430416   3.541627
    32  O    6.883088   7.396895   8.913599   5.468647   6.050631
    33  O    5.118182   5.359316   6.873099   5.579171   6.592007
    34  C    6.323736   6.591095   8.104077   6.056165   6.868263
    35  C    7.469076   7.498924   8.972028   7.565786   8.336217
    36  C    7.379438   7.104670   8.485152   8.477774   9.402812
    37  H    8.146234   8.175204   9.662208   7.979430   8.662787
    38  H    8.111509   8.207895   9.660633   7.885496   8.557535
    39  H    7.005092   6.611246   7.974813   8.492963   9.489581
    40  H    8.458749   8.112477   9.450550   9.514303  10.385302
    41  H    6.960118   6.648565   7.969513   8.399470   9.388364
                   11         12         13         14         15
    11  C    0.000000
    12  C    1.394504   0.000000
    13  C    2.422388   1.398568   0.000000
    14  H    4.901389   4.056176   2.657678   0.000000
    15  H    7.695927   7.522987   6.339883   4.423610   0.000000
    16  H    7.629448   7.498900   6.338198   4.493947   1.810868
    17  H    9.037400   8.552402   7.219285   4.777108   3.085899
    18  H    9.097832   8.570162   7.213786   4.691937   2.516404
    19  H   10.142321   9.962840   8.743369   6.602572   3.087726
    20  H   11.038937  10.667689   9.351630   6.924672   3.754326
    21  H   10.197272   9.977450   8.737478   6.537900   2.524749
    22  H    3.352145   3.851384   3.409234   4.010093   4.819263
    23  Cl   2.728060   1.753675   2.736022   5.171645   9.053155
    24  H    3.493849   2.234195   1.184537   2.330692   6.548651
    25  S    2.812746   4.115707   4.639457   6.383907   7.578367
    26  H    1.082414   2.142907   3.397432   5.954116   8.730031
    27  F    3.714452   4.785037   4.968876   6.211572   6.953755
    28  F    2.827060   4.134671   4.969337   7.049739   8.847148
    29  F    3.730786   4.794977   4.962430   6.180241   6.543865
    30  F    2.842736   4.140106   4.956906   7.016709   8.525703
    31  F    4.420088   5.773918   6.350992   8.003106   8.639287
    32  O    5.473764   4.125987   3.245281   3.026262   7.306695
    33  O    6.478656   5.347703   4.061666   2.097796   5.620822
    34  C    6.499750   5.224443   4.127724   2.917792   6.795952
    35  C    7.876412   6.550505   5.562563   4.388238   7.949298
    36  C    9.099994   7.830081   6.714599   5.031533   7.879836
    37  H    8.100317   6.739359   5.860584   4.940562   8.719469
    38  H    8.007171   6.673211   5.810479   4.936769   8.470469
    39  H    9.273942   8.042525   6.861757   4.968608   7.632449
    40  H   10.000068   8.691056   7.651737   6.115786   8.949830
    41  H    9.187978   7.983016   6.814786   4.960661   7.338938
                   16         17         18         19         20
    16  H    0.000000
    17  H    2.472146   0.000000
    18  H    3.078226   1.810446   0.000000
    19  H    2.522441   2.517259   3.096214   0.000000
    20  H    3.745553   2.495922   2.498109   1.804652   0.000000
    21  H    3.122005   3.094674   2.506143   1.807945   1.804392
    22  H    4.680870   6.606765   6.720667   7.146657   8.274199
    23  Cl   9.055488   9.844259   9.833290  11.466625  12.036247
    24  H    6.589289   7.058107   7.004807   8.853421   9.253528
    25  S    7.432481   9.433978   9.567548   9.845971  11.079115
    26  H    8.657120  10.108897  10.176744  11.173917  12.105284
    27  F    6.455447   8.549126   8.951313   8.805120  10.188564
    28  F    8.472858  10.321447  10.645294  10.928993  12.173738
    29  F    6.701360   8.825356   8.728923   8.983825  10.183174
    30  F    8.658518  10.547322  10.455002  11.070636  12.165903
    31  F    8.466058  10.652858  10.814824  10.741276  12.108961
    32  O    7.466683   7.257008   7.063292   9.397837   9.417943
    33  O    5.838727   5.218321   4.935075   7.452021   7.281705
    34  C    7.014048   6.420381   6.144435   8.680417   8.491502
    35  C    8.219844   7.273514   6.923046   9.633307   9.204064
    36  C    8.200465   6.850742   6.412620   9.235038   8.544326
    37  H    8.803395   7.826556   7.689031  10.252396   9.877181
    38  H    8.917677   8.096050   7.560071  10.371220   9.918225
    39  H    7.749603   6.210383   6.009709   8.666097   7.974412
    40  H    9.286409   7.837863   7.384558  10.224775   9.435054
    41  H    7.876734   6.547504   5.838293   8.804608   8.022896
                   21         22         23         24         25
    21  H    0.000000
    22  H    7.255829   0.000000
    23  Cl  11.455351   5.604713   0.000000
    24  H    8.807981   4.412456   2.900957   0.000000
    25  S    9.978594   2.856831   5.525613   5.823912   0.000000
    26  H   11.236654   4.244148   2.851613   4.370923   2.946035
    27  F    9.200838   2.502162   6.333005   6.097514   1.712957
    28  F   11.238647   4.038803   5.194845   6.091885   1.712590
    29  F    8.895250   2.459366   6.353162   6.090874   1.713037
    30  F   10.987104   4.009177   5.213572   6.079135   1.712347
    31  F   10.908054   4.213278   7.064583   7.535444   1.711547
    32  O    9.243581   6.295801   4.110163   2.065999   7.879367
    33  O    7.250081   6.092075   5.915464   3.151784   8.336410
    34  C    8.471722   6.728730   5.419834   3.016730   8.676729
    35  C    9.363576   8.242828   6.471423   4.410445  10.153050
    36  C    8.905795   9.020573   7.915879   5.623381  11.185323
    37  H   10.139462   8.710627   6.474352   4.682902  10.490476
    38  H    9.951051   8.610009   6.435560   4.676354  10.363799
    39  H    8.513732   8.970746   8.245686   5.812715  11.248597
    40  H    9.872036  10.091902   8.608352   6.523490  12.183841
    41  H    8.282133   8.867519   8.212088   5.803963  11.124928
                   26         27         28         29         30
    26  H    0.000000
    27  F    4.093158   0.000000
    28  F    2.531693   2.403657   0.000000
    29  F    4.121945   2.441090   3.425352   0.000000
    30  F    2.572954   3.425102   2.439481   2.403507   0.000000
    31  F    4.300682   2.407346   2.407170   2.404773   2.408839
    32  O    6.247994   8.126767   8.122156   8.046819   8.035990
    33  O    7.444920   8.262540   8.883365   8.163539   8.785575
    34  C    7.364313   8.765196   9.066967   8.658878   8.958186
    35  C    8.677197  10.273906  10.493599  10.138928  10.355380
    36  C    9.967752  11.176650  11.642783  11.022125  11.488561
    37  H    8.840685  10.572876  10.658251  10.643369  10.721939
    38  H    8.742082  10.657682  10.733066  10.313812  10.385660
    39  H   10.180028  11.072406  11.672951  11.118424  11.710657
    40  H   10.821020  12.221317  12.590159  12.053661  12.421446
    41  H   10.089891  11.150184  11.738239  10.795077  11.395730
                   31         32         33         34         35
    31  F    0.000000
    32  O    9.590044   0.000000
    33  O    9.995513   2.236287   0.000000
    34  C   10.374828   1.349465   1.233305   0.000000
    35  C   11.855769   2.437100   2.430899   1.517944   0.000000
    36  C   12.864335   3.816048   2.935054   2.608241   1.528535
    37  H   12.200505   2.694952   3.127897   2.137501   1.111276
    38  H   12.059236   2.691822   3.126832   2.136240   1.111226
    39  H   12.911628   4.174629   2.969826   2.921787   2.191102
    40  H   13.873200   4.589896   4.018650   3.527844   2.154363
    41  H   12.772337   4.170071   2.964994   2.918179   2.190667
                   36         37         38         39         40
    36  C    0.000000
    37  H    2.145302   0.000000
    38  H    2.144263   1.798263   0.000000
    39  H    1.109030   2.498947   3.084956   0.000000
    40  H    1.115238   2.441255   2.438216   1.796769   0.000000
    41  H    1.109059   3.085542   2.498755   1.820932   1.796652
                   41
    41  H    0.000000
 Stoichiometry    C13H16ClF5NO4S(1-)
 Framework group  C1[X(C13H16ClF5NO4S)]
 Deg. of freedom   117
 Full point group                 C1      NOp   1
 Largest Abelian subgroup         C1      NOp   1
 Largest concise Abelian subgroup C1      NOp   1
                         Standard orientation:                         
 ---------------------------------------------------------------------
 Center     Atomic      Atomic             Coordinates (Angstroms)
 Number     Number       Type             X           Y           Z
 ---------------------------------------------------------------------
      1          6           0        0.011907   -0.218020   -0.072391
      2          7           0        1.305213    0.440304   -0.080687
      3          6           0        1.502361    1.797544   -0.042559
      4          8           0        0.563138    2.572503    0.028481
      5          8           0        2.759747    2.310184   -0.095255
      6          6           0        2.981766    3.675059    0.007158
      7          6           0        4.455138    4.005955   -0.186109
      8          6           0        4.688988    5.509278   -0.038105
      9          6           0       -1.247279    0.450248   -0.017023
     10          6           0       -2.464581   -0.258182   -0.012662
     11          6           0       -2.430571   -1.657390   -0.070003
     12          6           0       -1.211777   -2.332469   -0.128745
     13          6           0       -0.009212   -1.618445   -0.128894
     14          1           0        2.259178   -0.233660   -0.123444
     15          1           0        2.646277    4.024762    1.009838
     16          1           0        2.393934    4.210956   -0.773669
     17          1           0        4.770985    3.684027   -1.202013
     18          1           0        5.060341    3.465591    0.571760
     19          1           0        4.094944    6.073486   -0.789647
     20          1           0        5.763776    5.738310   -0.190127
     21          1           0        4.393662    5.846863    0.978990
     22          1           0       -1.347264    1.513467    0.024788
     23         17           0       -1.191998   -4.084537   -0.201174
     24          1           0        1.018232   -2.205712   -0.179909
     25         16           0       -4.063221    0.628658    0.071353
     26          1           0       -3.351232   -2.226602   -0.068946
     27          9           0       -3.548604    1.717055   -1.147164
     28          9           0       -4.714392   -0.384969   -1.145817
     29          9           0       -3.450097    1.663163    1.291342
     30          9           0       -4.610383   -0.441731    1.290784
     31          9           0       -5.558234    1.457946    0.152668
     32          8           0        2.819370   -3.206032   -0.026237
     33          8           0        4.039102   -1.332645    0.034199
     34          6           0        4.004249   -2.565286    0.054769
     35          6           0        5.236860   -3.443573    0.170676
     36          6           0        6.596865   -2.752879    0.269404
     37          1           0        5.261737   -4.112038   -0.716719
     38          1           0        5.115702   -4.077491    1.075271
     39          1           0        6.812574   -2.154087   -0.638817
     40          1           0        7.381403   -3.541250    0.351431
     41          1           0        6.661028   -2.116440    1.175407
 ---------------------------------------------------------------------
 Rotational constants (GHZ):           0.1872449           0.0950403           0.0650965
 Standard basis: 6-311+G(d) (5D, 7F)
 There are   639 symmetry adapted cartesian basis functions of A   symmetry.
 There are   614 symmetry adapted basis functions of A   symmetry.
   614 basis functions,  1011 primitive gaussians,   639 cartesian basis functions
   106 alpha electrons      106 beta electrons
       nuclear repulsion energy      2667.1518059473 Hartrees.
 NAtoms=   41 NActive=   41 NUniq=   41 SFac= 1.00D+00 NAtFMM=   60 NAOKFM=F Big=F
 Integral buffers will be    131072 words long.
 Raffenetti 2 integral format.
 Two-electron integral symmetry is turned on.
 Nuclear repulsion after empirical dispersion term =     2667.1493968162 Hartrees.
 Force inversion solution in PCM.
 ------------------------------------------------------------------------------
 Polarizable Continuum Model (PCM)
 =================================
 Model                : PCM.
 Atomic radii         : SMD-Coulomb.
 Polarization charges : Total charges.
 Charge compensation  : None.
 Solution method      : Matrix inversion.
 Cavity type          : VdW (van der Waals Surface) (Alpha=1.000).
 Cavity algorithm     : GePol (No added spheres)
                        Default sphere list used, NSphG=   41.
                        Lebedev-Laikov grids with approx.  5.0 points / Ang**2.
                        Smoothing algorithm: York/Karplus (Gamma=1.0000).
                        Polarization charges: spherical gaussians, with
                                              point-specific exponents (IZeta= 3).
                        Self-potential: point-specific (ISelfS= 7).
                        Self-field    : sphere-specific E.n sum rule (ISelfD= 2).
 1st derivatives      : Analytical E(r).r(x)/FMM algorithm (CHGder, D1EAlg=3).
                        Cavity 1st derivative terms included.
 2nd derivatives      : Analytical E(r).r(xy)/FMM algorithm (CHGder, D2EAlg=3).
                        Cavity 2nd derivative terms included.
 Solvent              : n-Pentadecane, Eps=   2.033300 Eps(inf)=   2.049192
 ------------------------------------------------------------------------------
 ------------------------------------------------------------------------------
 Atomic radii for non-electrostatic terms: SMD-CDS.
 ------------------------------------------------------------------------------
 Nuclear repulsion after PCM non-electrostatic terms =     2667.1433093533 Hartrees.
 One-electron integrals computed using PRISM.
 NBasis=   614 RedAO= T EigKep=  2.45D-06  NBF=   614
 NBsUse=   610 1.00D-06 EigRej=  9.96D-07 NBFU=   610
 ExpMin= 4.05D-02 ExpMax= 1.06D+05 ExpMxC= 3.62D+03 IAcc=3 IRadAn=         5 AccDes= 0.00D+00
 Harris functional with IExCor= 1009 and IRadAn=       5 diagonalized for initial guess.
 HarFok:  IExCor= 1009 AccDes= 0.00D+00 IRadAn=         5 IDoV= 1 UseB2=F ITyADJ=14
 ICtDFT=  3500011 ScaDFX=  1.000000  1.000000  1.000000  1.000000
 FoFCou: FMM=F IPFlag=           0 FMFlag=      100000 FMFlg1=           0
         NFxFlg=           0 DoJE=T BraDBF=F KetDBF=T FulRan=T
         wScrn=  0.000000 ICntrl=       500 IOpCl=  0 I1Cent=   200000004 NGrid=           0
         NMat0=    1 NMatS0=      1 NMatT0=    0 NMatD0=    1 NMtDS0=    0 NMtDT0=    0
 Petite list used in FoFCou.
 Requested convergence on RMS density matrix=1.00D-08 within 128 cycles.
 Requested convergence on MAX density matrix=1.00D-06.
 Requested convergence on             energy=1.00D-06.
 No special actions if energy rises.
 Inv3:  Mode=1 IEnd=    36687027.
 Iteration    1 A*A^-1 deviation from unit magnitude is 6.11D-15 for   3484.
 Iteration    1 A*A^-1 deviation from orthogonality  is 2.33D-15 for   3488   1109.
 Iteration    1 A^-1*A deviation from unit magnitude is 6.00D-15 for   3484.
 Iteration    1 A^-1*A deviation from orthogonality  is 2.03D-15 for   1937   1152.
 Error on total polarization charges =  0.01180
 SCF Done:  E(RM062X) =  -2218.10566025     A.U. after   17 cycles
            NFock= 17  Conv=0.28D-08     -V/T= 2.0034
 SMD-CDS (non-electrostatic) energy       (kcal/mol) =      -3.82
 (included in total energy above)
 DoSCS=F DFT=T ScalE2(SS,OS)=  1.000000  1.000000
 Range of M.O.s used for correlation:     1   610
 NBasis=   614 NAE=   106 NBE=   106 NFC=     0 NFV=     0
 NROrb=    610 NOA=   106 NOB=   106 NVA=   504 NVB=   504

 **** Warning!!: The largest alpha MO coefficient is  0.13495709D+03

 Symmetrizing basis deriv contribution to polar:
 IMax=3 JMax=2 DiffMx= 0.00D+00
 G2DrvN: will do    42 centers at a time, making    1 passes.
 Calling FoFCou, ICntrl=  3107 FMM=F I1Cent=   0 AccDes= 0.00D+00.
 NEqPCM:  Using equilibrium solvation (IEInf=0, Eps=   2.0333, EpsInf=   2.0492)
 G2PCM: DoFxE=T DoFxN=T DoGrad=T DoDP/DQ/DG/TGxP=FFFF NFrqRd=   0 IEInf=0 SqF1=F DoCFld=F IF1Alg=4.
 End of G2Drv F.D. properties file   721 does not exist.
 End of G2Drv F.D. properties file   722 does not exist.
 End of G2Drv F.D. properties file   788 does not exist.
          IDoAtm=11111111111111111111111111111111111111111
 NEqPCM:  Using equilibrium solvation (IEInf=0, Eps=   2.0333, EpsInf=   2.0492)
          Differentiating once with respect to nuclear coordinates.
 CalDSu exits because no D1Ps are significant.
          There are   126 degrees of freedom in the 1st order CPHF.  IDoFFX=6 NUNeed=     0.
    120 vectors produced by pass  0 Test12= 5.34D-14 1.00D-09 XBig12= 2.69D-01 1.34D-01.
 AX will form    64 AO Fock derivatives at one time.
    120 vectors produced by pass  1 Test12= 5.34D-14 1.00D-09 XBig12= 4.31D-02 3.86D-02.
    120 vectors produced by pass  2 Test12= 5.34D-14 1.00D-09 XBig12= 1.79D-03 7.57D-03.
    120 vectors produced by pass  3 Test12= 5.34D-14 1.00D-09 XBig12= 1.98D-05 7.00D-04.
    120 vectors produced by pass  4 Test12= 5.34D-14 1.00D-09 XBig12= 1.90D-07 5.49D-05.
    120 vectors produced by pass  5 Test12= 5.34D-14 1.00D-09 XBig12= 1.10D-09 3.50D-06.
    104 vectors produced by pass  6 Test12= 5.34D-14 1.00D-09 XBig12= 6.14D-12 3.39D-07.
     45 vectors produced by pass  7 Test12= 5.34D-14 1.00D-09 XBig12= 2.67D-14 2.55D-08.
      1 vectors produced by pass  8 Test12= 5.34D-14 1.00D-09 XBig12= 1.13D-16 1.17D-09.
 InvSVY:  IOpt=1 It=  1 EMax= 1.17D-15
 Solved reduced A of dimension   870 with   126 vectors.
 End of Minotr F.D. properties file   721 does not exist.
 End of Minotr F.D. properties file   722 does not exist.
 End of Minotr F.D. properties file   788 does not exist.

 **********************************************************************

            Population analysis using the SCF Density.

 **********************************************************************

 Orbital symmetries:
       Occupied  (A) (A) (A) (A) (A) (A) (A) (A) (A) (A) (A) (A)
                 (A) (A) (A) (A) (A) (A) (A) (A) (A) (A) (A) (A)
                 (A) (A) (A) (A) (A) (A) (A) (A) (A) (A) (A) (A)
                 (A) (A) (A) (A) (A) (A) (A) (A) (A) (A) (A) (A)
                 (A) (A) (A) (A) (A) (A) (A) (A) (A) (A) (A) (A)
                 (A) (A) (A) (A) (A) (A) (A) (A) (A) (A) (A) (A)
                 (A) (A) (A) (A) (A) (A) (A) (A) (A) (A) (A) (A)
                 (A) (A) (A) (A) (A) (A) (A) (A) (A) (A) (A) (A)
                 (A) (A) (A) (A) (A) (A) (A) (A) (A) (A)
       Virtual   (A) (A) (A) (A) (A) (A) (A) (A) (A) (A) (A) (A)
                 (A) (A) (A) (A) (A) (A) (A) (A) (A) (A) (A) (A)
                 (A) (A) (A) (A) (A) (A) (A) (A) (A) (A) (A) (A)
                 (A) (A) (A) (A) (A) (A) (A) (A) (A) (A) (A) (A)
                 (A) (A) (A) (A) (A) (A) (A) (A) (A) (A) (A) (A)
                 (A) (A) (A) (A) (A) (A) (A) (A) (A) (A) (A) (A)
                 (A) (A) (A) (A) (A) (A) (A) (A) (A) (A) (A) (A)
                 (A) (A) (A) (A) (A) (A) (A) (A) (A) (A) (A) (A)
                 (A) (A) (A) (A) (A) (A) (A) (A) (A) (A) (A) (A)
                 (A) (A) (A) (A) (A) (A) (A) (A) (A) (A) (A) (A)
                 (A) (A) (A) (A) (A) (A) (A) (A) (A) (A) (A) (A)
                 (A) (A) (A) (A) (A) (A) (A) (A) (A) (A) (A) (A)
                 (A) (A) (A) (A) (A) (A) (A) (A) (A) (A) (A) (A)
                 (A) (A) (A) (A) (A) (A) (A) (A) (A) (A) (A) (A)
                 (A) (A) (A) (A) (A) (A) (A) (A) (A) (A) (A) (A)
                 (A) (A) (A) (A) (A) (A) (A) (A) (A) (A) (A) (A)
                 (A) (A) (A) (A) (A) (A) (A) (A) (A) (A) (A) (A)
                 (A) (A) (A) (A) (A) (A) (A) (A) (A) (A) (A) (A)
                 (A) (A) (A) (A) (A) (A) (A) (A) (A) (A) (A) (A)
                 (A) (A) (A) (A) (A) (A) (A) (A) (A) (A) (A) (A)
                 (A) (A) (A) (A) (A) (A) (A) (A) (A) (A) (A) (A)
                 (A) (A) (A) (A) (A) (A) (A) (A) (A) (A) (A) (A)
                 (A) (A) (A) (A) (A) (A) (A) (A) (A) (A) (A) (A)
                 (A) (A) (A) (A) (A) (A) (A) (A) (A) (A) (A) (A)
                 (A) (A) (A) (A) (A) (A) (A) (A) (A) (A) (A) (A)
                 (A) (A) (A) (A) (A) (A) (A) (A) (A) (A) (A) (A)
                 (A) (A) (A) (A) (A) (A) (A) (A) (A) (A) (A) (A)
                 (A) (A) (A) (A) (A) (A) (A) (A) (A) (A) (A) (A)
                 (A) (A) (A) (A) (A) (A) (A) (A) (A) (A) (A) (A)
                 (A) (A) (A) (A) (A) (A) (A) (A) (A) (A) (A) (A)
                 (A) (A) (A) (A) (A) (A) (A) (A) (A) (A) (A) (A)
                 (A) (A) (A) (A) (A) (A) (A) (A) (A) (A) (A) (A)
                 (A) (A) (A) (A) (A) (A) (A) (A) (A) (A) (A) (A)
                 (A) (A) (A) (A) (A) (A) (A) (A) (A) (A) (A) (A)
                 (A) (A) (A) (A) (A) (A) (A) (A) (A) (A) (A) (A)
                 (A) (A) (A) (A) (A) (A) (A) (A) (A) (A) (A) (A)
                 (A) (A) (A) (A) (A) (A) (A) (A) (A) (A) (A) (A)
                 (A) (A) (A) (A) (A) (A) (A) (A) (A) (A) (A) (A)
                 (A) (A) (A) (A) (A) (A) (A) (A) (A) (A) (A) (A)
                 (A) (A) (A) (A) (A) (A) (A) (A) (A) (A) (A) (A)
                 (A) (A) (A) (A) (A) (A) (A) (A) (A) (A) (A) (A)
                 (A) (A) (A) (A) (A) (A) (A) (A) (A) (A) (A) (A)
 The electronic state is 1-A.
 Alpha  occ. eigenvalues -- -102.64253 -90.25926 -25.27398 -25.25502 -25.25465
 Alpha  occ. eigenvalues --  -25.25269 -25.25256 -19.62194 -19.55281 -19.49804
 Alpha  occ. eigenvalues --  -19.46577 -14.75553 -10.66157 -10.58531 -10.58447
 Alpha  occ. eigenvalues --  -10.58212 -10.55647 -10.55252 -10.54077 -10.53605
 Alpha  occ. eigenvalues --  -10.52562 -10.50380 -10.50162 -10.47341 -10.47295
 Alpha  occ. eigenvalues --   -9.78474  -8.58125  -7.50999  -7.50309  -7.50291
 Alpha  occ. eigenvalues --   -6.50466  -6.50452  -6.50058  -1.41644  -1.34108
 Alpha  occ. eigenvalues --   -1.33944  -1.33293  -1.31030  -1.19953  -1.09796
 Alpha  occ. eigenvalues --   -1.06724  -0.99838  -0.96537  -0.93785  -0.93505
 Alpha  occ. eigenvalues --   -0.89169  -0.85674  -0.82354  -0.80326  -0.79884
 Alpha  occ. eigenvalues --   -0.75857  -0.70636  -0.69223  -0.68056  -0.67542
 Alpha  occ. eigenvalues --   -0.65827  -0.64330  -0.63027  -0.61063  -0.59084
 Alpha  occ. eigenvalues --   -0.58016  -0.57161  -0.56302  -0.54743  -0.54471
 Alpha  occ. eigenvalues --   -0.53766  -0.53034  -0.51603  -0.51543  -0.51342
 Alpha  occ. eigenvalues --   -0.51329  -0.51132  -0.51062  -0.50406  -0.49922
 Alpha  occ. eigenvalues --   -0.49054  -0.48677  -0.48525  -0.47258  -0.46416
 Alpha  occ. eigenvalues --   -0.46068  -0.44906  -0.44695  -0.44415  -0.42794
 Alpha  occ. eigenvalues --   -0.41490  -0.41396  -0.40657  -0.39365  -0.38787
 Alpha  occ. eigenvalues --   -0.38337  -0.38057  -0.37586  -0.36690  -0.35634
 Alpha  occ. eigenvalues --   -0.34733  -0.34443  -0.34210  -0.33403  -0.32391
 Alpha  occ. eigenvalues --   -0.31130  -0.27726  -0.24938  -0.24147  -0.22445
 Alpha  occ. eigenvalues --   -0.21506
 Alpha virt. eigenvalues --   -0.07242   0.01719   0.04016   0.05066   0.05361
 Alpha virt. eigenvalues --    0.05903   0.06416   0.07033   0.07172   0.07262
 Alpha virt. eigenvalues --    0.07324   0.07563   0.07940   0.08827   0.09120
 Alpha virt. eigenvalues --    0.09155   0.09524   0.09956   0.10040   0.10562
 Alpha virt. eigenvalues --    0.10724   0.11202   0.11436   0.11689   0.11774
 Alpha virt. eigenvalues --    0.12657   0.12725   0.12915   0.13796   0.14018
 Alpha virt. eigenvalues --    0.14145   0.14178   0.14747   0.15325   0.15530
 Alpha virt. eigenvalues --    0.15753   0.16076   0.16351   0.16613   0.17049
 Alpha virt. eigenvalues --    0.17426   0.17816   0.18526   0.18724   0.19256
 Alpha virt. eigenvalues --    0.19731   0.20187   0.20506   0.21055   0.21305
 Alpha virt. eigenvalues --    0.21475   0.21806   0.22208   0.23082   0.23222
 Alpha virt. eigenvalues --    0.24131   0.24307   0.24639   0.24844   0.24988
 Alpha virt. eigenvalues --    0.25249   0.25552   0.25797   0.26277   0.26741
 Alpha virt. eigenvalues --    0.27068   0.27254   0.27665   0.28251   0.28349
 Alpha virt. eigenvalues --    0.28886   0.29558   0.29817   0.29967   0.30170
 Alpha virt. eigenvalues --    0.30563   0.30893   0.31466   0.31634   0.31667
 Alpha virt. eigenvalues --    0.31873   0.32346   0.32406   0.32707   0.32918
 Alpha virt. eigenvalues --    0.33452   0.33653   0.34064   0.34548   0.34606
 Alpha virt. eigenvalues --    0.34857   0.35177   0.35529   0.35853   0.36584
 Alpha virt. eigenvalues --    0.37076   0.37354   0.37515   0.37982   0.38047
 Alpha virt. eigenvalues --    0.38509   0.38747   0.39204   0.39356   0.39745
 Alpha virt. eigenvalues --    0.40159   0.40634   0.40874   0.41349   0.41736
 Alpha virt. eigenvalues --    0.41977   0.42677   0.43356   0.43441   0.43480
 Alpha virt. eigenvalues --    0.43726   0.44015   0.44474   0.45238   0.47059
 Alpha virt. eigenvalues --    0.47419   0.47518   0.48526   0.48853   0.49407
 Alpha virt. eigenvalues --    0.49798   0.49861   0.50480   0.51105   0.51660
 Alpha virt. eigenvalues --    0.52176   0.52438   0.53105   0.53190   0.53349
 Alpha virt. eigenvalues --    0.53878   0.55486   0.55764   0.56258   0.57117
 Alpha virt. eigenvalues --    0.57527   0.58232   0.58522   0.59083   0.59994
 Alpha virt. eigenvalues --    0.60246   0.61100   0.61387   0.61778   0.62268
 Alpha virt. eigenvalues --    0.62898   0.62933   0.63771   0.64632   0.64880
 Alpha virt. eigenvalues --    0.65939   0.66741   0.67414   0.67918   0.68345
 Alpha virt. eigenvalues --    0.68770   0.69069   0.69710   0.70381   0.71164
 Alpha virt. eigenvalues --    0.71272   0.71381   0.72115   0.72982   0.73853
 Alpha virt. eigenvalues --    0.74254   0.74680   0.75154   0.75415   0.75898
 Alpha virt. eigenvalues --    0.76798   0.76958   0.77769   0.77999   0.78363
 Alpha virt. eigenvalues --    0.79101   0.79600   0.80232   0.80487   0.80867
 Alpha virt. eigenvalues --    0.81506   0.82260   0.82954   0.84034   0.84998
 Alpha virt. eigenvalues --    0.85786   0.88014   0.89326   0.90120   0.90811
 Alpha virt. eigenvalues --    0.91249   0.91956   0.92737   0.94914   0.95289
 Alpha virt. eigenvalues --    0.96091   0.96529   0.97829   0.98141   0.98918
 Alpha virt. eigenvalues --    1.00085   1.00827   1.01637   1.03643   1.04658
 Alpha virt. eigenvalues --    1.05990   1.06845   1.07723   1.08857   1.09386
 Alpha virt. eigenvalues --    1.10247   1.10831   1.10966   1.12435   1.12893
 Alpha virt. eigenvalues --    1.15399   1.16106   1.16833   1.18239   1.19817
 Alpha virt. eigenvalues --    1.20227   1.21741   1.22920   1.23852   1.25003
 Alpha virt. eigenvalues --    1.25631   1.26143   1.26871   1.27395   1.29029
 Alpha virt. eigenvalues --    1.29239   1.29867   1.30149   1.32802   1.33951
 Alpha virt. eigenvalues --    1.35357   1.35938   1.36759   1.37454   1.37686
 Alpha virt. eigenvalues --    1.39832   1.40011   1.40476   1.41205   1.41859
 Alpha virt. eigenvalues --    1.42989   1.44248   1.45314   1.46090   1.46888
 Alpha virt. eigenvalues --    1.49122   1.49928   1.50723   1.51634   1.52863
 Alpha virt. eigenvalues --    1.54460   1.54702   1.54785   1.55298   1.55530
 Alpha virt. eigenvalues --    1.57674   1.58923   1.60195   1.60255   1.60640
 Alpha virt. eigenvalues --    1.61588   1.62424   1.63130   1.64193   1.64845
 Alpha virt. eigenvalues --    1.65289   1.66631   1.66967   1.67420   1.68718
 Alpha virt. eigenvalues --    1.69943   1.72003   1.72514   1.73148   1.73696
 Alpha virt. eigenvalues --    1.76677   1.78424   1.78896   1.79679   1.80444
 Alpha virt. eigenvalues --    1.81566   1.82493   1.83815   1.84239   1.86315
 Alpha virt. eigenvalues --    1.86992   1.87866   1.88130   1.88826   1.91337
 Alpha virt. eigenvalues --    1.91727   1.93178   1.93978   1.94560   1.94795
 Alpha virt. eigenvalues --    1.95294   1.96703   1.99093   2.00466   2.01519
 Alpha virt. eigenvalues --    2.02115   2.03817   2.05925   2.07769   2.08803
 Alpha virt. eigenvalues --    2.10186   2.12922   2.15025   2.17604   2.19535
 Alpha virt. eigenvalues --    2.21668   2.23689   2.24511   2.25235   2.26001
 Alpha virt. eigenvalues --    2.27723   2.30283   2.32431   2.34586   2.37506
 Alpha virt. eigenvalues --    2.37964   2.42801   2.46026   2.48666   2.51529
 Alpha virt. eigenvalues --    2.53300   2.55270   2.56058   2.58069   2.58214
 Alpha virt. eigenvalues --    2.58756   2.59970   2.60406   2.61887   2.62590
 Alpha virt. eigenvalues --    2.63995   2.64291   2.65808   2.68373   2.69380
 Alpha virt. eigenvalues --    2.72841   2.73953   2.75737   2.77316   2.81016
 Alpha virt. eigenvalues --    2.82278   2.83985   2.86637   2.89257   2.90702
 Alpha virt. eigenvalues --    2.97618   3.00122   3.00882   3.01224   3.01846
 Alpha virt. eigenvalues --    3.03331   3.06292   3.07151   3.07266   3.07328
 Alpha virt. eigenvalues --    3.09267   3.10879   3.11325   3.14259   3.14942
 Alpha virt. eigenvalues --    3.15304   3.18277   3.20874   3.22990   3.23135
 Alpha virt. eigenvalues --    3.23647   3.26863   3.29087   3.29584   3.29795
 Alpha virt. eigenvalues --    3.31068   3.31420   3.31844   3.34589   3.35767
 Alpha virt. eigenvalues --    3.38960   3.40058   3.42204   3.43601   3.45522
 Alpha virt. eigenvalues --    3.47153   3.48252   3.52307   3.56638   3.66367
 Alpha virt. eigenvalues --    3.69110   3.70632   3.74299   3.78365   3.79331
 Alpha virt. eigenvalues --    3.82265   3.83996   3.84464   3.84573   3.85372
 Alpha virt. eigenvalues --    3.86674   3.87247   3.87636   3.87902   3.88720
 Alpha virt. eigenvalues --    3.89094   3.89866   3.90546   3.90847   3.90920
 Alpha virt. eigenvalues --    3.91972   3.92565   3.92702   3.92891   3.93338
 Alpha virt. eigenvalues --    3.96871   4.00264   4.01646   4.03815   4.05293
 Alpha virt. eigenvalues --    4.10834   4.12318   4.15793   4.20033   4.20843
 Alpha virt. eigenvalues --    4.23271   4.26398   4.26783   4.27260   4.27450
 Alpha virt. eigenvalues --    4.29448   4.54601   4.82848   5.07735   5.15940
 Alpha virt. eigenvalues --    5.22404   5.25967   5.30333   5.44825   5.46770
 Alpha virt. eigenvalues --    5.47359   5.52717   5.76033   5.85337   6.04666
 Alpha virt. eigenvalues --    6.06800   6.37778   6.40756   6.43538   6.43624
 Alpha virt. eigenvalues --    6.46361   6.47599   6.49837   6.55455   6.56047
 Alpha virt. eigenvalues --    6.56511   6.58430   6.66087   6.67161   6.68706
 Alpha virt. eigenvalues --    6.73753   8.13198  10.01450  17.49534  17.54554
 Alpha virt. eigenvalues --   17.60519  23.48767  23.61418  23.66535  23.77050
 Alpha virt. eigenvalues --   23.84543  23.85141  23.93584  23.94567  23.96341
 Alpha virt. eigenvalues --   23.98945  24.07311  24.10817  24.18044  25.97798
 Alpha virt. eigenvalues --   26.29341  26.79435  35.69329  50.07449  50.13162
 Alpha virt. eigenvalues --   50.19206  50.22549  66.90858  66.91100  66.97844
 Alpha virt. eigenvalues --   66.99046  67.05192 189.41552 216.11737
          Condensed to atoms (all electrons):
               1          2          3          4          5          6
     1  C   19.561029  -0.061925  -0.565387  -0.072203  -0.273122  -1.027811
     2  N   -0.061925   7.894266   0.320614  -0.046241  -0.271681  -0.410988
     3  C   -0.565387   0.320614  10.386529   0.497901   0.346064  -0.866292
     4  O   -0.072203  -0.046241   0.497901   8.152765  -0.208706  -0.194231
     5  O   -0.273122  -0.271681   0.346064  -0.208706   8.437901   0.349498
     6  C   -1.027811  -0.410988  -0.866292  -0.194231   0.349498   9.100175
     7  C    0.006102   0.054435   0.192601   0.036179  -0.166310  -1.066591
     8  C   -0.025246  -0.011437  -0.270251  -0.001394   0.024335   0.349532
     9  C   -2.572463  -0.028365  -2.029054   0.173550  -0.094472  -0.451712
    10  C   -7.358477   0.105532  -0.900483  -0.013613   0.003715  -0.078446
    11  C    1.062037  -0.093046  -0.180287   0.000501  -0.006162  -0.007693
    12  C   -1.500526  -0.024441  -1.011774   0.002552  -0.009313  -0.120657
    13  C   -0.079457   0.045210   0.081404   0.026668  -0.006731   0.012913
    14  H   -0.015920   0.090163   0.032118   0.001712   0.023889   0.001405
    15  H    0.012376   0.003364   0.048194  -0.001519  -0.047384   0.372060
    16  H    0.006178   0.005216   0.046142  -0.001664  -0.048531   0.331486
    17  H    0.001099  -0.000208   0.012557  -0.000204   0.001800  -0.049203
    18  H   -0.001200  -0.001477  -0.005944  -0.000484   0.001034  -0.065905
    19  H   -0.000221  -0.000087  -0.004828  -0.000162  -0.000388  -0.056867
    20  H    0.000109   0.000031   0.007766   0.000035  -0.000758   0.092113
    21  H    0.000013   0.000025   0.001765  -0.000015  -0.000352  -0.035753
    22  H    0.018875  -0.016728   0.084966  -0.002459   0.002204   0.006754
    23  Cl  -0.371015  -0.009248  -0.090284   0.000218  -0.000280  -0.003576
    24  H    0.081728  -0.018934  -0.027393   0.000282  -0.000047  -0.001918
    25  S   -0.749959   0.027958  -0.053358  -0.004247   0.000120   0.003527
    26  H   -0.018344   0.001107   0.004108  -0.000019   0.000002   0.000041
    27  F    0.022828  -0.000395   0.001347   0.000573   0.000001  -0.000437
    28  F   -0.021347   0.000411  -0.000651  -0.000037  -0.000000   0.000009
    29  F    0.032535  -0.000284   0.000296   0.000904  -0.000002  -0.000590
    30  F   -0.018905   0.000477  -0.000969  -0.000046  -0.000001  -0.000001
    31  F   -0.000708  -0.000128  -0.001305   0.000035  -0.000000  -0.000020
    32  O    0.026626  -0.011545   0.013827  -0.000043   0.000491   0.000028
    33  O    0.045191  -0.007570  -0.019360   0.000324   0.003459  -0.006406
    34  C   -0.026560  -0.012647   0.011442  -0.000064  -0.000746   0.003621
    35  C    0.090515  -0.027268   0.025123   0.000067   0.001548   0.003305
    36  C    0.003102   0.004123  -0.004526  -0.000062  -0.000635   0.000543
    37  H   -0.000352   0.000066   0.000109  -0.000000   0.000003   0.000004
    38  H   -0.000149   0.000049  -0.000004  -0.000000   0.000002  -0.000010
    39  H    0.000044   0.000121  -0.000065   0.000000  -0.000006   0.000026
    40  H   -0.000010  -0.000038   0.000031  -0.000000   0.000000  -0.000010
    41  H   -0.000122   0.000142   0.000008   0.000000  -0.000005   0.000056
               7          8          9         10         11         12
     1  C    0.006102  -0.025246  -2.572463  -7.358477   1.062037  -1.500526
     2  N    0.054435  -0.011437  -0.028365   0.105532  -0.093046  -0.024441
     3  C    0.192601  -0.270251  -2.029054  -0.900483  -0.180287  -1.011774
     4  O    0.036179  -0.001394   0.173550  -0.013613   0.000501   0.002552
     5  O   -0.166310   0.024335  -0.094472   0.003715  -0.006162  -0.009313
     6  C   -1.066591   0.349532  -0.451712  -0.078446  -0.007693  -0.120657
     7  C    6.561973  -0.180609   0.029430  -0.002468   0.000720   0.001619
     8  C   -0.180609   6.148862  -0.011942  -0.000766  -0.000016  -0.000975
     9  C    0.029430  -0.011942   8.290918   1.296023  -0.205568   1.030253
    10  C   -0.002468  -0.000766   1.296023  26.020339  -1.472384  -9.555198
    11  C    0.000720  -0.000016  -0.205568  -1.472384   9.198219  -0.809057
    12  C    0.001619  -0.000975   1.030253  -9.555198  -0.809057  18.430901
    13  C    0.007681  -0.000680   0.435960  -0.911121  -0.893915   0.349689
    14  H   -0.000901  -0.000397  -0.009319   0.024854   0.003829   0.004976
    15  H   -0.044872  -0.017877  -0.002344  -0.000061   0.000053   0.000014
    16  H    0.000990  -0.021240  -0.001265  -0.000002   0.000074   0.000018
    17  H    0.424985  -0.055955   0.000121   0.000007  -0.000000   0.000011
    18  H    0.460158  -0.052357   0.000101   0.000008  -0.000002   0.000004
    19  H    0.026355   0.375876   0.000047  -0.000000  -0.000000  -0.000000
    20  H   -0.144998   0.394165   0.000025   0.000000  -0.000000   0.000000
    21  H    0.002727   0.373038   0.000041  -0.000002   0.000000  -0.000000
    22  H   -0.001033   0.000050   0.333871  -0.092834  -0.003822  -0.041676
    23  Cl   0.000064  -0.000010   0.054590   0.001568   0.060068  -0.767517
    24  H   -0.000030  -0.000007  -0.008314   0.016397   0.035074  -0.111612
    25  S   -0.000156  -0.000033   0.213948  -0.755235  -0.323675  -0.023944
    26  H   -0.000000   0.000000   0.004101  -0.066193   0.355185   0.013287
    27  F    0.000022   0.000000   0.003556  -0.128477   0.126545   0.072687
    28  F   -0.000000  -0.000000  -0.014834   0.411342  -0.178654  -0.163049
    29  F    0.000009   0.000001  -0.000053  -0.134082   0.129151   0.071419
    30  F   -0.000001  -0.000000  -0.006614   0.368513  -0.165797  -0.151568
    31  F    0.000000  -0.000000  -0.027652   0.077857  -0.006848  -0.000838
    32  O    0.000059  -0.000003  -0.016142   0.010729   0.004671  -0.075133
    33  O    0.001693   0.000164   0.004529   0.002345   0.004239   0.005570
    34  C   -0.001829  -0.000106  -0.006638  -0.009733   0.014614   0.025090
    35  C   -0.000497   0.000299  -0.029842  -0.008914   0.004037  -0.066204
    36  C   -0.000236  -0.000149  -0.000047  -0.000981  -0.000413  -0.002588
    37  H    0.000004   0.000000   0.000006  -0.000010  -0.000019  -0.000031
    38  H    0.000005   0.000000   0.000012  -0.000004  -0.000026  -0.000036
    39  H    0.000014   0.000016  -0.000014  -0.000002   0.000001  -0.000035
    40  H   -0.000002  -0.000001   0.000007   0.000002   0.000000   0.000050
    41  H    0.000021   0.000013  -0.000012  -0.000004   0.000001  -0.000037
              13         14         15         16         17         18
     1  C   -0.079457  -0.015920   0.012376   0.006178   0.001099  -0.001200
     2  N    0.045210   0.090163   0.003364   0.005216  -0.000208  -0.001477
     3  C    0.081404   0.032118   0.048194   0.046142   0.012557  -0.005944
     4  O    0.026668   0.001712  -0.001519  -0.001664  -0.000204  -0.000484
     5  O   -0.006731   0.023889  -0.047384  -0.048531   0.001800   0.001034
     6  C    0.012913   0.001405   0.372060   0.331486  -0.049203  -0.065905
     7  C    0.007681  -0.000901  -0.044872   0.000990   0.424985   0.460158
     8  C   -0.000680  -0.000397  -0.017877  -0.021240  -0.055955  -0.052357
     9  C    0.435960  -0.009319  -0.002344  -0.001265   0.000121   0.000101
    10  C   -0.911121   0.024854  -0.000061  -0.000002   0.000007   0.000008
    11  C   -0.893915   0.003829   0.000053   0.000074  -0.000000  -0.000002
    12  C    0.349689   0.004976   0.000014   0.000018   0.000011   0.000004
    13  C    7.437623  -0.041866  -0.001184  -0.000368  -0.000075   0.000108
    14  H   -0.041866   0.268103  -0.000012   0.000039  -0.000023   0.000001
    15  H   -0.001184  -0.000012   0.472141  -0.044215   0.005675  -0.007946
    16  H   -0.000368   0.000039  -0.044215   0.483131  -0.009808   0.005883
    17  H   -0.000075  -0.000023   0.005675  -0.009808   0.445390  -0.031413
    18  H    0.000108   0.000001  -0.007946   0.005883  -0.031413   0.439975
    19  H    0.000009   0.000000  -0.000841   0.004964  -0.008190   0.006170
    20  H    0.000002  -0.000000  -0.000145  -0.000262  -0.003591  -0.003438
    21  H   -0.000001  -0.000000   0.004381  -0.000831   0.006155  -0.008136
    22  H   -0.002223  -0.000111  -0.000027  -0.000107   0.000000  -0.000000
    23  Cl   0.173843   0.000147   0.000000   0.000001   0.000000   0.000000
    24  H    0.211353   0.013336  -0.000000  -0.000000   0.000000  -0.000000
    25  S   -0.195300   0.000783  -0.000012  -0.000021   0.000001   0.000001
    26  H   -0.033991   0.000001  -0.000000  -0.000000  -0.000000   0.000000
    27  F   -0.008216  -0.000002   0.000001   0.000001   0.000000  -0.000000
    28  F    0.005074   0.000001   0.000000   0.000000  -0.000000   0.000000
    29  F   -0.009771  -0.000001   0.000000   0.000002  -0.000000   0.000000
    30  F    0.004701   0.000001   0.000000   0.000000   0.000000  -0.000000
    31  F    0.000457  -0.000000   0.000000   0.000000  -0.000000  -0.000000
    32  O    0.044120   0.017901   0.000001  -0.000000   0.000001  -0.000000
    33  O   -0.071366   0.057764   0.000025  -0.000017   0.000025  -0.000034
    34  C   -0.009435  -0.001913   0.000072   0.000009   0.000063   0.000046
    35  C   -0.079669   0.025262   0.000022  -0.000005   0.000005  -0.000155
    36  C    0.002487  -0.002285  -0.000007   0.000006  -0.000004   0.000092
    37  H    0.000497  -0.000024   0.000000   0.000000   0.000000  -0.000000
    38  H    0.000626  -0.000018   0.000000   0.000000  -0.000000   0.000000
    39  H   -0.000087  -0.000085   0.000000  -0.000000  -0.000000  -0.000001
    40  H    0.000052   0.000016   0.000000   0.000000   0.000000   0.000000
    41  H   -0.000088  -0.000092   0.000000  -0.000000   0.000000  -0.000002
              19         20         21         22         23         24
     1  C   -0.000221   0.000109   0.000013   0.018875  -0.371015   0.081728
     2  N   -0.000087   0.000031   0.000025  -0.016728  -0.009248  -0.018934
     3  C   -0.004828   0.007766   0.001765   0.084966  -0.090284  -0.027393
     4  O   -0.000162   0.000035  -0.000015  -0.002459   0.000218   0.000282
     5  O   -0.000388  -0.000758  -0.000352   0.002204  -0.000280  -0.000047
     6  C   -0.056867   0.092113  -0.035753   0.006754  -0.003576  -0.001918
     7  C    0.026355  -0.144998   0.002727  -0.001033   0.000064  -0.000030
     8  C    0.375876   0.394165   0.373038   0.000050  -0.000010  -0.000007
     9  C    0.000047   0.000025   0.000041   0.333871   0.054590  -0.008314
    10  C   -0.000000   0.000000  -0.000002  -0.092834   0.001568   0.016397
    11  C   -0.000000  -0.000000   0.000000  -0.003822   0.060068   0.035074
    12  C   -0.000000   0.000000  -0.000000  -0.041676  -0.767517  -0.111612
    13  C    0.000009   0.000002  -0.000001  -0.002223   0.173843   0.211353
    14  H    0.000000  -0.000000  -0.000000  -0.000111   0.000147   0.013336
    15  H   -0.000841  -0.000145   0.004381  -0.000027   0.000000  -0.000000
    16  H    0.004964  -0.000262  -0.000831  -0.000107   0.000001  -0.000000
    17  H   -0.008190  -0.003591   0.006155   0.000000   0.000000   0.000000
    18  H    0.006170  -0.003438  -0.008136  -0.000000   0.000000  -0.000000
    19  H    0.464911  -0.024772  -0.036509  -0.000000  -0.000000  -0.000000
    20  H   -0.024772   0.439772  -0.024914   0.000000   0.000000   0.000000
    21  H   -0.036509  -0.024914   0.462652  -0.000000  -0.000000   0.000000
    22  H   -0.000000   0.000000  -0.000000   0.363394  -0.000115   0.000096
    23  Cl  -0.000000   0.000000  -0.000000  -0.000115  17.526034   0.000565
    24  H   -0.000000   0.000000   0.000000   0.000096   0.000565   0.283260
    25  S    0.000000   0.000000   0.000000   0.028424   0.005822  -0.000559
    26  H    0.000000  -0.000000   0.000000  -0.000001  -0.013958  -0.000239
    27  F   -0.000000  -0.000000  -0.000000  -0.000064  -0.000024  -0.000014
    28  F    0.000000   0.000000  -0.000000  -0.000306   0.000319  -0.000010
    29  F    0.000000  -0.000000  -0.000000  -0.000239  -0.000069  -0.000012
    30  F   -0.000000   0.000000  -0.000000  -0.000346   0.000188  -0.000009
    31  F   -0.000000   0.000000  -0.000000  -0.000686   0.000109  -0.000000
    32  O    0.000000  -0.000000   0.000000  -0.000015   0.003312   0.034144
    33  O    0.000000   0.000000   0.000000   0.000013  -0.001803   0.007720
    34  C   -0.000002  -0.000001   0.000001   0.000084   0.000930   0.001484
    35  C   -0.000001   0.000001  -0.000000   0.000014  -0.000272   0.014590
    36  C    0.000001  -0.000001   0.000000   0.000001   0.000248  -0.000129
    37  H    0.000000  -0.000000   0.000000  -0.000000   0.000003  -0.000094
    38  H    0.000000  -0.000000  -0.000000  -0.000000  -0.000005  -0.000063
    39  H   -0.000000   0.000000  -0.000000   0.000000  -0.000001  -0.000001
    40  H    0.000000  -0.000000   0.000000  -0.000000   0.000001  -0.000002
    41  H   -0.000000   0.000000  -0.000000  -0.000000  -0.000000  -0.000004
              25         26         27         28         29         30
     1  C   -0.749959  -0.018344   0.022828  -0.021347   0.032535  -0.018905
     2  N    0.027958   0.001107  -0.000395   0.000411  -0.000284   0.000477
     3  C   -0.053358   0.004108   0.001347  -0.000651   0.000296  -0.000969
     4  O   -0.004247  -0.000019   0.000573  -0.000037   0.000904  -0.000046
     5  O    0.000120   0.000002   0.000001  -0.000000  -0.000002  -0.000001
     6  C    0.003527   0.000041  -0.000437   0.000009  -0.000590  -0.000001
     7  C   -0.000156  -0.000000   0.000022  -0.000000   0.000009  -0.000001
     8  C   -0.000033   0.000000   0.000000  -0.000000   0.000001  -0.000000
     9  C    0.213948   0.004101   0.003556  -0.014834  -0.000053  -0.006614
    10  C   -0.755235  -0.066193  -0.128477   0.411342  -0.134082   0.368513
    11  C   -0.323675   0.355185   0.126545  -0.178654   0.129151  -0.165797
    12  C   -0.023944   0.013287   0.072687  -0.163049   0.071419  -0.151568
    13  C   -0.195300  -0.033991  -0.008216   0.005074  -0.009771   0.004701
    14  H    0.000783   0.000001  -0.000002   0.000001  -0.000001   0.000001
    15  H   -0.000012  -0.000000   0.000001   0.000000   0.000000   0.000000
    16  H   -0.000021  -0.000000   0.000001   0.000000   0.000002   0.000000
    17  H    0.000001  -0.000000   0.000000  -0.000000  -0.000000   0.000000
    18  H    0.000001   0.000000  -0.000000   0.000000   0.000000  -0.000000
    19  H    0.000000   0.000000  -0.000000   0.000000   0.000000  -0.000000
    20  H    0.000000  -0.000000  -0.000000   0.000000  -0.000000   0.000000
    21  H    0.000000   0.000000  -0.000000  -0.000000  -0.000000  -0.000000
    22  H    0.028424  -0.000001  -0.000064  -0.000306  -0.000239  -0.000346
    23  Cl   0.005822  -0.013958  -0.000024   0.000319  -0.000069   0.000188
    24  H   -0.000559  -0.000239  -0.000014  -0.000010  -0.000012  -0.000009
    25  S   16.983783   0.060503   0.024234   0.060559   0.022198   0.071364
    26  H    0.060503   0.387288   0.000089   0.000506   0.000083   0.000037
    27  F    0.024234   0.000089   8.974408  -0.028481  -0.013998  -0.026644
    28  F    0.060559   0.000506  -0.028481   8.985381  -0.026685  -0.011150
    29  F    0.022198   0.000083  -0.013998  -0.026685   8.978537  -0.027742
    30  F    0.071364   0.000037  -0.026644  -0.011150  -0.027742   8.981859
    31  F   -0.025903  -0.000566  -0.011911  -0.008094  -0.012103  -0.008219
    32  O    0.000350   0.000008   0.000000   0.000000   0.000000   0.000000
    33  O    0.000007   0.000001   0.000000   0.000000   0.000000   0.000000
    34  C   -0.002340  -0.000047  -0.000023  -0.000004  -0.000017  -0.000001
    35  C   -0.000273  -0.000007  -0.000001  -0.000000  -0.000000   0.000000
    36  C   -0.000027   0.000000  -0.000000  -0.000000  -0.000000  -0.000000
[...]
 35,0.00001288,0.00002956,0.00001505,-0.00000714,-0.00000234,0.00000527
 ,-0.00000811,0.00000332,-0.00000387,0.00000164,0.00001446,-0.00002173,
 0.00000135,-0.00000577,-0.00000055,0.,0.00002737,-0.00000410,-0.000002
 24,-0.00007494,-0.00002623,0.00000948,0.00004982,-0.00000267,0.0000051
 0,0.00000500,0.00020332,-0.00010999,-0.00000159,-0.00000147,-0.0000033
 2,-0.00000192,-0.00000550,0.00000525,0.00000328,0.00000253,-0.00000843
 ,0.00000688,0.00000073,0.00001181,-0.00000325,-0.00000452,0.00000450,-
 0.00000109,0.00000272,-0.00000168,-0.00000183,-0.00000130,-0.00000237,
 -0.00000339,0.00000311,-0.00000186,0.00003253,0.00001707,-0.00000277,-
 0.00001726,0.00003977,-0.00000535,-0.00003531,0.00006911,-0.00002338,-
 0.00000072,-0.00000284,-0.00000135,-0.00000139,-0.00001423,0.00001127,
 0.00001967,-0.00001364,0.00001381,0.00000228,-0.00001320,0.00000129,0.
 00001224,-0.00001437,-0.00000535,0.00000506,-0.00001374,0.00000320,0.0
 0147268,-0.00014881,0.00068879,0.00078176,0.00020674,-0.00084636,-0.00
 062863,0.00367715,0.00318778,-0.07393779,-0.10554628,-0.20926232,-0.00
 014418,0.00028732,-0.00046495,0.08249668,0.11453587,0.22639457,-0.0000
 4309,0.00002623,0.00000670,0.00008104,0.00004156,-0.00005362,-0.000186
 31,0.00002878,0.00002984,0.00004504,-0.00000945,-0.00000687,0.00010410
 ,-0.00006365,-0.00001919,-0.00004103,0.00001634,0.00000648,0.00000095,
 0.00001259,0.00001514,0.00000910,-0.00001143,-0.00000304,0.00001479,-0
 .00001188,-0.00000269,-0.00000969,0.00000977,-0.00000261,0.00000116,0.
 00000369,0.00000187,0.00001693,0.00000048,-0.00000519,0.00000824,-0.00
 000295,-0.00000306,-0.00001280,-0.00008556,0.00008884,0.00000723,-0.00
 000898,-0.00000559,0.00000649,-0.00000323,0.00000133,0.00000513,0.0000
 0967,-0.00003497,0.00000716,0.00001318,0.00002447,-0.00000505,-0.00000
 308,0.00000455,0.00000810,0.00000285,0.00000114,-0.00000824,-0.0000079
 2,-0.00000571,-0.00000478,0.00000264,0.00000184,-0.00000411,0.00000156
 ,0.00000140,0.00001784,-0.00012009,0.00000632,-0.00000372,-0.00003921,
 0.00002074,0.00000024,0.00000185,0.00000067,0.00000716,0.00000855,-0.0
 0001034,-0.00000589,0.00000725,-0.00000604,0.00000425,0.00000779,-0.00
 000011,-0.00000177,0.00000707,-0.00000098,0.00000015,0.00000633,-0.000
 00284,-0.00180234,0.00189970,0.00055625,0.00100033,0.00055120,0.000541
 80,0.00139297,0.00088438,-0.00751219,-0.10235909,-0.04437861,0.0980008
 9,-0.01571149,-0.01206293,0.02737294,0.00503772,0.00514026,-0.00914978
 ,0.11619759,-0.00032368,0.00006308,0.00002921,0.00000594,-0.00093458,0
 .00016898,0.00034409,0.00013914,-0.00000670,-0.00012189,-0.00019070,-0
 .00000420,-0.00013865,-0.00001327,0.00000284,0.00009283,0.00001797,0.0
 0000200,-0.00000708,-0.00000955,0.00000758,-0.00000056,0.00000785,-0.0
 0000123,0.00006872,-0.00007166,-0.00001418,-0.00002350,-0.00000108,-0.
 00000155,0.00005050,-0.00001334,-0.00001198,-0.00009536,-0.00003484,0.
 00001160,0.00010210,0.00004663,0.00002403,0.00002148,0.00147445,-0.000
 39115,-0.00001398,-0.00000958,-0.00000235,-0.00001303,-0.00000636,0.00
 000069,0.00000394,-0.00000263,-0.00000444,0.00000225,0.00000266,-0.000
 00067,0.00000058,-0.00000047,-0.00000092,-0.00000635,0.00000062,0.0000
 0121,-0.00000152,-0.00000320,-0.00000060,-0.00000775,0.00000868,0.0000
 0355,0.00004737,0.00002847,-0.00000882,-0.00006519,0.00004356,-0.00001
 929,-0.00002385,0.00007020,0.00003140,0.00000023,-0.00000303,0.0000035
 4,-0.00000035,-0.00001440,0.00000281,0.00001732,-0.00001516,0.00000715
 ,-0.00000715,-0.00001768,-0.00001334,0.00001839,-0.00001681,-0.0000225
 5,0.00000323,-0.00001191,-0.00000314,0.00129778,0.00064119,-0.00438544
 ,0.00059756,-0.00748875,-0.00307302,-0.01644440,-0.00958866,0.03009946
 ,-0.04442611,-0.08020508,0.08348355,0.00323576,0.00153972,-0.00509066,
 0.00847571,0.00650741,-0.01415343,0.04694510,0.08748460,0.00015947,-0.
 00004106,-0.00001757,-0.00002440,0.00031043,0.00000720,-0.00011248,-0.
 00013209,0.00000174,0.00004507,0.00012125,-0.00000297,0.00005318,0.000
 04955,0.00000264,-0.00005781,-0.00001973,0.00000018,0.00000212,-0.0000
 0633,-0.00000439,-0.00000288,0.00000163,0.00000060,-0.00002776,0.00003
 723,0.00000170,0.00001009,0.00000166,-0.00000131,-0.00004145,0.0000075
 2,0.00000569,0.00010356,0.00003721,-0.00001394,-0.00007054,-0.00000910
 ,0.00000879,-0.00000784,-0.00053295,0.00000963,0.00000604,0.00000640,0
 .00000548,0.00000540,0.00000408,-0.00000422,-0.00000583,0.00000043,0.0
 0001124,-0.00000658,-0.00000192,-0.00000769,0.00000190,0.00000242,-0.0
 0000322,0.00000265,-0.00000286,-0.00000062,0.00000317,0.00000413,0.000
 00389,0.00000477,-0.00000511,-0.00000183,-0.00004652,-0.00002174,0.000
 00888,0.00003419,-0.00007432,-0.00001080,0.00004257,-0.00010333,-0.000
 01502,0.00000054,0.00000380,-0.00000152,-0.00000064,0.00002004,-0.0000
 0492,-0.00002205,0.00002015,-0.00001013,0.00000408,0.00002184,0.000009
 19,-0.00002176,0.00002237,0.00002017,-0.00000666,0.00002035,0.00000124
 ,-0.00150350,0.00018687,0.00061059,-0.00074863,0.00101509,-0.00004943,
 0.00347727,-0.00173458,-0.00237345,0.09809398,0.08024298,-0.21841827,-
 0.00251013,-0.00223296,0.00411862,0.01153736,0.01026212,-0.02185373,-0
 .10836001,-0.08684516,0.23571268,-0.00007853,0.00002951,0.00001248,-0.
 00000523,-0.00009409,-0.00002336,0.00004757,0.00004544,0.00001505,-0.0
 0002047,-0.00003926,-0.00000537,-0.00006368,-0.00002439,-0.00002476,0.
 00007803,0.00001867,0.00001031,-0.00000541,-0.00001760,-0.00000387,-0.
 00000807,0.00001447,0.00000111,0.00001711,-0.00001196,-0.00000235,-0.0
 0000704,0.00000208,0.00000054,0.00001303,0.00000071,-0.00000305,-0.000
 03067,-0.00001334,0.00000426,0.00001837,0.00003148,-0.00001607,0.00002
 832,0.00017461,0.00002756,-0.00001185,0.00000052,-0.00000149,-0.000009
 27,0.00000593,-0.00000204,0.00002931,0.00001050,0.00004079,-0.00001428
 ,-0.00002646,-0.00002883,0.00000544,0.00000622,-0.00000412,-0.00000985
 ,-0.00000222,0.00000182,0.00000431,0.00000262,0.00000068,-0.00000190,0
 .00000283,0.00000294,0.00001538,0.00000988,-0.00000380,-0.00001393,-0.
 00001741,0.00000858,-0.00001063,0.00001437,0.00002525,-0.00000038,-0.0
 0000048,0.00000184,0.00000396,-0.00000166,-0.00000666,0.00000220,-0.00
 000306,-0.00000276,-0.00000131,-0.00000390,-0.00000537,0.00000562,-0.0
 0000387,-0.00000826,0.00000193,-0.00000331,-0.00000297,0.00080021,0.00
 064013,-0.00039040,0.00102915,0.00068552,-0.00035261,-0.00115308,-0.00
 245952,0.00086218,-0.01638065,-0.01239097,0.02851215,-0.10359443,-0.04
 670086,0.10015066,0.00138263,-0.00057202,-0.00035382,-0.00641332,0.001
 43223,-0.00124800,0.11611830,0.00013681,-0.00004024,-0.00000467,-0.000
 05450,0.00022666,-0.00000939,0.00005138,-0.00018246,0.00000113,0.00001
 229,0.00014589,-0.00000526,-0.00000709,0.00014512,0.00000678,-0.000080
 03,-0.00003413,0.00000845,0.00002596,-0.00003409,-0.00003265,-0.000020
 29,0.00002837,0.00001116,-0.00002264,0.00003305,-0.00000302,0.00000656
 ,-0.00000239,-0.00000607,-0.00002710,0.00001292,0.00000728,0.00005195,
 0.00001172,-0.00001860,-0.00005378,-0.00000252,0.00001614,-0.00001097,
 -0.00039022,0.00001553,0.00000703,0.00001651,0.00000747,0.00000735,0.0
 0001268,-0.00000826,-0.00002496,0.00001560,0.00006986,-0.00004226,-0.0
 0002616,-0.00003465,0.00001036,0.00000888,-0.00000543,0.00001296,-0.00
 000573,0.00000087,0.00001627,0.00000790,0.00000129,0.00000555,-0.00000
 551,0.00000021,-0.00002176,-0.00000914,0.00000417,0.00002876,-0.000063
 98,-0.00000225,0.00002733,-0.00009210,0.00000831,0.00000036,0.00000170
 ,-0.00000018,0.00000360,0.00001891,-0.00001139,-0.00001841,0.00001776,
 -0.00001275,0.00000454,0.00002060,0.00000599,-0.00001399,0.00001945,0.
 00001259,-0.00000497,0.00001834,-0.00000141,-0.00061215,0.00013528,0.0
 0002752,-0.00003138,-0.00059735,0.00009886,0.00099094,0.00000068,-0.00
 064043,0.00148851,0.00162740,-0.00410143,-0.04789698,-0.08537786,0.083
 07773,-0.00047546,0.00003713,0.00010775,0.00115865,0.00032854,-0.00019
 923,0.05169288,0.08858627,0.00012291,-0.00005735,-0.00001093,-0.000152
 14,0.00003951,0.00002953,0.00028909,-0.00014231,-0.00003601,-0.0000602
 8,0.00009792,0.00000802,-0.00016862,0.00016512,0.00000995,0.00003381,-
 0.00006980,-0.00000677,0.00001903,0.00000473,0.00000207,-0.00002441,0.
 00002037,-0.00000326,-0.00002715,0.00003072,0.00000298,0.00001312,-0.0
 0000901,-0.00000106,-0.00002308,0.00000147,0.00000309,0.00003412,0.000
 01664,-0.00000360,-0.00003965,-0.00002251,0.00000896,0.00002365,-0.000
 09166,-0.00002206,-0.00000773,0.00002034,0.00001136,-0.00001047,0.0000
 1815,-0.00000711,-0.00001977,-0.00003578,0.00007312,-0.00002995,-0.000
 04210,-0.00007412,0.00001576,0.00001388,-0.00001198,-0.00001274,-0.000
 00794,0.00000083,0.00001761,0.00001644,0.00001120,0.00000941,-0.000006
 01,-0.00000230,-0.00001960,-0.00001206,0.00000447,0.00001265,0.0000165
 9,-0.00001143,0.00003103,-0.00001428,-0.00002035,0.00000027,0.00000030
 ,-0.00000119,-0.00000739,0.00000189,0.00000596,-0.00000781,0.00000363,
 -0.00000132,-0.00000404,0.00000299,0.00000301,-0.00000984,0.00000444,0
 .00001042,-0.00000419,0.00000367,0.00000237,-0.00040827,-0.00068475,-0
 .00002747,-0.00137177,-0.00020191,0.00054695,0.00146693,0.00211280,-0.
 00007727,-0.00158336,-0.00224591,0.00342405,0.10156360,0.08133959,-0.2
 2569398,0.00058111,-0.00028130,0.00072566,-0.00099262,0.00025871,0.001
 44796,-0.11001569,-0.09077714,0.24144289,-0.00002412,0.00004825,-0.000
 00057,0.00011693,0.00023682,-0.00001968,-0.00029587,-0.00005732,0.0000
 1984,0.00008068,0.00006676,-0.00000636,0.00014614,-0.00005636,-0.00000
 175,-0.00005443,0.00000718,0.00000138,-0.00000618,0.00001237,-0.000002
 90,0.00000908,-0.00001491,0.00000084,0.00002619,0.00000923,-0.00000535
 ,-0.00001492,0.00001707,0.00000030,-0.00002333,0.00001809,0.00000022,0
 .00008582,0.00001695,-0.00000969,-0.00002650,0.00009460,0.00001190,-0.
 00000878,-0.00041646,0.00003192,0.00000847,0.00000103,-0.00000140,0.00
 000845,-0.00000060,0.00000119,0.00000740,0.00000257,-0.00001520,0.0000
 1743,0.00000699,0.00001453,-0.00000569,-0.00000168,0.00000222,0.000001
 65,0.00000067,0.00000004,-0.00000467,-0.00000117,-0.00000129,-0.000005
 52,0.00000480,-0.00000018,-0.00003006,-0.00000344,0.00000707,0.0000240
 0,-0.00033048,-0.00001539,0.00001535,-0.00014030,0.00000214,-0.0000005
 7,0.00000639,-0.00000080,0.00001125,0.00002878,-0.00001857,-0.00002178
 ,0.00002626,-0.00001413,0.00001565,0.00003130,0.00001338,-0.00001904,0
 .00002819,0.00001792,-0.00000275,0.00002366,-0.00000061,-0.00292835,0.
 00359124,-0.00039383,0.00173561,0.00090990,-0.00000578,-0.00506279,-0.
 00602439,0.00020433,-0.00638295,0.03548354,-0.00298934,-0.06160297,0.0
 5712923,-0.00491773,0.00139091,-0.00060533,-0.00043920,0.00119730,-0.0
 0048185,0.00071393,0.00308038,-0.01475051,-0.00111886,0.06675125,-0.00
 016423,0.00003492,0.00001227,-0.00001869,-0.00039807,0.00002520,0.0001
 5607,0.00023124,-0.00002674,-0.00007140,-0.00020025,0.00001074,-0.0001
 0985,-0.00010445,0.00002116,0.00013148,0.00004718,-0.00001178,-0.00002
 129,0.00001017,-0.00000877,0.00001524,-0.00001244,0.00000341,0.0000156
 8,-0.00004445,0.00000384,-0.00000015,-0.00000733,-0.00000024,0.0000434
 1,-0.00002647,-0.00000250,-0.00009856,-0.00002030,0.00001307,0.0000768
 7,-0.00001162,-0.00001783,0.00004181,0.00072438,-0.00005470,-0.0000125
 6,-0.00001087,-0.00000812,-0.00001302,-0.00001361,0.00000933,0.0000203
 1,0.00000272,-0.00002482,0.00003492,0.00000519,0.00002480,-0.00000980,
 -0.00000675,0.00000427,-0.00001633,0.00000700,0.00000157,-0.00000785,-
 0.00000684,-0.00000334,-0.00000335,0.00000576,0.00000004,0.00003850,0.
 00001055,-0.00000732,-0.00006133,0.00022310,0.00000959,-0.00004275,0.0
 0019633,-0.00000490,-0.00000084,-0.00000457,0.00000094,-0.00001025,-0.
 00003999,0.00002340,0.00003473,-0.00003753,0.00002164,-0.00001424,-0.0
 0004292,-0.00001506,0.00002909,-0.00004036,-0.00002551,0.00000670,-0.0
 0003705,0.00000152,0.00175818,-0.00071220,0.00009859,0.00169704,-0.000
 76925,0.00020534,-0.00192204,0.00111134,-0.00005783,-0.00135777,-0.001
 80968,-0.00006655,0.05747654,-0.29582155,0.01999850,0.00049617,0.00036
 625,0.00041263,0.00057338,0.00018614,-0.00036153,0.00212269,-0.0106157
 0,0.00001419,-0.06382449,0.32165606,0.00000569,0.00000268,-0.00000189,
 0.00001585,0.00004366,0.00002847,-0.00002650,-0.00001508,-0.00001232,0
 .00000964,0.00001805,0.00000045,0.00001727,0.00000640,0.00002412,-0.00
 001566,-0.00000914,0.00000075,0.00000498,0.00000899,-0.00003115,-0.000
 00130,0.00000057,0.00001002,0.00000089,0.00000285,-0.00000066,-0.00000
 082,0.00000209,0.00000026,-0.00000334,0.00000224,0.00000006,0.00000732
 ,0.00000168,-0.00000352,-0.00000444,0.00000687,0.00000183,-0.00000969,
 -0.00008458,-0.00003875,0.00000215,0.00000483,0.00000090,0.00000200,-0
 .00000081,0.00000071,-0.00001239,-0.00000224,0.00001346,0.00000827,-0.
 00000080,0.00000340,-0.00000162,-0.00000035,0.,0.00000271,-0.00000031,
 0.00000049,0.00000367,0.00000099,-0.00000070,-0.00000040,0.00000026,-0
 .00000057,-0.00000247,-0.00000060,0.00000088,0.00000816,-0.00003855,-0
 .00000153,-0.00000051,-0.00001263,0.00000370,-0.00000008,0.00000071,0.
 00000026,0.00000173,0.00000282,-0.00000297,-0.00000260,0.00000242,-0.0
 0000235,0.00000202,0.00000293,0.00000111,-0.00000118,0.00000260,0.0000
 0065,0.00000017,0.00000169,-0.00000056,-0.00034681,0.00024533,0.000002
 17,-0.00019120,0.00024083,0.00054480,-0.00016256,-0.00019570,0.0007148
 9,-0.00019272,0.00231469,-0.00138509,-0.00494812,0.01983602,-0.0520859
 1,0.00013126,0.00032139,-0.00006000,-0.00006860,-0.00038000,0.00007167
 ,-0.00784955,0.02573340,-0.00062711,0.00606561,-0.02233376,0.04898157,
 -0.00004264,0.00001566,-0.00000953,-0.00001932,-0.00005034,0.00003548,
 0.00007727,0.00002023,-0.00002769,-0.00002343,-0.00001664,0.00000968,-
 0.00006297,0.00000413,0.00001999,0.00005527,-0.00000565,-0.00001564,-0
 .00000791,-0.00000789,0.00002012,-0.00000662,0.00000601,-0.00000553,0.
 00000852,-0.00000343,0.00000208,-0.00000234,0.00000077,0.00000217,0.00
 000588,-0.00000034,0.00000045,-0.00001677,-0.00000581,0.00000081,0.000
 00987,0.00002900,0.00001650,0.00001704,0.00008811,-0.00003742,-0.00000
 431,0.00000349,0.00000122,-0.00001101,0.00000364,0.00000059,0.00000145
 ,-0.00000431,0.00001474,0.00000159,-0.00001557,-0.00002263,0.00000414,
 0.00000503,-0.00000454,-0.00000773,-0.00000104,0.00000429,0.00000372,0
 .00000142,0.00000243,-0.00000034,0.00000160,-0.00000298,0.00000775,0.0
 0000493,0.00000300,-0.00000863,-0.00003164,-0.00001792,-0.00000916,0.0
 0001925,-0.00002890,-0.00000070,0.00000003,-0.00000188,-0.00000240,-0.
 00000461,0.00000805,0.00000704,-0.00000370,0.00000775,0.00000287,-0.00
 000282,0.00000527,0.00000089,-0.00000356,0.00000414,0.00000126,-0.0000
 0459,0.00000358,0.00050696,0.00056589,0.00034537,0.00156042,0.00116356
 ,0.00062832,-0.00066000,-0.00215813,-0.00038781,-0.01261077,-0.0164982
 9,-0.02851009,-0.08004486,-0.04539645,-0.07626484,-0.00657507,0.001590
 99,-0.00009609,0.00144172,-0.00056089,0.00052414,0.00515270,0.00842919
 ,0.01188531,0.00179132,0.00301202,0.00755318,0.08945930,0.00009343,-0.
 00002630,-0.00001336,-0.00001414,0.00018764,-0.00000767,-0.00002579,-0
 .00011266,0.00001212,0.00002310,0.00009284,-0.00000304,0.00003201,0.00
 007522,-0.00003478,-0.00006955,-0.00002605,0.00001136,0.00001208,-0.00
 000852,0.00001338,-0.00000781,0.00000467,-0.00000822,-0.00001479,0.000
 02189,0.00000095,0.00000401,0.00000070,-0.00000059,-0.00001955,0.00000
 936,-0.00000015,0.00004042,0.00001154,0.00000135,-0.00003995,-0.000000
 72,0.00000589,-0.00001843,-0.00031560,0.00002004,0.00000731,0.00000381
 ,0.00000319,0.00000705,0.00000803,-0.00000529,-0.00000209,0.00000449,0
 .00000655,-0.00002589,0.00000716,-0.00001244,0.00000661,0.00000221,-0.
 00000069,0.00000964,-0.00000252,-0.00000350,0.00000268,0.00000454,0.00
 000194,0.00000270,-0.00000313,-0.00000044,-0.00001699,-0.00000698,0.00
 000239,0.00002250,-0.00005683,-0.00000663,0.00001536,-0.00006615,-0.00
 000743,0.00000012,0.00000150,-0.00000098,0.00000249,0.00001324,-0.0000
 0586,-0.00001121,0.00001274,-0.00000599,0.00000524,0.00001518,0.000006
 64,-0.00001134,0.00001399,0.00001176,-0.00000223,0.00001239,0.00000077
 ,-0.00041500,0.00019946,-0.00011476,0.00067036,-0.00089975,0.00019750,
 0.00058440,-0.00013663,0.00075495,0.00108916,0.00230259,0.00420569,-0.
 04665152,-0.11023447,-0.10583040,0.00110630,0.00046668,0.00052404,-0.0
 0055187,0.00006178,-0.00007553,0.00544309,0.00600222,0.01049772,-0.011
 09261,-0.01402407,-0.02573244,0.04981072,0.11638451,-0.00013050,0.0000
 5799,0.00000091,0.00013989,-0.00006111,0.00003037,-0.00024256,0.000149
 47,-0.00002550,0.00004657,-0.00009819,0.00000995,0.00012754,-0.0001538
 0,0.00005793,-0.00001046,0.00004089,-0.00000599,-0.00001448,0.00003631
 ,-0.00011063,0.00002373,-0.00002543,0.00003495,0.00002845,-0.00003001,
 0.00000230,-0.00001296,0.00000862,0.00000357,0.00002409,-0.00000275,-0
 .00000220,-0.00003871,-0.00001657,0.00000560,0.00004377,0.00002581,0.0
 0000228,-0.00002518,0.00012004,-0.00006731,0.00000236,-0.00000061,-0.0
 0000561,0.00000908,-0.00002768,0.00001304,0.00000099,0.00001083,-0.000
 02917,0.00006272,0.00003921,0.00007670,-0.00002193,-0.00002159,0.00001
 412,0.00000411,0.00000632,-0.00001095,-0.00000636,-0.00000133,-0.00000
 548,-0.00000923,0.00000607,-0.00000331,0.00002106,0.00001303,-0.000001
 48,-0.00001694,-0.00002178,-0.00000993,-0.00003622,0.00002662,-0.00002
 808,-0.00000081,-0.00000045,-0.00000144,0.00000179,-0.00000603,0.00000
 800,0.00001454,-0.00000619,0.00001120,0.00000924,-0.00000390,0.0000065
 5,0.00000823,-0.00000634,-0.00000136,0.00000492,-0.00000649,0.00000351
 ,0.00049147,0.00071087,-0.00011947,0.00162036,0.00076924,-0.00007028,-
 0.00161115,-0.00223244,0.00002967,-0.00044198,0.00022606,-0.00092178,-
 0.07732886,-0.10432993,-0.22415478,-0.00018109,0.00014983,0.00155274,-
 0.00043718,0.00029652,0.00073527,-0.00932296,-0.01334829,-0.02113554,0
 .00286983,0.00211523,0.00384843,0.08433483,0.11559196,0.24026321\\-0.0
 0000029,-0.00000044,-0.00000064,-0.00000097,-0.00000334,-0.00000095,0.
 00000028,-0.00000067,-0.00000477,-0.00000181,0.00000132,-0.00000182,-0
 .00000201,-0.00000226,-0.00000110,0.00000327,-0.00000028,-0.00000370,0
 .00000122,0.00000081,-0.00000230,-0.00000130,-0.00000043,-0.00000421,0
 .00000147,0.00000107,0.00000027,-0.00000092,0.00000039,0.00000060,-0.0
 0000106,0.00000143,0.00000162,0.00000066,0.00000054,0.00000207,-0.0000
 0322,-0.00000301,0.00000108,-0.00000103,-0.00000120,0.00000423,-0.0000
 0009,0.00000041,-0.00000282,-0.00000120,0.00000020,-0.00000337,-0.0000
 0130,-0.00000085,-0.00000150,-0.00000009,0.00000018,-0.00000127,-0.000
 00061,-0.00000055,-0.00000450,0.00000011,-0.00000023,-0.00000334,0.000
 00043,0.00000086,-0.00000420,0.00000046,-0.00000039,-0.00000180,0.0000
 0112,-0.00000277,0.00000333,-0.00000008,0.00000121,0.00000463,-0.00000
 101,-0.00000719,-0.00000669,0.00000022,0.00000010,0.00000164,0.0000030
 3,-0.00000259,-0.00000639,-0.00000553,-0.00000370,-0.00000622,0.000007
 36,0.00000026,0.00000286,-0.00000286,-0.00000018,0.00000547,-0.0000026
 4,0.00001182,-0.00000263,-0.00000800,-0.00000028,0.00000322,0.00000387
 ,-0.00000046,0.00000400,0.00000840,0.00000477,0.00000053,0.00000282,0.
 00000205,0.00000477,-0.00000015,-0.00000172,0.00000396,0.00000053,-0.0
 0000025,0.00000533,-0.00000004,0.00000075,0.00000432,-0.00000185,0.000
 00116,0.00000205,0.00000117,0.00000025,0.00000410,0.00000165,0.0000032
 3,0.00000416\\\@


 THERE IS AN OLD, OLD RECIPE IN MAINE FOR STEWING COOT. PLACE THE
 BIRD IN A KETTLE OF WATER WITH A RED BUILDING BRICK FREE OF MORTAR AND
 BLEMISHES. PARBOIL THE COOT AND BRICK TOGETHER FOR THREE HOURS.
 POUR OFF THE WATER, REFILL THE KETTLE, AND AGAIN PARBOIL FOR THREE HOURS.
 ONCE AGAIN POUR OFF THE WATER, FOR THE LAST TIME ADD FRESH WATER,
 AND LET THE COOT AND BRICK SIMMER TOGETHER OVERNIGHT. IN THE MORNING,
 THROW AWAY THE COOT AND EAT THE BRICK.
 Job cpu time:       0 days 10 hours 52 minutes 43.0 seconds.
 Elapsed time:       0 days 10 hours 54 minutes 15.1 seconds.
 File lengths (MBytes):  RWF=   1741 Int=      0 D2E=      0 Chk=     46 Scr=      1
 Normal termination of Gaussian 16 at Tue Mar 23 01:40:59 2021.
