 Entering Gaussian System, Link 0=/apps/gaussian/g16c01/g16/g16
 Initial command:
 /apps/gaussian/g16c01/g16/l1.exe "/jobfs/19479016.gadi-pbs/Gau-2781626.inp" -scrdir="/jobfs/19479016.gadi-pbs/"
 Entering Link 1 = /apps/gaussian/g16c01/g16/l1.exe PID=   2781627.
  
 Copyright (c) 1988-2019, Gaussian, Inc.  All Rights Reserved.
  
 This is part of the Gaussian(R) 16 program.  It is based on
 the Gaussian(R) 09 system (copyright 2009, Gaussian, Inc.),
 the Gaussian(R) 03 system (copyright 2003, Gaussian, Inc.),
 the Gaussian(R) 98 system (copyright 1998, Gaussian, Inc.),
 the Gaussian(R) 94 system (copyright 1995, Gaussian, Inc.),
 the Gaussian 92(TM) system (copyright 1992, Gaussian, Inc.),
 the Gaussian 90(TM) system (copyright 1990, Gaussian, Inc.),
 the Gaussian 88(TM) system (copyright 1988, Gaussian, Inc.),
 the Gaussian 86(TM) system (copyright 1986, Carnegie Mellon
 University), and the Gaussian 82(TM) system (copyright 1983,
 Carnegie Mellon University). Gaussian is a federally registered
 trademark of Gaussian, Inc.
  
 This software contains proprietary and confidential information,
 including trade secrets, belonging to Gaussian, Inc.
  
 This software is provided under written license and may be
 used, copied, transmitted, or stored only in accord with that
 written license.
  
 The following legend is applicable only to US Government
 contracts under FAR:
  
                    RESTRICTED RIGHTS LEGEND
  
 Use, reproduction and disclosure by the US Government is
 subject to restrictions as set forth in subparagraphs (a)
 and (c) of the Commercial Computer Software - Restricted
 Rights clause in FAR 52.227-19.
  
 Gaussian, Inc.
 340 Quinnipiac St., Bldg. 40, Wallingford CT 06492
  
  
 ---------------------------------------------------------------
 Warning -- This program may not be used in any manner that
 competes with the business of Gaussian, Inc. or will provide
 assistance to any competitor of Gaussian, Inc.  The licensee
 of this program is prohibited from giving any competitor of
 Gaussian, Inc. access to this program.  By using this program,
 the user acknowledges that Gaussian, Inc. is engaged in the
 business of creating and licensing software in the field of
 computational chemistry and represents and warrants to the
 licensee that it is not a competitor of Gaussian, Inc. and that
 it will not use this program in any manner prohibited above.
 ---------------------------------------------------------------
  

 Cite this work as:
 Gaussian 16, Revision C.01,
 M. J. Frisch, G. W. Trucks, H. B. Schlegel, G. E. Scuseria, 
 M. A. Robb, J. R. Cheeseman, G. Scalmani, V. Barone, 
 G. A. Petersson, H. Nakatsuji, X. Li, M. Caricato, A. V. Marenich, 
 J. Bloino, B. G. Janesko, R. Gomperts, B. Mennucci, H. P. Hratchian, 
 J. V. Ortiz, A. F. Izmaylov, J. L. Sonnenberg, D. Williams-Young, 
 F. Ding, F. Lipparini, F. Egidi, J. Goings, B. Peng, A. Petrone, 
 T. Henderson, D. Ranasinghe, V. G. Zakrzewski, J. Gao, N. Rega, 
 G. Zheng, W. Liang, M. Hada, M. Ehara, K. Toyota, R. Fukuda, 
 J. Hasegawa, M. Ishida, T. Nakajima, Y. Honda, O. Kitao, H. Nakai, 
 T. Vreven, K. Throssell, J. A. Montgomery, Jr., J. E. Peralta, 
 F. Ogliaro, M. J. Bearpark, J. J. Heyd, E. N. Brothers, K. N. Kudin, 
 V. N. Staroverov, T. A. Keith, R. Kobayashi, J. Normand, 
 K. Raghavachari, A. P. Rendell, J. C. Burant, S. S. Iyengar, 
 J. Tomasi, M. Cossi, J. M. Millam, M. Klene, C. Adamo, R. Cammi, 
 J. W. Ochterski, R. L. Martin, K. Morokuma, O. Farkas, 
 J. B. Foresman, and D. J. Fox, Gaussian, Inc., Wallingford CT, 2019.
 
 ******************************************
 Gaussian 16:  ES64L-G16RevC.01  3-Jul-2019
                22-Mar-2021 
 ******************************************
 %NprocShared=32
 Will use up to   32 processors via shared memory.
 %Mem=10000MB
 %chk=CP22CA_carboxy.M062X_6-311pGd_opt_GD3.chk
 ----------------------------------------------------------------------
 # M062X/6-311+G* SCF=Tight INT(grid=ultrafine) OPT=CalcFC IOP(2/17=4) 
 EmpiricalDispersion=GD3 MaxDisk=10000MB
 ----------------------------------------------------------------------
 1/10=4,18=20,19=15,26=4,38=1/1,3;
 2/9=110,12=2,17=4,18=5,40=1/2;
 3/5=4,6=6,7=11,11=2,25=1,30=1,71=2,74=-55,75=-5,124=31,140=1/1,2,3;
 4//1;
 5/5=2,32=2,38=5/2;
 8/6=4,10=90,11=11/1;
 11/6=1,8=1,9=11,15=111,16=1/1,2,10;
 10/6=1,13=1/2;
 6/7=2,8=2,9=2,10=2,28=1/1;
 7/10=1,25=1/1,2,3,16;
 1/10=4,18=20,19=15,26=4/3(2);
 2/9=110,17=4/2;
 99//99;
 2/9=110,17=4/2;
 3/5=4,6=6,7=11,11=2,25=1,30=1,71=1,74=-55,75=-5,124=31/1,2,3;
 4/5=5,16=3,69=1/1;
 5/5=2,32=2,38=5/2;
 7//1,2,3,16;
 1/18=20,19=15,26=4/3(-5);
 2/9=110,17=4/2;
 6/7=2,8=2,9=2,10=2,19=2,28=1/1;
 99/9=1/99;
 -------------------------------------
 CP22CA_carboxy.M062X_6-311pGd_opt_GD3
 -------------------------------------
 Symbolic Z-matrix:
 Charge = -1 Multiplicity = 1
 C                    -5.96997   1.2401    0.28809 
 N                    -4.67838   0.58155   0.22322 
 C                    -3.46733   1.22125   0.14221 
 O                    -3.39243   2.43868   0.14406 
 O                    -2.31727   0.50384   0.04587 
 C                    -1.08089   1.13131   0.02825 
 C                     0.04036   0.12534  -0.19196 
 C                     1.39833   0.82694  -0.17631 
 C                    -6.17065   2.65251   0.2834 
 C                    -7.45803   3.22004   0.34882 
 C                    -8.56793   2.36797   0.41459 
 C                    -8.39678   0.98401   0.41648 
 C                    -7.11329   0.43189   0.35475 
 H                    -4.66133  -0.587     0.24069 
 H                    -0.9267    1.66029   0.99604 
 H                    -1.05116   1.8798   -0.79716 
 H                    -0.10399  -0.37216  -1.17538 
 H                     0.01566  -0.64101   0.61099 
 H                     1.44924   1.59861  -0.97504 
 H                     2.20554   0.08528  -0.34686 
 H                     1.56746   1.31712   0.80694 
 H                    -5.3711    3.35977   0.2316 
 Cl                   -9.80007  -0.06455   0.49819 
 H                    -6.98374  -0.74554   0.35645 
 S                    -7.68093   5.03649   0.35316 
 H                    -9.56864   2.77746   0.46477 
 F                    -6.5875    5.19591  -0.95574 
 F                    -8.96612   4.90338  -0.77091 
 F                    -6.40117   5.21274   1.47817 
 F                    -8.77899   4.91398   1.66136 
 F                    -7.88924   6.7353    0.35996 
 O                    -6.71605  -2.77971   0.59903 
 O                    -4.48526  -2.66176   0.49587 
 C                    -5.49624  -3.35631   0.62456 
 C                    -5.46817  -4.86158   0.81828 
 C                    -4.10368  -5.54938   0.85724 
 H                    -6.05386  -5.32078  -0.00697 
 H                    -5.98603  -5.08844   1.77493 
 H                    -3.5586   -5.41971  -0.09985 
 H                    -4.26979  -6.6417    1.0089 
 H                    -3.48996  -5.17993   1.70392 
 
 Add virtual bond connecting atoms O32        and H24        Dist= 3.90D+00.
 Add virtual bond connecting atoms O33        and H14        Dist= 3.96D+00.

 GradGradGradGradGradGradGradGradGradGradGradGradGradGradGradGradGradGrad
 Berny optimization.
 Initialization pass.
                           ----------------------------
                           !    Initial Parameters    !
                           ! (Angstroms and Degrees)  !
 --------------------------                            --------------------------
 ! Name  Definition              Value          Derivative Info.                !
 --------------------------------------------------------------------------------
 ! R1    R(1,2)                  1.4512         calculate D2E/DX2 analytically  !
 ! R2    R(1,9)                  1.4266         calculate D2E/DX2 analytically  !
 ! R3    R(1,13)                 1.4017         calculate D2E/DX2 analytically  !
 ! R4    R(2,3)                  1.372          calculate D2E/DX2 analytically  !
 ! R5    R(2,14)                 1.1688         calculate D2E/DX2 analytically  !
 ! R6    R(3,4)                  1.2197         calculate D2E/DX2 analytically  !
 ! R7    R(3,5)                  1.3589         calculate D2E/DX2 analytically  !
 ! R8    R(5,6)                  1.3866         calculate D2E/DX2 analytically  !
 ! R9    R(6,7)                  1.5224         calculate D2E/DX2 analytically  !
 ! R10   R(6,15)                 1.1136         calculate D2E/DX2 analytically  !
 ! R11   R(6,16)                 1.1146         calculate D2E/DX2 analytically  !
 ! R12   R(7,8)                  1.5286         calculate D2E/DX2 analytically  !
 ! R13   R(7,17)                 1.1115         calculate D2E/DX2 analytically  !
 ! R14   R(7,18)                 1.1102         calculate D2E/DX2 analytically  !
 ! R15   R(8,19)                 1.1118         calculate D2E/DX2 analytically  !
 ! R16   R(8,20)                 1.1094         calculate D2E/DX2 analytically  !
 ! R17   R(8,21)                 1.1116         calculate D2E/DX2 analytically  !
 ! R18   R(9,10)                 1.4084         calculate D2E/DX2 analytically  !
 ! R19   R(9,22)                 1.0687         calculate D2E/DX2 analytically  !
 ! R20   R(10,11)                1.4008         calculate D2E/DX2 analytically  !
 ! R21   R(10,25)                1.8301         calculate D2E/DX2 analytically  !
 ! R22   R(11,12)                1.3945         calculate D2E/DX2 analytically  !
 ! R23   R(11,26)                1.0824         calculate D2E/DX2 analytically  !
 ! R24   R(12,13)                1.3986         calculate D2E/DX2 analytically  !
 ! R25   R(12,23)                1.7537         calculate D2E/DX2 analytically  !
 ! R26   R(13,24)                1.1845         calculate D2E/DX2 analytically  !
 ! R27   R(14,33)                2.0978         calculate D2E/DX2 analytically  !
 ! R28   R(24,32)                2.066          calculate D2E/DX2 analytically  !
 ! R29   R(25,27)                1.713          calculate D2E/DX2 analytically  !
 ! R30   R(25,28)                1.7126         calculate D2E/DX2 analytically  !
 ! R31   R(25,29)                1.713          calculate D2E/DX2 analytically  !
 ! R32   R(25,30)                1.7123         calculate D2E/DX2 analytically  !
 ! R33   R(25,31)                1.7115         calculate D2E/DX2 analytically  !
 ! R34   R(32,34)                1.3495         calculate D2E/DX2 analytically  !
 ! R35   R(33,34)                1.2333         calculate D2E/DX2 analytically  !
 ! R36   R(34,35)                1.5179         calculate D2E/DX2 analytically  !
 ! R37   R(35,36)                1.5285         calculate D2E/DX2 analytically  !
 ! R38   R(35,37)                1.1113         calculate D2E/DX2 analytically  !
 ! R39   R(35,38)                1.1112         calculate D2E/DX2 analytically  !
 ! R40   R(36,39)                1.109          calculate D2E/DX2 analytically  !
 ! R41   R(36,40)                1.1152         calculate D2E/DX2 analytically  !
 ! R42   R(36,41)                1.1091         calculate D2E/DX2 analytically  !
 ! A1    A(2,1,9)              125.0518         calculate D2E/DX2 analytically  !
 ! A2    A(2,1,13)             117.8012         calculate D2E/DX2 analytically  !
 ! A3    A(9,1,13)             117.1464         calculate D2E/DX2 analytically  !
 ! A4    A(1,2,3)              125.2146         calculate D2E/DX2 analytically  !
 ! A5    A(1,2,14)             117.7749         calculate D2E/DX2 analytically  !
 ! A6    A(3,2,14)             117.0105         calculate D2E/DX2 analytically  !
 ! A7    A(2,3,4)              121.2975         calculate D2E/DX2 analytically  !
 ! A8    A(2,3,5)              120.3358         calculate D2E/DX2 analytically  !
 ! A9    A(4,3,5)              118.3644         calculate D2E/DX2 analytically  !
 ! A10   A(3,5,6)              121.1064         calculate D2E/DX2 analytically  !
 ! A11   A(5,6,7)              111.0715         calculate D2E/DX2 analytically  !
 ! A12   A(5,6,15)             109.1086         calculate D2E/DX2 analytically  !
 ! A13   A(5,6,16)             109.6982         calculate D2E/DX2 analytically  !
 ! A14   A(7,6,15)             109.7307         calculate D2E/DX2 analytically  !
 ! A15   A(7,6,16)             108.4794         calculate D2E/DX2 analytically  !
 ! A16   A(15,6,16)            108.7156         calculate D2E/DX2 analytically  !
 ! A17   A(6,7,8)              110.4585         calculate D2E/DX2 analytically  !
 ! A18   A(6,7,17)             109.1528         calculate D2E/DX2 analytically  !
 ! A19   A(6,7,18)             109.5794         calculate D2E/DX2 analytically  !
 ! A20   A(8,7,17)             109.2608         calculate D2E/DX2 analytically  !
 ! A21   A(8,7,18)             109.2189         calculate D2E/DX2 analytically  !
 ! A22   A(17,7,18)            109.1497         calculate D2E/DX2 analytically  !
 ! A23   A(7,8,19)             110.6038         calculate D2E/DX2 analytically  !
 ! A24   A(7,8,20)             109.7541         calculate D2E/DX2 analytically  !
 ! A25   A(7,8,21)             110.2808         calculate D2E/DX2 analytically  !
 ! A26   A(19,8,20)            108.6784         calculate D2E/DX2 analytically  !
 ! A27   A(19,8,21)            108.8104         calculate D2E/DX2 analytically  !
 ! A28   A(20,8,21)            108.6675         calculate D2E/DX2 analytically  !
 ! A29   A(1,9,10)             121.8276         calculate D2E/DX2 analytically  !
 ! A30   A(1,9,22)             123.3748         calculate D2E/DX2 analytically  !
 ! A31   A(10,9,22)            114.7977         calculate D2E/DX2 analytically  !
 ! A32   A(9,10,11)            118.7708         calculate D2E/DX2 analytically  !
 ! A33   A(9,10,25)            120.7562         calculate D2E/DX2 analytically  !
 ! A34   A(11,10,25)           120.4728         calculate D2E/DX2 analytically  !
 ! A35   A(10,11,12)           120.4307         calculate D2E/DX2 analytically  !
 ! A36   A(10,11,26)           120.3039         calculate D2E/DX2 analytically  !
 ! A37   A(12,11,26)           119.2654         calculate D2E/DX2 analytically  !
 ! A38   A(11,12,13)           120.2891         calculate D2E/DX2 analytically  !
 ! A39   A(11,12,23)           119.6865         calculate D2E/DX2 analytically  !
 ! A40   A(13,12,23)           120.0244         calculate D2E/DX2 analytically  !
 ! A41   A(1,13,12)            121.5349         calculate D2E/DX2 analytically  !
 ! A42   A(1,13,24)            118.9461         calculate D2E/DX2 analytically  !
 ! A43   A(12,13,24)           119.519          calculate D2E/DX2 analytically  !
 ! A44   A(10,25,27)            90.7343         calculate D2E/DX2 analytically  !
 ! A45   A(10,25,28)            90.7277         calculate D2E/DX2 analytically  !
 ! A46   A(10,25,29)            90.7269         calculate D2E/DX2 analytically  !
 ! A47   A(10,25,30)            90.5102         calculate D2E/DX2 analytically  !
 ! A48   A(27,25,28)            89.1248         calculate D2E/DX2 analytically  !
 ! A49   A(27,25,29)            90.8806         calculate D2E/DX2 analytically  !
 ! A50   A(27,25,31)            89.3326         calculate D2E/DX2 analytically  !
 ! A51   A(28,25,30)            90.8399         calculate D2E/DX2 analytically  !
 ! A52   A(28,25,31)            89.3364         calculate D2E/DX2 analytically  !
 ! A53   A(29,25,30)            89.1231         calculate D2E/DX2 analytically  !
 ! A54   A(29,25,31)            89.2089         calculate D2E/DX2 analytically  !
 ! A55   A(30,25,31)            89.423          calculate D2E/DX2 analytically  !
 ! A56   A(24,32,34)           122.6863         calculate D2E/DX2 analytically  !
 ! A57   A(14,33,34)           120.0575         calculate D2E/DX2 analytically  !
 ! A58   A(32,34,33)           119.8923         calculate D2E/DX2 analytically  !
 ! A59   A(32,34,35)           116.2854         calculate D2E/DX2 analytically  !
 ! A60   A(33,34,35)           123.8222         calculate D2E/DX2 analytically  !
 ! A61   A(34,35,36)           117.7735         calculate D2E/DX2 analytically  !
 ! A62   A(34,35,37)           107.7732         calculate D2E/DX2 analytically  !
 ! A63   A(34,35,38)           107.6799         calculate D2E/DX2 analytically  !
 ! A64   A(36,35,37)           107.6662         calculate D2E/DX2 analytically  !
 ! A65   A(36,35,38)           107.5901         calculate D2E/DX2 analytically  !
 ! A66   A(37,35,38)           108.0194         calculate D2E/DX2 analytically  !
 ! A67   A(35,36,39)           111.3544         calculate D2E/DX2 analytically  !
 ! A68   A(35,36,40)           108.1335         calculate D2E/DX2 analytically  !
 ! A69   A(35,36,41)           111.318          calculate D2E/DX2 analytically  !
 ! A70   A(39,36,40)           107.7632         calculate D2E/DX2 analytically  !
 ! A71   A(39,36,41)           110.3592         calculate D2E/DX2 analytically  !
 ! A72   A(40,36,41)           107.7509         calculate D2E/DX2 analytically  !
 ! A73   L(2,14,33,7,-1)       176.5297         calculate D2E/DX2 analytically  !
 ! A74   L(13,24,32,5,-1)      179.1627         calculate D2E/DX2 analytically  !
 ! A75   L(10,25,31,27,-1)     180.0668         calculate D2E/DX2 analytically  !
 ! A76   L(27,25,30,10,-1)     181.2444         calculate D2E/DX2 analytically  !
 ! A77   L(28,25,29,10,-1)     181.4546         calculate D2E/DX2 analytically  !
 ! A78   L(2,14,33,7,-2)       173.5151         calculate D2E/DX2 analytically  !
 ! A79   L(13,24,32,5,-2)      173.2104         calculate D2E/DX2 analytically  !
 ! A80   L(10,25,31,27,-2)     180.0631         calculate D2E/DX2 analytically  !
 ! A81   L(27,25,30,10,-2)     180.0196         calculate D2E/DX2 analytically  !
 ! A82   L(28,25,29,10,-2)     180.0241         calculate D2E/DX2 analytically  !
 ! D1    D(9,1,2,3)             -0.3068         calculate D2E/DX2 analytically  !
 ! D2    D(9,1,2,14)           179.7096         calculate D2E/DX2 analytically  !
 ! D3    D(13,1,2,3)           179.3958         calculate D2E/DX2 analytically  !
 ! D4    D(13,1,2,14)           -0.5878         calculate D2E/DX2 analytically  !
 ! D5    D(2,1,9,10)           179.9885         calculate D2E/DX2 analytically  !
 ! D6    D(2,1,9,22)            -0.0594         calculate D2E/DX2 analytically  !
 ! D7    D(13,1,9,10)            0.2841         calculate D2E/DX2 analytically  !
 ! D8    D(13,1,9,22)         -179.7637         calculate D2E/DX2 analytically  !
 ! D9    D(2,1,13,12)         -179.8362         calculate D2E/DX2 analytically  !
 ! D10   D(2,1,13,24)            0.0457         calculate D2E/DX2 analytically  !
 ! D11   D(9,1,13,12)           -0.1098         calculate D2E/DX2 analytically  !
 ! D12   D(9,1,13,24)          179.7721         calculate D2E/DX2 analytically  !
 ! D13   D(1,2,3,4)              1.4143         calculate D2E/DX2 analytically  !
 ! D14   D(1,2,3,5)           -178.0158         calculate D2E/DX2 analytically  !
 ! D15   D(14,2,3,4)          -178.6019         calculate D2E/DX2 analytically  !
 ! D16   D(14,2,3,5)             1.9679         calculate D2E/DX2 analytically  !
 ! D17   D(1,2,33,34)            1.6575         calculate D2E/DX2 analytically  !
 ! D18   D(3,2,33,34)          177.4326         calculate D2E/DX2 analytically  !
 ! D19   D(2,3,5,6)           -176.8484         calculate D2E/DX2 analytically  !
 ! D20   D(4,3,5,6)              3.705          calculate D2E/DX2 analytically  !
 ! D21   D(3,5,6,7)           -175.6749         calculate D2E/DX2 analytically  !
 ! D22   D(3,5,6,15)            63.2357         calculate D2E/DX2 analytically  !
 ! D23   D(3,5,6,16)           -55.7587         calculate D2E/DX2 analytically  !
 ! D24   D(5,6,7,8)           -178.6792         calculate D2E/DX2 analytically  !
 ! D25   D(5,6,7,17)            61.1702         calculate D2E/DX2 analytically  !
 ! D26   D(5,6,7,18)           -58.3087         calculate D2E/DX2 analytically  !
 ! D27   D(15,6,7,8)           -57.9562         calculate D2E/DX2 analytically  !
 ! D28   D(15,6,7,17)         -178.1068         calculate D2E/DX2 analytically  !
 ! D29   D(15,6,7,18)           62.4143         calculate D2E/DX2 analytically  !
 ! D30   D(16,6,7,8)            60.6821         calculate D2E/DX2 analytically  !
 ! D31   D(16,6,7,17)          -59.4685         calculate D2E/DX2 analytically  !
 ! D32   D(16,6,7,18)         -178.9474         calculate D2E/DX2 analytically  !
 ! D33   D(6,7,8,19)           -59.5842         calculate D2E/DX2 analytically  !
 ! D34   D(6,7,8,20)          -179.4879         calculate D2E/DX2 analytically  !
 ! D35   D(6,7,8,21)            60.8244         calculate D2E/DX2 analytically  !
 ! D36   D(17,7,8,19)           60.5016         calculate D2E/DX2 analytically  !
 ! D37   D(17,7,8,20)          -59.4022         calculate D2E/DX2 analytically  !
 ! D38   D(17,7,8,21)         -179.0898         calculate D2E/DX2 analytically  !
 ! D39   D(18,7,8,19)          179.8296         calculate D2E/DX2 analytically  !
 ! D40   D(18,7,8,20)           59.9259         calculate D2E/DX2 analytically  !
 ! D41   D(18,7,8,21)          -59.7618         calculate D2E/DX2 analytically  !
 ! D42   D(1,9,10,11)           -0.2662         calculate D2E/DX2 analytically  !
 ! D43   D(1,9,10,25)          179.5514         calculate D2E/DX2 analytically  !
 ! D44   D(22,9,10,11)         179.7778         calculate D2E/DX2 analytically  !
 ! D45   D(22,9,10,25)          -0.4046         calculate D2E/DX2 analytically  !
 ! D46   D(9,10,11,12)           0.0689         calculate D2E/DX2 analytically  !
 ! D47   D(9,10,11,26)        -179.9453         calculate D2E/DX2 analytically  !
 ! D48   D(25,10,11,12)       -179.7492         calculate D2E/DX2 analytically  !
 ! D49   D(25,10,11,26)          0.2366         calculate D2E/DX2 analytically  !
 ! D50   D(9,10,25,27)          46.8196         calculate D2E/DX2 analytically  !
 ! D51   D(9,10,25,28)         135.9535         calculate D2E/DX2 analytically  !
 ! D52   D(9,10,25,29)         -44.0705         calculate D2E/DX2 analytically  !
 ! D53   D(9,10,25,30)        -133.2            calculate D2E/DX2 analytically  !
 ! D54   D(11,10,25,27)       -133.3659         calculate D2E/DX2 analytically  !
 ! D55   D(11,10,25,28)        -44.232          calculate D2E/DX2 analytically  !
 ! D56   D(11,10,25,29)        135.7439         calculate D2E/DX2 analytically  !
 ! D57   D(11,10,25,30)         46.6145         calculate D2E/DX2 analytically  !
 ! D58   D(10,11,12,13)          0.1004         calculate D2E/DX2 analytically  !
 ! D59   D(10,11,12,23)       -179.9543         calculate D2E/DX2 analytically  !
 ! D60   D(26,11,12,13)       -179.8856         calculate D2E/DX2 analytically  !
 ! D61   D(26,11,12,23)          0.0597         calculate D2E/DX2 analytically  !
 ! D62   D(11,12,13,1)          -0.078          calculate D2E/DX2 analytically  !
 ! D63   D(11,12,13,24)       -179.9593         calculate D2E/DX2 analytically  !
 ! D64   D(23,12,13,1)         179.9768         calculate D2E/DX2 analytically  !
 ! D65   D(23,12,13,24)          0.0956         calculate D2E/DX2 analytically  !
 ! D66   D(1,13,32,34)          -0.6783         calculate D2E/DX2 analytically  !
 ! D67   D(12,13,32,34)       -176.0208         calculate D2E/DX2 analytically  !
 ! D68   D(24,32,34,33)         -0.2233         calculate D2E/DX2 analytically  !
 ! D69   D(24,32,34,35)        179.6749         calculate D2E/DX2 analytically  !
 ! D70   D(14,33,34,32)          0.0952         calculate D2E/DX2 analytically  !
 ! D71   D(14,33,34,35)       -179.795          calculate D2E/DX2 analytically  !
 ! D72   D(32,34,35,36)       -179.796          calculate D2E/DX2 analytically  !
 ! D73   D(32,34,35,37)         58.2668         calculate D2E/DX2 analytically  !
 ! D74   D(32,34,35,38)        -58.0364         calculate D2E/DX2 analytically  !
 ! D75   D(33,34,35,36)          0.0978         calculate D2E/DX2 analytically  !
 ! D76   D(33,34,35,37)       -121.8394         calculate D2E/DX2 analytically  !
 ! D77   D(33,34,35,38)        121.8573         calculate D2E/DX2 analytically  !
 ! D78   D(34,35,36,39)        -62.0155         calculate D2E/DX2 analytically  !
 ! D79   D(34,35,36,40)        179.7724         calculate D2E/DX2 analytically  !
 ! D80   D(34,35,36,41)         61.5964         calculate D2E/DX2 analytically  !
 ! D81   D(37,35,36,39)         59.9765         calculate D2E/DX2 analytically  !
 ! D82   D(37,35,36,40)        -58.2355         calculate D2E/DX2 analytically  !
 ! D83   D(37,35,36,41)       -176.4115         calculate D2E/DX2 analytically  !
 ! D84   D(38,35,36,39)        176.1789         calculate D2E/DX2 analytically  !
 ! D85   D(38,35,36,40)         57.9668         calculate D2E/DX2 analytically  !
 ! D86   D(38,35,36,41)        -60.2091         calculate D2E/DX2 analytically  !
 --------------------------------------------------------------------------------
 Trust Radius=3.00D-01 FncErr=1.00D-07 GrdErr=1.00D-06 EigMax=2.50D+02 EigMin=1.00D-04
 Number of steps in this run=    220 maximum allowed number of steps=    246.
 GradGradGradGradGradGradGradGradGradGradGradGradGradGradGradGradGradGrad

                          Input orientation:                          
 ---------------------------------------------------------------------
 Center     Atomic      Atomic             Coordinates (Angstroms)
 Number     Number       Type             X           Y           Z
 ---------------------------------------------------------------------
      1          6           0       -5.969970    1.240100    0.288090
      2          7           0       -4.678380    0.581550    0.223220
      3          6           0       -3.467330    1.221250    0.142210
      4          8           0       -3.392430    2.438680    0.144060
      5          8           0       -2.317270    0.503840    0.045870
      6          6           0       -1.080890    1.131310    0.028250
      7          6           0        0.040360    0.125340   -0.191960
      8          6           0        1.398330    0.826940   -0.176310
      9          6           0       -6.170650    2.652510    0.283400
     10          6           0       -7.458030    3.220040    0.348820
     11          6           0       -8.567930    2.367970    0.414590
     12          6           0       -8.396780    0.984010    0.416480
     13          6           0       -7.113290    0.431890    0.354750
     14          1           0       -4.661330   -0.587000    0.240690
     15          1           0       -0.926700    1.660290    0.996040
     16          1           0       -1.051160    1.879800   -0.797160
     17          1           0       -0.103990   -0.372160   -1.175380
     18          1           0        0.015660   -0.641010    0.610990
     19          1           0        1.449240    1.598610   -0.975040
     20          1           0        2.205540    0.085280   -0.346860
     21          1           0        1.567460    1.317120    0.806940
     22          1           0       -5.371100    3.359770    0.231600
     23         17           0       -9.800070   -0.064550    0.498190
     24          1           0       -6.983740   -0.745540    0.356450
     25         16           0       -7.680930    5.036490    0.353160
     26          1           0       -9.568640    2.777460    0.464770
     27          9           0       -6.587500    5.195910   -0.955740
     28          9           0       -8.966120    4.903380   -0.770910
     29          9           0       -6.401170    5.212740    1.478170
     30          9           0       -8.778990    4.913980    1.661360
     31          9           0       -7.889240    6.735300    0.359960
     32          8           0       -6.716050   -2.779710    0.599030
     33          8           0       -4.485260   -2.661760    0.495870
     34          6           0       -5.496240   -3.356310    0.624560
     35          6           0       -5.468170   -4.861580    0.818280
     36          6           0       -4.103680   -5.549380    0.857240
     37          1           0       -6.053860   -5.320780   -0.006970
     38          1           0       -5.986030   -5.088440    1.774930
     39          1           0       -3.558600   -5.419710   -0.099850
     40          1           0       -4.269790   -6.641700    1.008900
     41          1           0       -3.489960   -5.179930    1.703920
 ---------------------------------------------------------------------
                    Distance matrix (angstroms):
                    1          2          3          4          5
     1  C    0.000000
     2  N    1.451241   0.000000
     3  C    2.506959   1.372013   0.000000
     4  O    2.846235   2.260280   1.219733   0.000000
     5  O    3.734028   2.369036   1.358895   2.215675   0.000000
     6  C    4.897189   3.644473   2.390852   2.658166   1.386602
     7  C    6.131656   4.758887   3.690065   4.153131   2.399634
     8  C    7.394472   6.094772   4.891992   5.064753   3.736234
     9  C    1.426603   2.553305   3.062087   2.789919   4.418341
    10  C    2.477534   3.834561   4.468057   4.145064   5.822107
    11  C    2.835047   4.284451   5.235005   5.183048   6.533122
    12  C    2.443660   3.745106   4.942771   5.218601   6.109694
    13  C    1.401723   2.443048   3.736481   4.232776   4.806495
    14  H    2.247906   1.168805   2.169125   3.282405   2.592779
    15  H    5.110022   3.979451   2.715986   2.722423   2.043009
    16  H    5.077566   3.985392   2.674693   2.584528   2.051097
    17  H    6.257064   4.877570   3.948044   4.522785   2.675338
    18  H    6.282564   4.866110   3.977309   4.617098   2.659437
    19  H    7.534501   6.325975   5.056017   5.039828   4.053070
    20  H    8.281047   6.925289   5.806124   6.092353   4.559083
    21  H    7.555659   6.316036   5.079387   5.128140   4.041260
    22  H    2.203370   2.863291   2.864542   2.184309   4.185297
    23  Cl   4.051656   5.169600   6.471754   6.888354   7.517976
    24  H    2.230509   2.663382   4.034762   4.804360   4.840801
    25  S    4.164636   5.373889   5.688144   5.018324   7.029096
    26  H    3.917284   5.366098   6.304904   6.193803   7.610992
    27  F    4.192480   5.130985   5.170965   4.361233   6.422897
    28  F    4.849538   6.168567   6.680461   6.162624   8.014380
    29  F    4.169424   5.098120   5.130711   4.304390   6.395581
    30  F    4.824299   6.136220   6.645134   6.119178   7.988302
    31  F    5.821167   6.942403   7.071453   6.223251   8.365201
    32  O    4.100267   3.948595   5.174026   6.203631   5.516969
    33  O    4.179958   3.260474   4.029767   5.228053   3.863121
    34  C    4.632992   4.041870   5.030228   6.183753   5.034033
    35  C    6.145194   5.532226   6.439041   7.619519   6.269970
    36  C    7.064277   6.190361   6.837956   8.051311   6.363258
    37  H    6.568047   6.064852   7.036373   8.204586   6.920339
    38  H    6.500875   6.022171   6.987261   8.126748   6.908187
    39  H    7.093537   6.113379   6.645997   7.863930   6.053972
    40  H    8.095242   7.277333   7.951168   9.163570   7.469840
    41  H    7.026508   6.066256   6.588972   7.777268   6.035692
                    6          7          8          9         10
     6  C    0.000000
     7  C    1.522389   0.000000
     8  C    2.506196   1.528584   0.000000
     9  C    5.318346   6.722291   7.799583   0.000000
    10  C    6.718145   8.129912   9.189004   1.408445   0.000000
    11  C    7.598313   8.916274  10.101994   2.417669   1.400795
    12  C    7.327664   8.502520   9.814288   2.785185   2.426038
    13  C    6.081582   7.181057   8.537316   2.413465   2.809388
    14  H    3.977093   4.774987   6.236393   3.574115   4.725122
    15  H    1.113648   2.168553   2.733979   5.384363   6.746109
    16  H    1.114640   2.153094   2.737512   5.289033   6.645111
    17  H    2.159509   1.111512   2.166321   6.934049   8.325202
    18  H    2.164053   1.110239   2.164831   7.016054   8.416204
    19  H    2.761615   2.183731   1.111772   7.794684   9.149923
    20  H    3.469223   2.171083   1.109385   8.783419  10.183088
    21  H    2.766702   2.179490   1.111603   7.869924   9.235283
    22  H    4.838728   6.318611   7.239254   1.068728   2.094885
    23  Cl   8.813344   9.866429  11.254060   4.538859   4.036830
    24  H    6.202735   7.099096   8.544918   3.494738   3.993850
    25  S    7.675710   9.167053  10.021657   2.822972   1.830080
    26  H    8.656920   9.989891  11.157506   3.405120   2.159629
    27  F    6.914620   8.379891   9.136131   2.859740   2.522650
    28  F    8.777472  10.211833  11.153149   3.740673   2.522254
    29  F    6.860446   8.376412   9.099711   2.834677   2.522546
    30  F    8.731345  10.205234  11.120196   3.717050   2.517366
    31  F    8.824305  10.338024  11.020674   4.430416   3.541627
    32  O    6.883088   7.396895   8.913599   5.468647   6.050631
    33  O    5.118182   5.359316   6.873099   5.579171   6.592007
    34  C    6.323736   6.591095   8.104077   6.056165   6.868263
    35  C    7.469076   7.498924   8.972028   7.565786   8.336217
    36  C    7.379438   7.104670   8.485152   8.477774   9.402812
    37  H    8.146234   8.175204   9.662208   7.979430   8.662787
    38  H    8.111509   8.207895   9.660633   7.885496   8.557535
    39  H    7.005092   6.611246   7.974813   8.492963   9.489581
    40  H    8.458749   8.112477   9.450550   9.514303  10.385302
    41  H    6.960118   6.648565   7.969513   8.399470   9.388364
                   11         12         13         14         15
    11  C    0.000000
    12  C    1.394504   0.000000
    13  C    2.422388   1.398568   0.000000
    14  H    4.901389   4.056176   2.657678   0.000000
    15  H    7.695927   7.522987   6.339883   4.423610   0.000000
    16  H    7.629448   7.498900   6.338198   4.493947   1.810868
    17  H    9.037400   8.552402   7.219285   4.777108   3.085899
    18  H    9.097832   8.570162   7.213786   4.691937   2.516404
    19  H   10.142321   9.962840   8.743369   6.602572   3.087726
    20  H   11.038937  10.667689   9.351630   6.924672   3.754326
    21  H   10.197272   9.977450   8.737478   6.537900   2.524749
    22  H    3.352145   3.851384   3.409234   4.010093   4.819263
    23  Cl   2.728060   1.753675   2.736022   5.171645   9.053155
    24  H    3.493849   2.234195   1.184537   2.330692   6.548651
    25  S    2.812746   4.115707   4.639457   6.383907   7.578367
    26  H    1.082414   2.142907   3.397432   5.954116   8.730031
    27  F    3.714452   4.785037   4.968876   6.211572   6.953755
    28  F    2.827060   4.134671   4.969337   7.049739   8.847148
    29  F    3.730786   4.794977   4.962430   6.180241   6.543865
    30  F    2.842736   4.140106   4.956906   7.016709   8.525703
    31  F    4.420088   5.773918   6.350992   8.003106   8.639287
    32  O    5.473764   4.125987   3.245281   3.026262   7.306695
    33  O    6.478656   5.347703   4.061666   2.097796   5.620822
    34  C    6.499750   5.224443   4.127724   2.917792   6.795952
    35  C    7.876412   6.550505   5.562563   4.388238   7.949298
    36  C    9.099994   7.830081   6.714599   5.031533   7.879836
    37  H    8.100317   6.739359   5.860584   4.940562   8.719469
    38  H    8.007171   6.673211   5.810479   4.936769   8.470469
    39  H    9.273942   8.042525   6.861757   4.968608   7.632449
    40  H   10.000068   8.691056   7.651737   6.115786   8.949830
    41  H    9.187978   7.983016   6.814786   4.960661   7.338938
                   16         17         18         19         20
    16  H    0.000000
    17  H    2.472146   0.000000
    18  H    3.078226   1.810446   0.000000
    19  H    2.522441   2.517259   3.096214   0.000000
    20  H    3.745553   2.495922   2.498109   1.804652   0.000000
    21  H    3.122005   3.094674   2.506143   1.807945   1.804392
    22  H    4.680870   6.606765   6.720667   7.146657   8.274199
    23  Cl   9.055488   9.844259   9.833290  11.466625  12.036247
    24  H    6.589289   7.058107   7.004807   8.853421   9.253528
    25  S    7.432481   9.433978   9.567548   9.845971  11.079115
    26  H    8.657120  10.108897  10.176744  11.173917  12.105284
    27  F    6.455447   8.549126   8.951313   8.805120  10.188564
    28  F    8.472858  10.321447  10.645294  10.928993  12.173738
    29  F    6.701360   8.825356   8.728923   8.983825  10.183174
    30  F    8.658518  10.547322  10.455002  11.070636  12.165903
    31  F    8.466058  10.652858  10.814824  10.741276  12.108961
    32  O    7.466683   7.257008   7.063292   9.397837   9.417943
    33  O    5.838727   5.218321   4.935075   7.452021   7.281705
    34  C    7.014048   6.420381   6.144435   8.680417   8.491502
    35  C    8.219844   7.273514   6.923046   9.633307   9.204064
    36  C    8.200465   6.850742   6.412620   9.235038   8.544326
    37  H    8.803395   7.826556   7.689031  10.252396   9.877181
    38  H    8.917677   8.096050   7.560071  10.371220   9.918225
    39  H    7.749603   6.210383   6.009709   8.666097   7.974412
    40  H    9.286409   7.837863   7.384558  10.224775   9.435054
    41  H    7.876734   6.547504   5.838293   8.804608   8.022896
                   21         22         23         24         25
    21  H    0.000000
    22  H    7.255829   0.000000
    23  Cl  11.455351   5.604713   0.000000
    24  H    8.807981   4.412456   2.900957   0.000000
    25  S    9.978594   2.856831   5.525613   5.823912   0.000000
    26  H   11.236654   4.244148   2.851613   4.370923   2.946035
    27  F    9.200838   2.502162   6.333005   6.097514   1.712957
    28  F   11.238647   4.038803   5.194845   6.091885   1.712590
    29  F    8.895250   2.459366   6.353162   6.090874   1.713037
    30  F   10.987104   4.009177   5.213572   6.079135   1.712347
    31  F   10.908054   4.213278   7.064583   7.535444   1.711547
    32  O    9.243581   6.295801   4.110163   2.065999   7.879367
    33  O    7.250081   6.092075   5.915464   3.151784   8.336410
    34  C    8.471722   6.728730   5.419834   3.016730   8.676729
    35  C    9.363576   8.242828   6.471423   4.410445  10.153050
    36  C    8.905795   9.020573   7.915879   5.623381  11.185323
    37  H   10.139462   8.710627   6.474352   4.682902  10.490476
    38  H    9.951051   8.610009   6.435560   4.676354  10.363799
    39  H    8.513732   8.970746   8.245686   5.812715  11.248597
    40  H    9.872036  10.091902   8.608352   6.523490  12.183841
    41  H    8.282133   8.867519   8.212088   5.803963  11.124928
                   26         27         28         29         30
    26  H    0.000000
    27  F    4.093158   0.000000
    28  F    2.531693   2.403657   0.000000
    29  F    4.121945   2.441090   3.425352   0.000000
    30  F    2.572954   3.425102   2.439481   2.403507   0.000000
    31  F    4.300682   2.407346   2.407170   2.404773   2.408839
    32  O    6.247994   8.126767   8.122156   8.046819   8.035990
    33  O    7.444920   8.262540   8.883365   8.163539   8.785575
    34  C    7.364313   8.765196   9.066967   8.658878   8.958186
    35  C    8.677197  10.273906  10.493599  10.138928  10.355380
    36  C    9.967752  11.176650  11.642783  11.022125  11.488561
    37  H    8.840685  10.572876  10.658251  10.643369  10.721939
    38  H    8.742082  10.657682  10.733066  10.313812  10.385660
    39  H   10.180028  11.072406  11.672951  11.118424  11.710657
    40  H   10.821020  12.221317  12.590159  12.053661  12.421446
    41  H   10.089891  11.150184  11.738239  10.795077  11.395730
                   31         32         33         34         35
    31  F    0.000000
    32  O    9.590044   0.000000
    33  O    9.995513   2.236287   0.000000
    34  C   10.374828   1.349465   1.233305   0.000000
    35  C   11.855769   2.437100   2.430899   1.517944   0.000000
    36  C   12.864335   3.816048   2.935054   2.608241   1.528535
    37  H   12.200505   2.694952   3.127897   2.137501   1.111276
    38  H   12.059236   2.691822   3.126832   2.136240   1.111226
    39  H   12.911628   4.174629   2.969826   2.921787   2.191102
    40  H   13.873200   4.589896   4.018650   3.527844   2.154363
    41  H   12.772337   4.170071   2.964994   2.918179   2.190667
                   36         37         38         39         40
    36  C    0.000000
    37  H    2.145302   0.000000
    38  H    2.144263   1.798263   0.000000
    39  H    1.109030   2.498947   3.084956   0.000000
    40  H    1.115238   2.441255   2.438216   1.796769   0.000000
    41  H    1.109059   3.085542   2.498755   1.820932   1.796652
                   41
    41  H    0.000000
 Stoichiometry    C13H16ClF5NO4S(1-)
 Framework group  C1[X(C13H16ClF5NO4S)]
 Deg. of freedom   117
 Full point group                 C1      NOp   1
 Largest Abelian subgroup         C1      NOp   1
 Largest concise Abelian subgroup C1      NOp   1
                         Standard orientation:                         
 ---------------------------------------------------------------------
 Center     Atomic      Atomic             Coordinates (Angstroms)
 Number     Number       Type             X           Y           Z
 ---------------------------------------------------------------------
      1          6           0        0.011907   -0.218020   -0.072391
      2          7           0        1.305213    0.440304   -0.080687
      3          6           0        1.502361    1.797544   -0.042559
      4          8           0        0.563138    2.572503    0.028481
      5          8           0        2.759747    2.310184   -0.095255
      6          6           0        2.981766    3.675059    0.007158
      7          6           0        4.455138    4.005955   -0.186109
      8          6           0        4.688988    5.509278   -0.038105
      9          6           0       -1.247279    0.450248   -0.017023
     10          6           0       -2.464581   -0.258182   -0.012662
     11          6           0       -2.430571   -1.657390   -0.070003
     12          6           0       -1.211777   -2.332469   -0.128745
     13          6           0       -0.009212   -1.618445   -0.128894
     14          1           0        2.259178   -0.233660   -0.123444
     15          1           0        2.646277    4.024762    1.009838
     16          1           0        2.393934    4.210956   -0.773669
     17          1           0        4.770985    3.684027   -1.202013
     18          1           0        5.060341    3.465591    0.571760
     19          1           0        4.094944    6.073486   -0.789647
     20          1           0        5.763776    5.738310   -0.190127
     21          1           0        4.393662    5.846863    0.978990
     22          1           0       -1.347264    1.513467    0.024788
     23         17           0       -1.191998   -4.084537   -0.201174
     24          1           0        1.018232   -2.205712   -0.179909
     25         16           0       -4.063221    0.628658    0.071353
     26          1           0       -3.351232   -2.226602   -0.068946
     27          9           0       -3.548604    1.717055   -1.147164
     28          9           0       -4.714392   -0.384969   -1.145817
     29          9           0       -3.450097    1.663163    1.291342
     30          9           0       -4.610383   -0.441731    1.290784
     31          9           0       -5.558234    1.457946    0.152668
     32          8           0        2.819370   -3.206032   -0.026237
     33          8           0        4.039102   -1.332645    0.034199
     34          6           0        4.004249   -2.565286    0.054769
     35          6           0        5.236860   -3.443573    0.170676
     36          6           0        6.596865   -2.752879    0.269404
     37          1           0        5.261737   -4.112038   -0.716719
     38          1           0        5.115702   -4.077491    1.075271
     39          1           0        6.812574   -2.154087   -0.638817
     40          1           0        7.381403   -3.541250    0.351431
     41          1           0        6.661028   -2.116440    1.175407
 ---------------------------------------------------------------------
 Rotational constants (GHZ):           0.1872449           0.0950403           0.0650965
 Standard basis: 6-311+G(d) (5D, 7F)
 There are   639 symmetry adapted cartesian basis functions of A   symmetry.
 There are   614 symmetry adapted basis functions of A   symmetry.
   614 basis functions,  1011 primitive gaussians,   639 cartesian basis functions
   106 alpha electrons      106 beta electrons
       nuclear repulsion energy      2667.1518059473 Hartrees.
 NAtoms=   41 NActive=   41 NUniq=   41 SFac= 1.00D+00 NAtFMM=   60 NAOKFM=F Big=F
 Integral buffers will be    131072 words long.
 Raffenetti 2 integral format.
 Two-electron integral symmetry is turned on.
 Nuclear repulsion after empirical dispersion term =     2667.1493968162 Hartrees.
 One-electron integrals computed using PRISM.
 NBasis=   614 RedAO= T EigKep=  2.45D-06  NBF=   614
 NBsUse=   610 1.00D-06 EigRej=  9.96D-07 NBFU=   610
 ExpMin= 4.05D-02 ExpMax= 1.06D+05 ExpMxC= 3.62D+03 IAcc=3 IRadAn=         5 AccDes= 0.00D+00
 Harris functional with IExCor= 1009 and IRadAn=       5 diagonalized for initial guess.
 HarFok:  IExCor= 1009 AccDes= 0.00D+00 IRadAn=         5 IDoV= 1 UseB2=F ITyADJ=14
 ICtDFT=  3500011 ScaDFX=  1.000000  1.000000  1.000000  1.000000
 FoFCou: FMM=F IPFlag=           0 FMFlag=      100000 FMFlg1=           0
         NFxFlg=           0 DoJE=T BraDBF=F KetDBF=T FulRan=T
         wScrn=  0.000000 ICntrl=       500 IOpCl=  0 I1Cent=   200000004 NGrid=           0
         NMat0=    1 NMatS0=      1 NMatT0=    0 NMatD0=    1 NMtDS0=    0 NMtDT0=    0
 Petite list used in FoFCou.
 Requested convergence on RMS density matrix=1.00D-08 within 128 cycles.
 Requested convergence on MAX density matrix=1.00D-06.
 Requested convergence on             energy=1.00D-06.
 No special actions if energy rises.
 SCF Done:  E(RM062X) =  -2218.06466550     A.U. after   17 cycles
            NFock= 17  Conv=0.28D-08     -V/T= 2.0034
 DoSCS=F DFT=T ScalE2(SS,OS)=  1.000000  1.000000
 Range of M.O.s used for correlation:     1   610
 NBasis=   614 NAE=   106 NBE=   106 NFC=     0 NFV=     0
 NROrb=    610 NOA=   106 NOB=   106 NVA=   504 NVB=   504

 **** Warning!!: The largest alpha MO coefficient is  0.12814598D+03

 Symmetrizing basis deriv contribution to polar:
 IMax=3 JMax=2 DiffMx= 0.00D+00
 G2DrvN: will do    42 centers at a time, making    1 passes.
 Calling FoFCou, ICntrl=  3107 FMM=F I1Cent=   0 AccDes= 0.00D+00.
 End of G2Drv F.D. properties file   721 does not exist.
 End of G2Drv F.D. properties file   722 does not exist.
 End of G2Drv F.D. properties file   788 does not exist.
          IDoAtm=11111111111111111111111111111111111111111
          Differentiating once with respect to nuclear coordinates.
 CalDSu exits because no D1Ps are significant.
          There are   126 degrees of freedom in the 1st order CPHF.  IDoFFX=6 NUNeed=     0.
    120 vectors produced by pass  0 Test12= 5.34D-14 1.00D-09 XBig12= 2.74D-01 1.34D-01.
 AX will form    64 AO Fock derivatives at one time.
    120 vectors produced by pass  1 Test12= 5.34D-14 1.00D-09 XBig12= 4.29D-02 4.99D-02.
    120 vectors produced by pass  2 Test12= 5.34D-14 1.00D-09 XBig12= 1.71D-03 8.25D-03.
    120 vectors produced by pass  3 Test12= 5.34D-14 1.00D-09 XBig12= 1.91D-05 6.74D-04.
    120 vectors produced by pass  4 Test12= 5.34D-14 1.00D-09 XBig12= 1.91D-07 5.62D-05.
    120 vectors produced by pass  5 Test12= 5.34D-14 1.00D-09 XBig12= 1.29D-09 3.89D-06.
    105 vectors produced by pass  6 Test12= 5.34D-14 1.00D-09 XBig12= 7.35D-12 3.72D-07.
     44 vectors produced by pass  7 Test12= 5.34D-14 1.00D-09 XBig12= 3.27D-14 2.91D-08.
      2 vectors produced by pass  8 Test12= 5.34D-14 1.00D-09 XBig12= 1.38D-16 1.31D-09.
 InvSVY:  IOpt=1 It=  1 EMax= 1.22D-15
 Solved reduced A of dimension   871 with   126 vectors.
 End of Minotr F.D. properties file   721 does not exist.
 End of Minotr F.D. properties file   722 does not exist.
 End of Minotr F.D. properties file   788 does not exist.

 **********************************************************************

            Population analysis using the SCF Density.

 **********************************************************************

 Orbital symmetries:
       Occupied  (A) (A) (A) (A) (A) (A) (A) (A) (A) (A) (A) (A)
                 (A) (A) (A) (A) (A) (A) (A) (A) (A) (A) (A) (A)
                 (A) (A) (A) (A) (A) (A) (A) (A) (A) (A) (A) (A)
                 (A) (A) (A) (A) (A) (A) (A) (A) (A) (A) (A) (A)
                 (A) (A) (A) (A) (A) (A) (A) (A) (A) (A) (A) (A)
                 (A) (A) (A) (A) (A) (A) (A) (A) (A) (A) (A) (A)
                 (A) (A) (A) (A) (A) (A) (A) (A) (A) (A) (A) (A)
                 (A) (A) (A) (A) (A) (A) (A) (A) (A) (A) (A) (A)
                 (A) (A) (A) (A) (A) (A) (A) (A) (A) (A)
       Virtual   (A) (A) (A) (A) (A) (A) (A) (A) (A) (A) (A) (A)
                 (A) (A) (A) (A) (A) (A) (A) (A) (A) (A) (A) (A)
                 (A) (A) (A) (A) (A) (A) (A) (A) (A) (A) (A) (A)
                 (A) (A) (A) (A) (A) (A) (A) (A) (A) (A) (A) (A)
                 (A) (A) (A) (A) (A) (A) (A) (A) (A) (A) (A) (A)
                 (A) (A) (A) (A) (A) (A) (A) (A) (A) (A) (A) (A)
                 (A) (A) (A) (A) (A) (A) (A) (A) (A) (A) (A) (A)
                 (A) (A) (A) (A) (A) (A) (A) (A) (A) (A) (A) (A)
                 (A) (A) (A) (A) (A) (A) (A) (A) (A) (A) (A) (A)
                 (A) (A) (A) (A) (A) (A) (A) (A) (A) (A) (A) (A)
                 (A) (A) (A) (A) (A) (A) (A) (A) (A) (A) (A) (A)
                 (A) (A) (A) (A) (A) (A) (A) (A) (A) (A) (A) (A)
                 (A) (A) (A) (A) (A) (A) (A) (A) (A) (A) (A) (A)
                 (A) (A) (A) (A) (A) (A) (A) (A) (A) (A) (A) (A)
                 (A) (A) (A) (A) (A) (A) (A) (A) (A) (A) (A) (A)
                 (A) (A) (A) (A) (A) (A) (A) (A) (A) (A) (A) (A)
                 (A) (A) (A) (A) (A) (A) (A) (A) (A) (A) (A) (A)
                 (A) (A) (A) (A) (A) (A) (A) (A) (A) (A) (A) (A)
                 (A) (A) (A) (A) (A) (A) (A) (A) (A) (A) (A) (A)
                 (A) (A) (A) (A) (A) (A) (A) (A) (A) (A) (A) (A)
                 (A) (A) (A) (A) (A) (A) (A) (A) (A) (A) (A) (A)
                 (A) (A) (A) (A) (A) (A) (A) (A) (A) (A) (A) (A)
                 (A) (A) (A) (A) (A) (A) (A) (A) (A) (A) (A) (A)
                 (A) (A) (A) (A) (A) (A) (A) (A) (A) (A) (A) (A)
                 (A) (A) (A) (A) (A) (A) (A) (A) (A) (A) (A) (A)
                 (A) (A) (A) (A) (A) (A) (A) (A) (A) (A) (A) (A)
                 (A) (A) (A) (A) (A) (A) (A) (A) (A) (A) (A) (A)
                 (A) (A) (A) (A) (A) (A) (A) (A) (A) (A) (A) (A)
                 (A) (A) (A) (A) (A) (A) (A) (A) (A) (A) (A) (A)
                 (A) (A) (A) (A) (A) (A) (A) (A) (A) (A) (A) (A)
                 (A) (A) (A) (A) (A) (A) (A) (A) (A) (A) (A) (A)
                 (A) (A) (A) (A) (A) (A) (A) (A) (A) (A) (A) (A)
                 (A) (A) (A) (A) (A) (A) (A) (A) (A) (A) (A) (A)
                 (A) (A) (A) (A) (A) (A) (A) (A) (A) (A) (A) (A)
                 (A) (A) (A) (A) (A) (A) (A) (A) (A) (A) (A) (A)
                 (A) (A) (A) (A) (A) (A) (A) (A) (A) (A) (A) (A)
                 (A) (A) (A) (A) (A) (A) (A) (A) (A) (A) (A) (A)
                 (A) (A) (A) (A) (A) (A) (A) (A) (A) (A) (A) (A)
                 (A) (A) (A) (A) (A) (A) (A) (A) (A) (A) (A) (A)
                 (A) (A) (A) (A) (A) (A) (A) (A) (A) (A) (A) (A)
                 (A) (A) (A) (A) (A) (A) (A) (A) (A) (A) (A) (A)
                 (A) (A) (A) (A) (A) (A) (A) (A) (A) (A) (A) (A)
 The electronic state is 1-A.
 Alpha  occ. eigenvalues -- -102.59096 -90.20972 -25.22540 -25.20593 -25.20547
 Alpha  occ. eigenvalues --  -25.20289 -25.20269 -19.57532 -19.50294 -19.43597
 Alpha  occ. eigenvalues --  -19.40257 -14.70334 -10.61191 -10.53360 -10.53327
 Alpha  occ. eigenvalues --  -10.53158 -10.51799 -10.49123 -10.49111 -10.48509
 Alpha  occ. eigenvalues --  -10.47288 -10.47218 -10.46943 -10.42286 -10.41887
 Alpha  occ. eigenvalues --   -9.73317  -8.53173  -7.45843  -7.45152  -7.45133
 Alpha  occ. eigenvalues --   -6.45513  -6.45499  -6.45106  -1.36725  -1.29159
 Alpha  occ. eigenvalues --   -1.29001  -1.28409  -1.26074  -1.15217  -1.04941
 Alpha  occ. eigenvalues --   -1.00495  -0.94673  -0.91445  -0.88460  -0.87453
 Alpha  occ. eigenvalues --   -0.84138  -0.82016  -0.77423  -0.75244  -0.74542
 Alpha  occ. eigenvalues --   -0.71897  -0.65623  -0.64458  -0.63109  -0.62748
 Alpha  occ. eigenvalues --   -0.60442  -0.60342  -0.58231  -0.56476  -0.54166
 Alpha  occ. eigenvalues --   -0.53062  -0.52257  -0.51353  -0.50293  -0.49697
 Alpha  occ. eigenvalues --   -0.48813  -0.48079  -0.46621  -0.46595  -0.46380
 Alpha  occ. eigenvalues --   -0.46264  -0.46139  -0.45636  -0.45504  -0.45065
 Alpha  occ. eigenvalues --   -0.44890  -0.44190  -0.43565  -0.42183  -0.41633
 Alpha  occ. eigenvalues --   -0.41015  -0.40328  -0.39596  -0.38570  -0.38316
 Alpha  occ. eigenvalues --   -0.37200  -0.36211  -0.36016  -0.35481  -0.33833
 Alpha  occ. eigenvalues --   -0.33465  -0.32621  -0.32410  -0.32106  -0.31692
 Alpha  occ. eigenvalues --   -0.29384  -0.29283  -0.29065  -0.27852  -0.27726
 Alpha  occ. eigenvalues --   -0.26183  -0.22562  -0.19818  -0.18058  -0.16044
 Alpha  occ. eigenvalues --   -0.15173
 Alpha virt. eigenvalues --   -0.02332   0.06828   0.07892   0.09062   0.09750
 Alpha virt. eigenvalues --    0.10128   0.10391   0.10604   0.10919   0.11366
 Alpha virt. eigenvalues --    0.11508   0.11735   0.12406   0.12928   0.13246
 Alpha virt. eigenvalues --    0.13495   0.13648   0.14303   0.14426   0.14760
 Alpha virt. eigenvalues --    0.14836   0.15264   0.15374   0.15838   0.15991
 Alpha virt. eigenvalues --    0.16958   0.17185   0.17543   0.18136   0.18256
 Alpha virt. eigenvalues --    0.18587   0.18828   0.19601   0.19771   0.20023
 Alpha virt. eigenvalues --    0.20311   0.20967   0.21130   0.21485   0.21813
 Alpha virt. eigenvalues --    0.21952   0.22258   0.23121   0.23592   0.23836
 Alpha virt. eigenvalues --    0.24158   0.25161   0.25247   0.25506   0.25895
 Alpha virt. eigenvalues --    0.26163   0.26433   0.26917   0.27356   0.27684
 Alpha virt. eigenvalues --    0.28174   0.28645   0.28924   0.29262   0.29566
 Alpha virt. eigenvalues --    0.29730   0.30233   0.30274   0.30709   0.31298
 Alpha virt. eigenvalues --    0.31544   0.31657   0.32318   0.32791   0.33263
 Alpha virt. eigenvalues --    0.33486   0.33733   0.34177   0.34342   0.34679
 Alpha virt. eigenvalues --    0.35037   0.35456   0.36081   0.36355   0.36366
 Alpha virt. eigenvalues --    0.36573   0.37020   0.37090   0.37322   0.37540
 Alpha virt. eigenvalues --    0.38160   0.38471   0.38856   0.39097   0.39333
 Alpha virt. eigenvalues --    0.39608   0.39826   0.40221   0.40484   0.41541
 Alpha virt. eigenvalues --    0.42081   0.42385   0.42535   0.42762   0.43110
 Alpha virt. eigenvalues --    0.43562   0.43791   0.44197   0.44463   0.44547
 Alpha virt. eigenvalues --    0.45217   0.45800   0.45936   0.46189   0.46574
 Alpha virt. eigenvalues --    0.47145   0.47871   0.48232   0.48302   0.48597
 Alpha virt. eigenvalues --    0.48617   0.49166   0.49522   0.50031   0.50596
 Alpha virt. eigenvalues --    0.51936   0.52735   0.53351   0.53625   0.54167
 Alpha virt. eigenvalues --    0.54617   0.54660   0.55353   0.55747   0.56404
 Alpha virt. eigenvalues --    0.56616   0.57037   0.57897   0.58078   0.58145
 Alpha virt. eigenvalues --    0.58521   0.60361   0.60699   0.61403   0.61861
 Alpha virt. eigenvalues --    0.62840   0.63391   0.63515   0.63915   0.64451
 Alpha virt. eigenvalues --    0.65411   0.65814   0.66338   0.66751   0.67431
 Alpha virt. eigenvalues --    0.67634   0.68155   0.68548   0.69043   0.69539
 Alpha virt. eigenvalues --    0.70774   0.71497   0.72349   0.72846   0.73418
 Alpha virt. eigenvalues --    0.73675   0.73820   0.74436   0.74755   0.75777
 Alpha virt. eigenvalues --    0.75984   0.76459   0.76839   0.77112   0.78007
 Alpha virt. eigenvalues --    0.78509   0.78935   0.79431   0.79906   0.80660
 Alpha virt. eigenvalues --    0.81774   0.82010   0.82419   0.83332   0.83780
 Alpha virt. eigenvalues --    0.83830   0.84185   0.84435   0.84964   0.85506
 Alpha virt. eigenvalues --    0.86337   0.86711   0.87899   0.88794   0.89803
 Alpha virt. eigenvalues --    0.90800   0.92914   0.94328   0.95139   0.95761
 Alpha virt. eigenvalues --    0.96253   0.96874   0.97765   1.00243   1.00328
 Alpha virt. eigenvalues --    1.01307   1.01646   1.02843   1.03287   1.03818
 Alpha virt. eigenvalues --    1.05288   1.06155   1.06615   1.08692   1.09803
 Alpha virt. eigenvalues --    1.10497   1.11092   1.12687   1.13801   1.14461
 Alpha virt. eigenvalues --    1.14992   1.15912   1.16076   1.17546   1.18389
 Alpha virt. eigenvalues --    1.20029   1.21233   1.21320   1.23145   1.24853
 Alpha virt. eigenvalues --    1.25308   1.26612   1.27960   1.28780   1.29954
 Alpha virt. eigenvalues --    1.30967   1.31390   1.32088   1.32953   1.34056
 Alpha virt. eigenvalues --    1.34242   1.35036   1.35226   1.38567   1.40185
 Alpha virt. eigenvalues --    1.40768   1.41768   1.41885   1.42143   1.42446
 Alpha virt. eigenvalues --    1.44640   1.44885   1.45397   1.46135   1.46785
 Alpha virt. eigenvalues --    1.48237   1.49340   1.50389   1.51662   1.51879
 Alpha virt. eigenvalues --    1.53850   1.54924   1.56564   1.57066   1.57935
 Alpha virt. eigenvalues --    1.58441   1.59473   1.59615   1.60352   1.60565
 Alpha virt. eigenvalues --    1.62426   1.63475   1.65112   1.65441   1.65744
 Alpha virt. eigenvalues --    1.66518   1.66929   1.67955   1.68130   1.68707
 Alpha virt. eigenvalues --    1.70232   1.71739   1.71915   1.72500   1.72695
 Alpha virt. eigenvalues --    1.74919   1.76296   1.77331   1.77958   1.78995
 Alpha virt. eigenvalues --    1.80736   1.83366   1.83996   1.85300   1.85410
 Alpha virt. eigenvalues --    1.85606   1.86218   1.89293   1.89456   1.91371
 Alpha virt. eigenvalues --    1.91593   1.92285   1.93379   1.94063   1.96017
 Alpha virt. eigenvalues --    1.96794   1.97956   1.98965   1.99604   1.99760
 Alpha virt. eigenvalues --    2.00869   2.01830   2.04076   2.05443   2.07112
 Alpha virt. eigenvalues --    2.07205   2.07834   2.11425   2.12795   2.13751
 Alpha virt. eigenvalues --    2.15132   2.17427   2.19227   2.22640   2.24677
 Alpha virt. eigenvalues --    2.26701   2.28153   2.29572   2.30192   2.31005
 Alpha virt. eigenvalues --    2.32707   2.35977   2.37606   2.39721   2.42658
 Alpha virt. eigenvalues --    2.43095   2.47936   2.51155   2.53729   2.56634
 Alpha virt. eigenvalues --    2.56845   2.58585   2.60979   2.61527   2.61880
 Alpha virt. eigenvalues --    2.63203   2.64936   2.65173   2.65360   2.67912
 Alpha virt. eigenvalues --    2.68865   2.69363   2.69717   2.72862   2.73495
 Alpha virt. eigenvalues --    2.78184   2.79120   2.80840   2.82544   2.86145
 Alpha virt. eigenvalues --    2.88218   2.88975   2.91949   2.94319   2.95846
 Alpha virt. eigenvalues --    3.02561   3.04398   3.05913   3.06253   3.06983
 Alpha virt. eigenvalues --    3.09543   3.10857   3.11731   3.13257   3.13558
 Alpha virt. eigenvalues --    3.13906   3.15536   3.17079   3.19217   3.20053
 Alpha virt. eigenvalues --    3.20545   3.23517   3.24210   3.26900   3.27535
 Alpha virt. eigenvalues --    3.28240   3.31948   3.33893   3.34909   3.35314
 Alpha virt. eigenvalues --    3.35392   3.35562   3.37238   3.39396   3.40034
 Alpha virt. eigenvalues --    3.44033   3.45290   3.47445   3.49909   3.51129
 Alpha virt. eigenvalues --    3.52414   3.53204   3.58518   3.61593   3.71535
 Alpha virt. eigenvalues --    3.75003   3.75589   3.78404   3.83109   3.85344
 Alpha virt. eigenvalues --    3.87389   3.88870   3.89333   3.89524   3.90326
 Alpha virt. eigenvalues --    3.91513   3.92127   3.92566   3.92874   3.93678
 Alpha virt. eigenvalues --    3.94043   3.95264   3.95701   3.95804   3.95876
 Alpha virt. eigenvalues --    3.96879   3.97411   3.97595   3.97653   3.98281
 Alpha virt. eigenvalues --    4.01827   4.05219   4.06600   4.09006   4.09546
 Alpha virt. eigenvalues --    4.15903   4.17380   4.20746   4.24888   4.25147
 Alpha virt. eigenvalues --    4.28162   4.31613   4.32093   4.32226   4.32452
 Alpha virt. eigenvalues --    4.35659   4.59852   4.87965   5.12846   5.20626
 Alpha virt. eigenvalues --    5.27384   5.32222   5.36649   5.49802   5.53077
 Alpha virt. eigenvalues --    5.53538   5.57438   5.82247   5.90198   6.09489
 Alpha virt. eigenvalues --    6.13047   6.42647   6.45657   6.48471   6.48560
 Alpha virt. eigenvalues --    6.51301   6.52487   6.54698   6.60394   6.60977
 Alpha virt. eigenvalues --    6.61442   6.63374   6.71012   6.72082   6.73617
 Alpha virt. eigenvalues --    6.78690   8.18142  10.06601  17.54486  17.59504
 Alpha virt. eigenvalues --   17.65471  23.53854  23.64651  23.71672  23.80551
 Alpha virt. eigenvalues --   23.88108  23.90470  23.98621  23.99602  24.01471
 Alpha virt. eigenvalues --   24.05032  24.12391  24.15952  24.23165  26.02949
 Alpha virt. eigenvalues --   26.34508  26.84571  35.74547  50.12159  50.19421
 Alpha virt. eigenvalues --   50.24181  50.28778  66.95736  66.96047  67.02793
 Alpha virt. eigenvalues --   67.03993  67.10125 189.46505 216.16893
          Condensed to atoms (all electrons):
               1          2          3          4          5          6
     1  C   19.904689  -0.100170  -0.739346  -0.068456  -0.275986  -1.088450
     2  N   -0.100170   7.910090   0.326988  -0.044178  -0.278523  -0.414566
     3  C   -0.739346   0.326988  10.543266   0.485701   0.358206  -0.884993
     4  O   -0.068456  -0.044178   0.485701   8.149263  -0.210614  -0.198891
     5  O   -0.275986  -0.278523   0.358206  -0.210614   8.437958   0.351304
     6  C   -1.088450  -0.414566  -0.884993  -0.198891   0.351304   9.181228
     7  C    0.003104   0.057483   0.198564   0.038745  -0.174984  -1.099750
     8  C   -0.026067  -0.011361  -0.274234  -0.000959   0.023798   0.353739
     9  C   -2.547659  -0.018232  -2.042912   0.179529  -0.097141  -0.449830
    10  C   -7.164412   0.101706  -0.912928  -0.013081   0.004558  -0.077147
    11  C    1.055880  -0.094201  -0.187123   0.000296  -0.006469  -0.007868
    12  C   -1.629034  -0.015882  -0.991233   0.002035  -0.008767  -0.121087
    13  C   -0.216712   0.062415   0.149499   0.025667  -0.007589   0.026633
    14  H   -0.012878   0.076881   0.034370   0.001600   0.022411  -0.000424
    15  H    0.012711   0.003723   0.052259  -0.001735  -0.048341   0.376977
    16  H    0.006336   0.005327   0.051722  -0.003314  -0.048112   0.319472
    17  H    0.001140  -0.000243   0.012386  -0.000150   0.001251  -0.041486
    18  H   -0.001246  -0.001633  -0.004983  -0.000558   0.000497  -0.070586
    19  H   -0.000230  -0.000094  -0.004923  -0.000181  -0.000448  -0.058577
    20  H    0.000115   0.000032   0.007915   0.000036  -0.000799   0.094713
    21  H    0.000004   0.000027   0.001247  -0.000005  -0.000438  -0.034265
    22  H    0.023197  -0.017053   0.086020  -0.002928   0.002305   0.006928
    23  Cl  -0.395799  -0.010136  -0.096999   0.000249  -0.000267  -0.003805
    24  H    0.095112  -0.019315  -0.029245   0.000309  -0.000062  -0.002079
    25  S   -0.758472   0.028368  -0.057445  -0.004294   0.000166   0.003406
    26  H   -0.022738   0.001198   0.004397  -0.000019   0.000002   0.000045
    27  F    0.023199  -0.000397   0.001358   0.000625   0.000002  -0.000443
    28  F   -0.021349   0.000417  -0.000689  -0.000037  -0.000000   0.000008
    29  F    0.032738  -0.000280   0.000360   0.000964  -0.000001  -0.000587
    30  F   -0.018763   0.000485  -0.001008  -0.000047  -0.000001  -0.000002
    31  F   -0.000703  -0.000129  -0.001326   0.000035  -0.000000  -0.000021
    32  O    0.025410  -0.012635   0.015307  -0.000047   0.000498   0.000155
    33  O    0.049901  -0.006758  -0.021128   0.000331   0.003417  -0.006411
    34  C   -0.029011  -0.013445   0.011007  -0.000085  -0.000753   0.003759
    35  C    0.100850  -0.030734   0.025140   0.000093   0.001590   0.002568
    36  C    0.003141   0.004885  -0.005175  -0.000066  -0.000624   0.000668
    37  H   -0.000380   0.000078   0.000133  -0.000000   0.000003   0.000008
    38  H   -0.000123   0.000028  -0.000024  -0.000000   0.000002  -0.000013
    39  H    0.000090   0.000119  -0.000073   0.000000  -0.000007   0.000012
    40  H   -0.000016  -0.000042   0.000034  -0.000000   0.000000  -0.000011
    41  H   -0.000113   0.000174  -0.000008   0.000000  -0.000006   0.000068
               7          8          9         10         11         12
     1  C    0.003104  -0.026067  -2.547659  -7.164412   1.055880  -1.629034
     2  N    0.057483  -0.011361  -0.018232   0.101706  -0.094201  -0.015882
     3  C    0.198564  -0.274234  -2.042912  -0.912928  -0.187123  -0.991233
     4  O    0.038745  -0.000959   0.179529  -0.013081   0.000296   0.002035
     5  O   -0.174984   0.023798  -0.097141   0.004558  -0.006469  -0.008767
     6  C   -1.099750   0.353739  -0.449830  -0.077147  -0.007868  -0.121087
     7  C    6.608171  -0.197560   0.032257  -0.002339   0.000727   0.001716
     8  C   -0.197560   6.150609  -0.011974  -0.000765  -0.000016  -0.000988
     9  C    0.032257  -0.011974   8.297205   1.254360  -0.217703   1.040178
    10  C   -0.002339  -0.000765   1.254360  26.355405  -1.462651 -10.070508
    11  C    0.000727  -0.000016  -0.217703  -1.462651   9.404296  -1.063441
    12  C    0.001716  -0.000988   1.040178 -10.070508  -1.063441  19.489202
    13  C    0.008861  -0.000573   0.435235  -0.974778  -0.866771   0.339254
    14  H   -0.000608  -0.000455  -0.010377   0.026245   0.003926   0.004999
    15  H   -0.052176  -0.020156  -0.002421  -0.000056   0.000054   0.000015
    16  H    0.010417  -0.024594  -0.001188  -0.000019   0.000082   0.000015
    17  H    0.420502  -0.059286   0.000100   0.000008  -0.000000   0.000011
    18  H    0.467933  -0.055752   0.000143   0.000009  -0.000002   0.000006
    19  H    0.029322   0.375284   0.000056  -0.000000  -0.000000  -0.000000
    20  H   -0.152389   0.399194   0.000025   0.000000  -0.000000   0.000000
    21  H    0.002247   0.373112   0.000041  -0.000002   0.000000  -0.000000
    22  H   -0.001071   0.000055   0.332907  -0.095377  -0.004138  -0.042590
    23  Cl   0.000058  -0.000010   0.059616   0.106159   0.128924  -0.920108
    24  H   -0.000032  -0.000008  -0.011477   0.016277   0.037828  -0.121414
    25  S   -0.000139  -0.000038   0.217688  -0.774202  -0.341961  -0.040294
    26  H   -0.000000   0.000000   0.004476  -0.068285   0.355998   0.019427
    27  F    0.000022   0.000000   0.003928  -0.130853   0.127781   0.073279
    28  F   -0.000000  -0.000000  -0.014502   0.418676  -0.182452  -0.166460
    29  F    0.000010   0.000001   0.000161  -0.136696   0.130234   0.071931
    30  F   -0.000001  -0.000000  -0.006159   0.374827  -0.169634  -0.154795
    31  F    0.000000  -0.000000  -0.028493   0.077516  -0.006478  -0.000694
    32  O    0.000066  -0.000001  -0.016591   0.011127   0.004314  -0.078552
    33  O    0.001818   0.000190   0.004483   0.002003   0.004577   0.004953
    34  C   -0.002036  -0.000100  -0.006581  -0.009870   0.014866   0.025719
    35  C   -0.000466   0.000281  -0.031456  -0.008528   0.005612  -0.068894
    36  C   -0.000256  -0.000144   0.000064  -0.001101  -0.000439  -0.002607
    37  H    0.000003   0.000000  -0.000000  -0.000015  -0.000022  -0.000102
    38  H    0.000005   0.000000   0.000020  -0.000000  -0.000017   0.000079
    39  H    0.000015   0.000017  -0.000014  -0.000003   0.000002  -0.000029
    40  H   -0.000003  -0.000001   0.000008   0.000002   0.000000   0.000054
    41  H    0.000021   0.000015  -0.000018  -0.000005   0.000001  -0.000050
              13         14         15         16         17         18
     1  C   -0.216712  -0.012878   0.012711   0.006336   0.001140  -0.001246
     2  N    0.062415   0.076881   0.003723   0.005327  -0.000243  -0.001633
     3  C    0.149499   0.034370   0.052259   0.051722   0.012386  -0.004983
     4  O    0.025667   0.001600  -0.001735  -0.003314  -0.000150  -0.000558
     5  O   -0.007589   0.022411  -0.048341  -0.048112   0.001251   0.000497
     6  C    0.026633  -0.000424   0.376977   0.319472  -0.041486  -0.070586
     7  C    0.008861  -0.000608  -0.052176   0.010417   0.420502   0.467933
     8  C   -0.000573  -0.000455  -0.020156  -0.024594  -0.059286  -0.055752
     9  C    0.435235  -0.010377  -0.002421  -0.001188   0.000100   0.000143
    10  C   -0.974778   0.026245  -0.000056  -0.000019   0.000008   0.000009
    11  C   -0.866771   0.003926   0.000054   0.000082  -0.000000  -0.000002
    12  C    0.339254   0.004999   0.000015   0.000015   0.000011   0.000006
    13  C    7.554503  -0.044195  -0.001203  -0.000395  -0.000083   0.000125
    14  H   -0.044195   0.271042  -0.000002   0.000036  -0.000024  -0.000005
    15  H   -0.001203  -0.000002   0.485562  -0.046107   0.005914  -0.008195
    16  H   -0.000395   0.000036  -0.046107   0.494645  -0.010281   0.006076
    17  H   -0.000083  -0.000024   0.005914  -0.010281   0.451390  -0.030838
    18  H    0.000125  -0.000005  -0.008195   0.006076  -0.030838   0.442568
    19  H    0.000010   0.000000  -0.000956   0.005368  -0.008497   0.006403
    20  H    0.000002  -0.000000  -0.000170  -0.000287  -0.003792  -0.003613
    21  H   -0.000001  -0.000000   0.004655  -0.000959   0.006430  -0.008350
    22  H   -0.003584  -0.000125  -0.000025  -0.000124   0.000000  -0.000001
    23  Cl   0.159945   0.000305   0.000000   0.000001   0.000000   0.000000
    24  H    0.196483   0.014279   0.000000  -0.000000   0.000000  -0.000000
    25  S   -0.206874   0.000908  -0.000009  -0.000023   0.000001   0.000001
    26  H   -0.036053   0.000001  -0.000000  -0.000000   0.000000   0.000000
    27  F   -0.008423  -0.000002   0.000001   0.000001   0.000000  -0.000000
    28  F    0.005033   0.000001   0.000000   0.000000  -0.000000   0.000000
    29  F   -0.010009  -0.000001   0.000000   0.000002  -0.000000   0.000000
    30  F    0.004648   0.000001   0.000000   0.000000   0.000000  -0.000000
    31  F    0.000458  -0.000000   0.000000   0.000000  -0.000000  -0.000000
    32  O    0.050093   0.018334   0.000001  -0.000000   0.000001  -0.000000
    33  O   -0.075063   0.059829   0.000024  -0.000018   0.000025  -0.000033
    34  C   -0.003850  -0.001885   0.000084   0.000004   0.000074   0.000027
    35  C   -0.092198   0.028548   0.000024  -0.000006   0.000001  -0.000162
    36  C    0.002602  -0.002796  -0.000007   0.000006   0.000002   0.000089
    37  H    0.000469  -0.000029   0.000000   0.000000   0.000000  -0.000000
    38  H    0.000444  -0.000016   0.000000   0.000000  -0.000000   0.000000
    39  H   -0.000156  -0.000091   0.000000  -0.000000  -0.000000  -0.000001
    40  H    0.000079   0.000019   0.000000   0.000000   0.000000   0.000000
    41  H   -0.000143  -0.000109   0.000000  -0.000000   0.000000  -0.000002
              19         20         21         22         23         24
     1  C   -0.000230   0.000115   0.000004   0.023197  -0.395799   0.095112
     2  N   -0.000094   0.000032   0.000027  -0.017053  -0.010136  -0.019315
     3  C   -0.004923   0.007915   0.001247   0.086020  -0.096999  -0.029245
     4  O   -0.000181   0.000036  -0.000005  -0.002928   0.000249   0.000309
     5  O   -0.000448  -0.000799  -0.000438   0.002305  -0.000267  -0.000062
     6  C   -0.058577   0.094713  -0.034265   0.006928  -0.003805  -0.002079
     7  C    0.029322  -0.152389   0.002247  -0.001071   0.000058  -0.000032
     8  C    0.375284   0.399194   0.373112   0.000055  -0.000010  -0.000008
     9  C    0.000056   0.000025   0.000041   0.332907   0.059616  -0.011477
    10  C   -0.000000   0.000000  -0.000002  -0.095377   0.106159   0.016277
    11  C   -0.000000  -0.000000   0.000000  -0.004138   0.128924   0.037828
    12  C   -0.000000   0.000000  -0.000000  -0.042590  -0.920108  -0.121414
    13  C    0.000010   0.000002  -0.000001  -0.003584   0.159945   0.196483
    14  H    0.000000  -0.000000  -0.000000  -0.000125   0.000305   0.014279
    15  H   -0.000956  -0.000170   0.004655  -0.000025   0.000000   0.000000
    16  H    0.005368  -0.000287  -0.000959  -0.000124   0.000001  -0.000000
    17  H   -0.008497  -0.003792   0.006430   0.000000   0.000000   0.000000
    18  H    0.006403  -0.003613  -0.008350  -0.000001   0.000000  -0.000000
    19  H    0.475093  -0.026121  -0.037681  -0.000000  -0.000000  -0.000000
    20  H   -0.026121   0.452903  -0.026199   0.000000   0.000000   0.000000
    21  H   -0.037681  -0.026199   0.472812  -0.000000  -0.000000   0.000000
    22  H   -0.000000   0.000000  -0.000000   0.365851  -0.000010   0.000107
    23  Cl  -0.000000   0.000000  -0.000000  -0.000010  17.535004   0.002886
    24  H   -0.000000   0.000000   0.000000   0.000107   0.002886   0.277429
    25  S    0.000000   0.000000   0.000000   0.029730   0.010998  -0.000476
    26  H    0.000000  -0.000000   0.000000  -0.000018  -0.017039  -0.000243
    27  F   -0.000000  -0.000000  -0.000000  -0.000274   0.000022  -0.000014
    28  F    0.000000   0.000000  -0.000000  -0.000291   0.000499  -0.000010
    29  F    0.000000  -0.000000  -0.000000  -0.000472  -0.000019  -0.000012
    30  F   -0.000000   0.000000  -0.000000  -0.000328   0.000383  -0.000009
    31  F   -0.000000   0.000000  -0.000000  -0.000667   0.000103  -0.000000
    32  O    0.000000  -0.000000   0.000000  -0.000015   0.004125   0.040333
    33  O   -0.000000   0.000000   0.000001   0.000013  -0.001867   0.007386
    34  C   -0.000002  -0.000001   0.000001   0.000090   0.000999   0.000256
    35  C   -0.000001   0.000001  -0.000000   0.000015  -0.000030   0.016988
    36  C    0.000001  -0.000001   0.000000   0.000001   0.000139  -0.000352
    37  H    0.000000  -0.000000   0.000000  -0.000000   0.000005  -0.000097
    38  H   -0.000000  -0.000000  -0.000000  -0.000000  -0.000011  -0.000072
    39  H   -0.000000   0.000000  -0.000000   0.000000  -0.000001  -0.000001
    40  H    0.000000  -0.000000   0.000000  -0.000000   0.000001  -0.000002
    41  H   -0.000000   0.000000  -0.000000  -0.000000  -0.000000  -0.000004
              25         26         27         28         29         30
     1  C   -0.758472  -0.022738   0.023199  -0.021349   0.032738  -0.018763
     2  N    0.028368   0.001198  -0.000397   0.000417  -0.000280   0.000485
     3  C   -0.057445   0.004397   0.001358  -0.000689   0.000360  -0.001008
     4  O   -0.004294  -0.000019   0.000625  -0.000037   0.000964  -0.000047
     5  O    0.000166   0.000002   0.000002  -0.000000  -0.000001  -0.000001
     6  C    0.003406   0.000045  -0.000443   0.000008  -0.000587  -0.000002
     7  C   -0.000139  -0.000000   0.000022  -0.000000   0.000010  -0.000001
     8  C   -0.000038   0.000000   0.000000  -0.000000   0.000001  -0.000000
     9  C    0.217688   0.004476   0.003928  -0.014502   0.000161  -0.006159
    10  C   -0.774202  -0.068285  -0.130853   0.418676  -0.136696   0.374827
    11  C   -0.341961   0.355998   0.127781  -0.182452   0.130234  -0.169634
    12  C   -0.040294   0.019427   0.073279  -0.166460   0.071931  -0.154795
    13  C   -0.206874  -0.036053  -0.008423   0.005033  -0.010009   0.004648
    14  H    0.000908   0.000001  -0.000002   0.000001  -0.000001   0.000001
    15  H   -0.000009  -0.000000   0.000001   0.000000   0.000000   0.000000
    16  H   -0.000023  -0.000000   0.000001   0.000000   0.000002   0.000000
    17  H    0.000001   0.000000   0.000000  -0.000000  -0.000000   0.000000
    18  H    0.000001   0.000000  -0.000000   0.000000   0.000000  -0.000000
    19  H    0.000000   0.000000  -0.000000   0.000000   0.000000  -0.000000
    20  H    0.000000  -0.000000  -0.000000   0.000000  -0.000000   0.000000
    21  H    0.000000   0.000000  -0.000000  -0.000000  -0.000000  -0.000000
    22  H    0.029730  -0.000018  -0.000274  -0.000291  -0.000472  -0.000328
    23  Cl   0.010998  -0.017039   0.000022   0.000499  -0.000019   0.000383
    24  H   -0.000476  -0.000243  -0.000014  -0.000010  -0.000012  -0.000009
    25  S   17.066693   0.063371   0.024167   0.057797   0.022708   0.069073
    26  H    0.063371   0.407313   0.000111   0.000293   0.000102  -0.000175
    27  F    0.024167   0.000111   8.972582  -0.028835  -0.013959  -0.027006
    28  F    0.057797   0.000293  -0.028835   8.987586  -0.027033  -0.011087
    29  F    0.022708   0.000102  -0.013959  -0.027033   8.976481  -0.028003
    30  F    0.069073  -0.000175  -0.027006  -0.011087  -0.028003   8.983651
    31  F   -0.026855  -0.000580  -0.012044  -0.008030  -0.012239  -0.008229
    32  O    0.000378   0.000009   0.000000   0.000000   0.000000   0.000000
    33  O   -0.000009   0.000001   0.000000   0.000000   0.000000   0.000000
    34  C   -0.002386  -0.000048  -0.000023  -0.000004  -0.000018  -0.000001
    35  C   -0.000275  -0.000007  -0.000001  -0.000000  -0.000000   0.000000
    36  C   -0.000032   0.000000  -0.000000  -0.000000  -0.000000  -0.000000
    37  H   -0.000000  -0.000000  -0.000000  -0.000000  -0.000000  -0.000000
    38  H   -0.000000  -0.000000  -0.000000  -0.000000  -0.000000  -0.000000
    39  H   -0.000000  -0.000000  -0.000000  -0.000000   0.000000  -0.000000
    40  H    0.000000   0.000000   0.000000   0.000000   0.000000   0.000000
    41  H   -0.000000  -0.000000  -0.000000  -0.000000  -0.000000  -0.000000
              31         32         33         34         35         36
     1  C   -0.000703   0.025410   0.049901  -0.029011   0.100850   0.003141
     2  N   -0.000129  -0.012635  -0.006758  -0.013445  -0.030734   0.004885
     3  C   -0.001326   0.015307  -0.021128   0.011007   0.025140  -0.005175
     4  O    0.000035  -0.000047   0.000331  -0.000085   0.000093  -0.000066
     5  O   -0.000000   0.000498   0.003417  -0.000753   0.001590  -0.000624
     6  C   -0.000021   0.000155  -0.006411   0.003759   0.002568   0.000668
     7  C    0.000000   0.000066   0.001818  -0.002036  -0.000466  -0.000256
     8  C   -0.000000  -0.000001   0.000190  -0.000100   0.000281  -0.000144
     9  C   -0.028493  -0.016591   0.004483  -0.006581  -0.031456   0.000064
    10  C    0.077516   0.011127   0.002003  -0.009870  -0.008528  -0.001101
    11  C   -0.006478   0.004314   0.004577   0.014866   0.005612  -0.000439
    12  C   -0.000694  -0.078552   0.004953   0.025719  -0.068894  -0.002607
    13  C    0.000458   0.050093  -0.075063  -0.003850  -0.092198   0.002602
    14  H   -0.000000   0.018334   0.059829  -0.001885   0.028548  -0.002796
    15  H    0.000000   0.000001   0.000024   0.000084   0.000024  -0.000007
    16  H    0.000000  -0.000000  -0.000018   0.000004  -0.000006   0.000006
    17  H   -0.000000   0.000001   0.000025   0.000074   0.000001   0.000002
    18  H   -0.000000  -0.000000  -0.000033   0.000027  -0.000162   0.000089
    19  H   -0.000000   0.000000  -0.000000  -0.000002  -0.000001   0.000001
    20  H    0.000000  -0.000000   0.000000  -0.000001   0.000001  -0.000001
    21  H   -0.000000   0.000000   0.000001   0.000001  -0.000000   0.000000
    22  H   -0.000667  -0.000015   0.000013   0.000090   0.000015   0.000001
    23  Cl   0.000103   0.004125  -0.001867   0.000999  -0.000030   0.000139
    24  H   -0.000000   0.040333   0.007386   0.000256   0.016988  -0.000352
    25  S   -0.026855   0.000378  -0.000009  -0.002386  -0.000275  -0.000032
    26  H   -0.000580   0.000009   0.000001  -0.000048  -0.000007   0.000000
    27  F   -0.012044   0.000000   0.000000  -0.000023  -0.000001  -0.000000
    28  F   -0.008030   0.000000   0.000000  -0.000004  -0.000000  -0.000000
    29  F   -0.012239   0.000000   0.000000  -0.000018  -0.000000  -0.000000
[...]
 .00320692,0.00256405,0.00559334,0.05415663,0.11185721,-0.00012708,0.00
 003988,-0.00000048,0.00004315,-0.00018307,0.00005611,0.00004332,0.0001
 0829,-0.00002355,-0.00002242,-0.00009149,0.00001065,-0.00001896,-0.000
 04497,0.00001289,0.00004023,0.00001576,-0.00000755,-0.00000011,0.00000
 676,-0.00000903,0.00000410,-0.00000285,0.00000125,0.00002004,-0.000029
 22,0.00000054,-0.00000874,0.00000101,0.00000021,0.00003765,-0.00000537
 ,-0.00000181,-0.00009993,-0.00003652,0.00000909,0.00006102,0.00000669,
 0.00000554,-0.00000323,0.00031015,-0.00010848,-0.00000367,-0.00000321,
 -0.00000318,-0.00000383,-0.00000576,0.00000639,0.00000515,0.00000270,-
 0.00000897,0.00000677,0.00000046,0.00001114,-0.00000304,-0.00000477,0.
 00000500,-0.00000219,0.00000365,-0.00000115,-0.00000230,-0.00000261,-0
 .00000264,-0.00000547,0.00000427,-0.00000161,0.00004694,0.00002400,-0.
 00000165,-0.00002643,0.00005795,-0.00001406,-0.00004480,0.00009350,-0.
 00002361,-0.00000012,-0.00000331,-0.00000134,-0.00000103,-0.00001933,0
 .00001221,0.00002401,-0.00001873,0.00001812,0.00000262,-0.00001845,-0.
 00000018,0.00001715,-0.00001943,-0.00000876,0.00000695,-0.00001993,0.0
 0000318,0.00173640,-0.00009821,0.00092965,0.00079834,0.00002258,-0.000
 55012,-0.00122083,0.00298384,0.00165015,-0.08435690,-0.09806025,-0.206
 61785,0.00096412,0.00139975,0.00160176,0.09348981,0.10629838,0.2232494
 8,-0.00005641,0.00003329,0.00000073,0.00010426,0.00004163,-0.00005090,
 -0.00023268,0.00003482,0.00003103,0.00005811,-0.00001087,-0.00000727,0
 .00013410,-0.00008050,-0.00002482,-0.00005502,0.00002197,0.00000649,0.
 00000185,0.00000760,0.00002325,0.00001107,-0.00001000,-0.00000618,0.00
 001796,-0.00001697,0.00000066,-0.00001097,0.00001134,-0.00000095,0.000
 00238,0.00000287,0.00000125,0.00001708,0.00000415,-0.00000255,0.000012
 66,-0.00001242,-0.00000397,-0.00001018,-0.00008931,0.00009241,0.000008
 39,-0.00001048,-0.00000538,0.00000737,-0.00000125,0.00000127,0.0000100
 6,0.00001646,-0.00003609,0.00000504,0.00001355,0.00002148,-0.00000478,
 -0.00000236,0.00000497,0.00000992,0.00000314,0.00000247,-0.00000946,-0
 .00001000,-0.00000628,-0.00000649,0.00000363,0.00000148,-0.00000395,0.
 00000091,0.00000005,0.00002035,-0.00011976,0.00000422,-0.00000762,-0.0
 0003800,0.00001722,-0.00000011,0.00000189,0.00000051,0.00000788,0.0000
 0840,-0.00000949,-0.00000462,0.00000710,-0.00000547,0.00000495,0.00000
 747,0.00000056,-0.00000141,0.00000683,-0.00000081,0.00000064,0.0000060
 6,-0.00000230,-0.00055713,0.00131127,0.00055372,0.00091660,0.00049283,
 0.00037373,0.00137033,0.00091682,-0.00743164,-0.09170112,-0.04231657,0
 .08943293,-0.01417878,-0.01300190,0.02806473,0.00530189,0.00616619,-0.
 01092245,0.10284431,-0.00036101,0.00008005,0.00002234,0.00006188,-0.00
 098914,0.00020433,0.00033036,0.00014187,-0.00001432,-0.00012068,-0.000
 18837,0.00000324,-0.00013293,-0.00001107,0.00000445,0.00010072,0.00001
 801,0.00000008,-0.00000648,-0.00000896,0.00000807,-0.00000046,0.000008
 03,-0.00000208,0.00007907,-0.00007690,-0.00001688,-0.00002949,0.000003
 27,-0.00000271,0.00005423,-0.00001181,-0.00000917,-0.00010192,-0.00003
 589,0.00000326,0.00009434,0.00007343,0.00003359,-0.00004425,0.00152902
 ,-0.00046272,-0.00001503,-0.00000999,-0.00000247,-0.00001349,-0.000006
 53,0.00000263,0.00000573,-0.00000346,-0.00000342,0.00000325,0.00000186
 ,-0.00000147,0.00000072,-0.00000133,-0.00000048,-0.00000795,0.00000211
 ,0.00000109,-0.00000113,-0.00000366,-0.00000070,-0.00001045,0.00001090
 ,0.00000315,0.00005301,0.00003349,-0.00000684,-0.00005837,-0.00000444,
 -0.00002579,-0.00003456,0.00008267,0.00002782,0.00000017,-0.00000170,0
 .00000292,0.00000131,-0.00001711,0.00000266,0.00002041,-0.00001783,0.0
 0001056,-0.00000433,-0.00001978,-0.00001291,0.00002185,-0.00001970,-0.
 00002308,0.00000523,-0.00001703,-0.00000288,0.00094462,0.00133655,-0.0
 0447459,0.00056404,-0.00717352,-0.00348815,-0.01517600,-0.01069084,0.0
 3118558,-0.04229297,-0.08534662,0.08974053,0.00313939,0.00185834,-0.00
 560496,0.00724623,0.00645182,-0.01375791,0.04530847,0.09249037,0.00017
 433,-0.00005223,-0.00001611,-0.00005448,0.00029728,0.00001818,-0.00006
 983,-0.00012980,-0.00000039,0.00003334,0.00011383,-0.00000544,0.000029
 28,0.00005083,0.00000569,-0.00005116,-0.00001691,0.00000020,-0.0000022
 5,-0.00001188,-0.00000963,-0.00000398,0.00000337,0.00000212,-0.0000309
 7,0.00003907,0.00000168,0.00001302,-0.00000220,-0.00000103,-0.00004581
 ,0.00000607,0.00000464,0.00011639,0.00004355,-0.00001050,-0.00007252,-
 0.00001569,0.00000969,0.00000513,-0.00049369,-0.00001536,0.00000602,0.
 00000737,0.00000567,0.00000455,0.00000317,-0.00000477,-0.00000606,0.00
 000176,0.00001285,-0.00000711,-0.00000331,-0.00000792,0.00000202,0.000
 00262,-0.00000349,0.00000277,-0.00000407,-0.00000095,0.00000393,0.0000
 0558,0.00000412,0.00000699,-0.00000590,-0.00000197,-0.00005552,-0.0000
 2919,0.00000760,0.00003200,-0.00005579,-0.00000982,0.00004809,-0.00010
 231,-0.00001935,-0.00000005,0.00000358,-0.00000170,-0.00000327,0.00001
 987,-0.00000219,-0.00002148,0.00002021,-0.00001036,0.00000193,0.000021
 71,0.00001004,-0.00002369,0.00002228,0.00002103,-0.00000756,0.00002175
 ,0.00000198,-0.00188910,-0.00000978,0.00138703,-0.00089924,0.00061118,
 -0.00012030,0.00287748,-0.00184844,-0.00120599,0.08952023,0.08633732,-
 0.22454912,-0.00135334,-0.00150451,0.00241015,0.01032921,0.01094962,-0
 .02241050,-0.09902116,-0.09343474,0.24221780,-0.00008124,0.00003024,0.
 00001352,-0.00001798,-0.00010020,-0.00002212,0.00009697,0.00003383,0.0
 0001246,-0.00003290,-0.00003128,-0.00000330,-0.00009067,-0.00000355,-0
 .00002424,0.00010802,0.00002444,0.00001021,-0.00002620,-0.00004834,-0.
 00001581,-0.00001068,0.00002460,0.00000430,0.00001689,-0.00001087,-0.0
 0000206,-0.00000694,0.00000181,-0.00000093,0.00001325,0.00000062,-0.00
 000197,-0.00003285,-0.00001408,0.00000325,0.00001489,0.00003512,-0.000
 01809,0.00002702,0.00017753,0.00002470,-0.00001620,0.00000444,-0.00000
 085,-0.00001130,0.00000828,-0.00000241,0.00001882,-0.00000834,0.000066
 80,0.00000072,-0.00001261,-0.00004564,0.00000856,0.00000689,-0.0000061
 4,-0.00001339,-0.00000253,0.00000008,0.00000881,0.00000701,0.00000262,
 -0.00000140,0.00000267,0.00000231,0.00001703,0.00001109,-0.00000427,-0
 .00001157,-0.00003026,0.00001375,-0.00000962,0.00001556,0.00002224,-0.
 00000041,-0.00000042,0.00000148,0.00000375,-0.00000214,-0.00000576,0.0
 0000197,-0.00000304,-0.00000231,-0.00000115,-0.00000396,-0.00000496,0.
 00000550,-0.00000383,-0.00000734,0.00000155,-0.00000392,-0.00000265,0.
 00078180,0.00060032,-0.00041691,0.00148158,0.00086984,-0.00093785,-0.0
 0119245,-0.00241602,0.00084668,-0.01488073,-0.01315671,0.02956915,-0.0
 9060583,-0.04286214,0.09042390,0.00135670,-0.00067817,-0.00042243,-0.0
 0658216,0.00154490,-0.00079757,0.10208448,0.00015756,-0.00004975,-0.00
 000268,-0.00006250,0.00025356,-0.00001128,0.00005034,-0.00020279,0.000
 00286,0.00001674,0.00015618,-0.00001254,0.00000520,0.00013385,0.000022
 62,-0.00010660,-0.00002434,0.00000632,0.00000586,-0.00006502,-0.000025
 31,-0.00001941,0.00003345,0.00001199,-0.00002404,0.00003740,-0.0000028
 6,0.00000879,-0.00000463,-0.00000481,-0.00003202,0.00001494,0.00000771
 ,0.00006182,0.00001472,-0.00001914,-0.00005857,-0.00000914,0.00001159,
 -0.00000321,-0.00042712,0.00001990,0.00001315,0.00001779,0.00000742,0.
 00001001,0.00001136,-0.00001055,-0.00005150,0.00000079,0.00006234,-0.0
 0002027,0.00000075,-0.00003585,0.00001023,0.00000941,-0.00000574,0.000
 01947,-0.00000779,0.00000214,0.00001665,0.00000771,-0.00000014,0.00000
 717,-0.00000652,-0.00000002,-0.00002651,-0.00001235,0.00000322,0.00003
 032,-0.00006097,0.00000047,0.00003394,-0.00011780,0.00001048,-0.000000
 28,0.00000105,0.00000017,0.00000409,0.00002494,-0.00001312,-0.00002217
 ,0.00002317,-0.00001677,0.00000450,0.00002596,0.00000797,-0.00001823,0
 .00002447,0.00001465,-0.00000603,0.00002505,-0.00000192,-0.00058745,0.
 00003177,0.00005195,0.00001029,-0.00048738,0.00020093,0.00106233,0.000
 27858,-0.00074840,0.00123990,0.00182549,-0.00431985,-0.04416654,-0.089
 14095,0.08948384,-0.00052409,0.00004652,0.00013875,0.00125904,0.000283
 05,-0.00035398,0.04744683,0.09269665,0.00014897,-0.00007605,-0.0000089
 5,-0.00020430,0.00000321,0.00003580,0.00038783,-0.00012946,-0.00004377
 ,-0.00009003,0.00008902,0.00000804,-0.00021960,0.00018427,0.00003140,0
 .00004890,-0.00011581,-0.00000829,0.00004923,0.00009311,-0.00000886,-0
 .00003144,-0.00000097,0.00000385,-0.00003423,0.00003713,0.00000259,0.0
 0001776,-0.00001433,-0.00000113,-0.00002737,0.00000010,0.00000355,0.00
 003950,0.00002017,-0.00000413,-0.00004384,-0.00003033,0.00000839,0.000
 01962,-0.00002513,-0.00003193,-0.00000912,0.00002453,0.00001034,-0.000
 01095,0.00001271,-0.00000630,-0.00004813,-0.00008146,0.00005761,-0.000
 02771,-0.00004977,-0.00005673,0.00001265,0.00001033,-0.00001222,-0.000
 01548,-0.00000878,-0.00000354,0.00001826,0.00002135,0.00001280,0.00001
 304,-0.00000782,-0.00000252,-0.00002485,-0.00001672,0.00000445,0.00000
 716,0.00004973,-0.00001141,0.00003785,-0.00000711,-0.00002195,0.000000
 36,0.00000006,-0.00000112,-0.00001078,0.00000012,0.00000851,-0.0000078
 5,0.00000238,-0.00000095,-0.00000655,0.00000140,0.00000233,-0.00001059
 ,0.00000332,0.00001029,-0.00000523,0.00000335,0.00000258,-0.00041867,-
 0.00080253,-0.00001855,-0.00195671,-0.00040431,0.00068759,0.00144295,0
 .00241899,-0.00012042,-0.00038509,-0.00144978,0.00141475,0.09178336,0.
 08752452,-0.23344795,0.00052370,-0.00027749,0.00073632,-0.00053596,0.0
 0012547,0.00156814,-0.09921510,-0.09751343,0.25037231,-0.00006553,0.00
 006583,0.00000169,0.00015897,0.00022865,-0.00002557,-0.00037103,-0.000
 04898,0.00002898,0.00010058,0.00006017,-0.00001083,0.00018734,-0.00008
 444,-0.00000484,-0.00006243,0.00002803,0.00000078,-0.00002012,-0.00001
 822,0.00000424,0.00001301,-0.00001038,-0.00000006,0.00003848,-0.000000
 22,-0.00000328,-0.00002012,0.00001893,0.00000034,-0.00001881,0.0000191
 8,0.00000017,0.00008458,0.00001518,-0.00000713,-0.00002123,0.00010391,
 0.00000085,-0.00000038,-0.00039097,0.00002461,0.00000944,0.00000065,-0
 .00000213,0.00000933,0.00000013,0.00000110,0.00001775,0.00001358,-0.00
 001214,0.00001967,0.00001376,0.00000641,-0.00000592,-0.00000122,0.0000
 0329,0.00000273,0.00000036,-0.00000012,-0.00000581,-0.00000137,-0.0000
 0217,-0.00000817,0.00000662,0.00000020,-0.00002600,-0.00000306,0.00000
 207,0.00003215,-0.00036250,0.00000811,0.00001466,-0.00017243,0.0000060
 0,-0.00000183,0.00000570,-0.00000029,0.00001460,0.00003625,-0.00002189
 ,-0.00002416,0.00003243,-0.00001835,0.00001759,0.00003818,0.00001669,-
 0.00002175,0.00003412,0.00001892,-0.00000335,0.00003160,-0.00000110,-0
 .00278787,0.00359540,-0.00013542,0.00186322,0.00078342,-0.00003907,-0.
 00537894,-0.00607801,0.00031020,-0.00621945,0.03574177,-0.00173161,-0.
 06097837,0.05685228,-0.00265976,0.00126109,-0.00060989,-0.00065700,0.0
 0119769,-0.00052894,0.00071159,0.00235777,-0.01303014,-0.00167812,0.06
 629019,-0.00021495,0.00005048,0.00001205,-0.00002418,-0.00052444,0.000
 04101,0.00021824,0.00030688,-0.00003877,-0.00009949,-0.00026514,0.0000
 2435,-0.00015095,-0.00011118,0.00002310,0.00019532,0.00006939,-0.00001
 976,-0.00002773,-0.00000217,-0.00000097,0.00002274,-0.00001100,0.00000
 056,0.00001438,-0.00005872,0.00000231,0.00000008,-0.00000556,0.0000001
 2,0.00005829,-0.00003722,-0.00000272,-0.00013340,-0.00002617,0.0000122
 7,0.00009915,-0.00000864,-0.00001015,0.00003966,0.00093165,-0.00007392
 ,-0.00002085,-0.00001711,-0.00000996,-0.00001938,-0.00001675,0.0000153
 8,0.00003733,0.00000864,-0.00002576,0.00004389,0.00001093,0.00002004,-
 0.00001080,-0.00000967,0.00000679,-0.00002614,0.00001281,0.00000131,-0
 .00001054,-0.00001009,-0.00000411,-0.00000582,0.00000804,-0.00000002,0
 .00005155,0.00001490,-0.00000416,-0.00008178,0.00028306,-0.00000509,-0
 .00006870,0.00031461,-0.00000996,0.00000072,-0.00000352,0.00000022,-0.
 00001430,-0.00006578,0.00003353,0.00005144,-0.00006041,0.00003658,-0.0
 0001831,-0.00006864,-0.00002494,0.00004632,-0.00006392,-0.00003761,0.0
 0001183,-0.00006507,0.00000224,0.00189347,-0.00072431,0.00000304,0.001
 83198,-0.00081716,0.00008221,-0.00198151,0.00095339,0.00002842,-0.0013
 1007,-0.00212300,0.00003443,0.05673995,-0.29385646,0.01135303,0.000607
 74,0.00028636,0.00042530,0.00060103,0.00019582,-0.00043461,0.00228594,
 -0.01140997,-0.00044893,-0.06361894,0.32064513,0.00001290,-0.00000342,
 -0.00000262,0.00000115,0.00003041,0.00003835,-0.00000353,-0.00002015,-
 0.00001950,0.00000358,0.00001783,0.00000053,0.00000756,0.00001514,0.00
 003730,-0.00001452,-0.00001410,-0.00000440,0.00000613,0.00000986,-0.00
 002114,-0.00000186,-0.00000057,0.00000955,-0.00000124,0.00000391,0.000
 00001,0.00000039,0.00000019,0.00000072,-0.00000314,0.00000209,0.000001
 71,0.00000559,0.00000075,-0.00000571,-0.00000515,0.00000046,-0.0000010
 9,-0.00000492,-0.00005443,-0.00005246,0.00000233,0.00000582,0.00000167
 ,0.00000068,-0.00000207,0.00000069,-0.00002210,-0.00001104,0.00000670,
 0.00001294,0.00000531,0.00000015,-0.00000216,-0.00000020,-0.00000045,0
 .00000206,-0.00000078,0.00000050,0.00000410,0.00000160,0.00000005,0.00
 000037,-0.00000053,-0.00000073,-0.00000216,-0.00000065,0.00000047,0.00
 000491,-0.00001572,-0.00000182,0.00000317,-0.00001622,0.00000300,-0.00
 000004,0.00000015,0.00000035,0.00000088,0.00000351,-0.00000225,-0.0000
 0312,0.00000311,-0.00000276,0.00000100,0.00000352,0.00000098,-0.000002
 00,0.00000327,0.00000104,-0.00000057,0.00000335,-0.00000046,-0.0001097
 8,0.00002865,0.00003578,-0.00014106,0.00009740,0.00068086,0.00012517,0
 .00005457,0.00065724,0.00007855,0.00006556,-0.00126646,-0.00265372,0.0
 1132161,-0.05119616,0.00002047,0.00035207,-0.00006747,-0.00008315,-0.0
 0036903,-0.00000038,-0.00801632,0.02645227,0.00051466,0.00304066,-0.01
 273644,0.04788884,-0.00006870,0.00002415,-0.00000796,-0.00001880,-0.00
 008287,0.00003819,0.00009440,0.00002628,-0.00003047,-0.00003022,-0.000
 02359,0.00001110,-0.00007847,0.00001084,0.00002824,0.00008233,0.000003
 60,-0.00002692,-0.00001546,-0.00002519,0.00004167,-0.00000969,0.000011
 87,-0.00001040,0.00001403,-0.00000716,0.00000257,-0.00000508,0.0000012
 6,0.00000198,0.00001058,0.00000081,-0.00000076,-0.00002746,-0.00001188
 ,0.00000387,0.00001374,0.00003564,0.00001356,0.00002351,0.00014686,-0.
 00005048,-0.00000703,0.00000500,0.00000190,-0.00001446,0.00000504,0.00
 000202,0.00000472,-0.00000393,0.00002507,0.00000911,-0.00001296,-0.000
 04958,0.00000693,0.00000629,-0.00000480,-0.00001031,-0.00000114,0.0000
 0382,0.00000558,0.00000375,0.00000324,-0.00000113,0.00000205,-0.000002
 60,0.00001473,0.00000950,0.00000227,-0.00001170,-0.00003636,-0.0000148
 8,-0.00001067,0.00001234,-0.00002513,-0.00000058,-0.00000033,-0.000001
 58,-0.00000097,-0.00000318,0.00000606,0.00000619,-0.00000274,0.0000071
 0,0.00000438,-0.00000137,0.00000572,0.00000126,-0.00000232,0.00000344,
 0.00000141,-0.00000347,0.00000316,0.00072880,0.00061470,0.00035145,0.0
 0143722,0.00094531,0.00077170,-0.00107995,-0.00243549,-0.00052020,-0.0
 1471690,-0.01583575,-0.02826270,-0.09007036,-0.05054405,-0.08558648,-0
 .00665862,0.00162232,0.00060517,0.00135797,-0.00063950,0.00049784,0.00
 521958,0.00728535,0.01046661,0.00235044,0.00298678,0.00773592,0.101449
 68,0.00013816,-0.00004187,-0.00001141,-0.00003305,0.00025280,-0.000018
 78,-0.00001712,-0.00017008,0.00001971,0.00003024,0.00013567,-0.0000089
 6,0.00003515,0.00009190,-0.00004426,-0.00010681,-0.00002443,0.00001075
 ,0.00000997,-0.00004017,0.00004266,-0.00001464,0.00001589,-0.00001668,
 -0.00001998,0.00003196,-0.00000008,0.00000683,-0.00000214,0.00000211,-
 0.00002902,0.00001401,-0.00000142,0.00005924,0.00001450,0.00000084,-0.
 00005411,-0.00000700,0.00000622,-0.00001058,-0.00041877,0.00004588,0.0
 0001235,0.00000782,0.00000525,0.00001181,0.00001310,-0.00000892,-0.000
 00733,0.00000785,0.00001480,-0.00003707,0.00001588,-0.00003747,0.00001
 165,0.00000466,-0.00000088,0.00001728,-0.00000621,-0.00000432,0.000005
 36,0.00000726,0.00000242,0.00000515,-0.00000522,-0.00000038,-0.0000245
 7,-0.00001066,0.00000174,0.00003051,-0.00006569,-0.00000012,0.00002884
 ,-0.00011584,-0.00000590,-0.00000033,0.00000110,-0.00000054,0.00000366
 ,0.00002431,-0.00001008,-0.00001886,0.00002256,-0.00001259,0.00000660,
 0.00002582,0.00001055,-0.00001903,0.00002429,0.00001709,-0.00000509,0.
 00002424,0.00000044,-0.00052259,0.00010174,-0.00005475,0.00008280,-0.0
 0033465,-0.00014400,0.00090710,0.00013705,0.00072010,0.00130142,0.0023
 3437,0.00426584,-0.05192376,-0.10654672,-0.10112672,0.00130063,0.00035
 199,0.00048168,-0.00056837,0.00005504,-0.00007301,0.00626045,0.0060478
 7,0.01083493,-0.01276644,-0.01372998,-0.02523707,0.05591355,0.11175573
 ,-0.00015189,0.00007493,0.00000351,0.00019668,-0.00001877,0.00001609,-
 0.00036599,0.00014014,-0.00001593,0.00008199,-0.00009131,0.00000855,0.
 00020816,-0.00017468,0.00005336,-0.00004404,0.00007397,-0.00001351,-0.
 00002826,-0.00002780,-0.00004961,0.00003207,-0.00001467,0.00002005,0.0
 0003399,-0.00003639,0.00000161,-0.00001778,0.00001415,0.00000183,0.000
 02808,-0.00000073,-0.00000158,-0.00004196,-0.00002008,0.00000448,0.000
 04552,0.00003174,0.00000039,-0.00002230,0.00004631,-0.00004941,0.00000
 670,-0.00000560,-0.00000549,0.00001076,-0.00002758,0.00001430,0.000007
 59,0.00002159,-0.00005549,0.00006548,0.00007926,0.00005902,-0.00002145
 ,-0.00002312,0.00001822,0.00000986,0.00000782,-0.00001065,-0.00001073,
 -0.00000597,-0.00000712,-0.00001304,0.00000766,-0.00000198,0.00002574,
 0.00001699,-0.00000113,-0.00001003,-0.00004908,-0.00000814,-0.00004162
 ,0.00001365,-0.00002100,-0.00000054,-0.00000015,-0.00000110,0.00000578
 ,-0.00000315,0.00000338,0.00001317,-0.00000410,0.00001013,0.00001175,-
 0.00000101,0.00000722,0.00000857,-0.00000414,-0.00000193,0.00000584,-0
 .00000495,0.00000267,0.00044168,0.00079290,-0.00012505,0.00190936,0.00
 057073,0.00069282,-0.00153233,-0.00240778,0.00010289,0.00027641,0.0013
 0041,0.00083320,-0.08679114,-0.09925882,-0.21637625,0.00040144,0.00000
 840,0.00154431,-0.00047835,0.00033552,0.00071865,-0.01104043,-0.013421
 19,-0.02168553,0.00282400,0.00172959,0.00276470,0.09396127,0.11033533,
 0.23154954\\0.00000096,0.00000112,0.00000026,-0.00000117,0.00000069,-0
 .00000179,0.00000011,-0.00000070,0.00000063,0.00000137,0.00000114,-0.0
 0000008,0.00000204,-0.00000196,-0.00000016,-0.00000049,-0.00000090,-0.
 00000024,-0.00000084,-0.00000227,0.00000033,0.00000015,-0.00000226,0.0
 0000004,0.00000104,0.00000048,0.00000027,0.00000153,0.00000131,0.00000
 008,0.00000109,0.00000185,-0.00000009,0.00000040,0.00000177,0.00000003
 ,-0.00000058,0.00000010,0.00000005,-0.00000101,-0.00000091,0.00000186,
 0.00000072,-0.00000144,0.00000004,0.00000077,-0.00000142,0.00000040,-0
 .00000041,-0.00000142,0.00000003,-0.00000046,-0.00000170,0.00000003,0.
 00000017,-0.00000256,0.00000031,-0.00000060,-0.00000268,0.00000017,0.0
 0000013,-0.00000276,0.00000007,0.00000133,0.00000068,0.00000012,-0.000
 00008,0.00000237,-0.00000020,-0.00000095,0.00000150,-0.00000034,0.0000
 0173,0.00000193,0.00000087,0.00000104,0.00000226,-0.00000003,0.0000027
 5,0.00000108,-0.00000054,0.00000116,0.00000177,-0.00000075,0.00000243,
 0.00000093,0.00000057,0.00000183,0.00000184,0.00000052,0.00000300,0.00
 000068,0.00000045,0.00000087,-0.00000083,-0.00000059,0.00000094,-0.000
 00028,-0.00000095,-0.00000526,0.00000119,0.00000052,-0.00000306,0.0000
 0049,-0.00000002,-0.00000178,0.00000054,-0.00000029,-0.00000206,0.0000
 0041,-0.00000026,-0.00000197,0.00000049,-0.00000046,-0.00000199,-0.000
 00093,-0.00000021,-0.00000278,-0.00000044,-0.00000037,-0.00000208,-0.0
 0000112,-0.00000027\\\@


 IF YOU WANT TO LEARN FROM THE THEORETICAL PHYSICISTS ABOUT THE
 METHODS WHICH THEY USE, I ADVISE YOU TO FOLLOW THIS PRINCIPLE VERY STRICTLY:
 DON'T LISTEN TO THEIR WORDS; PAY ATTENTION, INSTEAD, TO THEIR ACTIONS.
 -- A.EINSTEIN, 1934
 Job cpu time:       0 days  9 hours 49 minutes 58.0 seconds.
 Elapsed time:       0 days  9 hours 49 minutes 58.6 seconds.
 File lengths (MBytes):  RWF=   1582 Int=      0 D2E=      0 Chk=     39 Scr=      1
 Normal termination of Gaussian 16 at Mon Mar 22 22:47:28 2021.
