 Entering Gaussian System, Link 0=/apps/gaussian/g16c01/g16/g16
 Initial command:
 /apps/gaussian/g16c01/g16/l1.exe "/jobfs/19908752.gadi-pbs/Gau-628296.inp" -scrdir="/jobfs/19908752.gadi-pbs/"
 Entering Link 1 = /apps/gaussian/g16c01/g16/l1.exe PID=    628297.
  
 Copyright (c) 1988-2019, Gaussian, Inc.  All Rights Reserved.
  
 This is part of the Gaussian(R) 16 program.  It is based on
 the Gaussian(R) 09 system (copyright 2009, Gaussian, Inc.),
 the Gaussian(R) 03 system (copyright 2003, Gaussian, Inc.),
 the Gaussian(R) 98 system (copyright 1998, Gaussian, Inc.),
 the Gaussian(R) 94 system (copyright 1995, Gaussian, Inc.),
 the Gaussian 92(TM) system (copyright 1992, Gaussian, Inc.),
 the Gaussian 90(TM) system (copyright 1990, Gaussian, Inc.),
 the Gaussian 88(TM) system (copyright 1988, Gaussian, Inc.),
 the Gaussian 86(TM) system (copyright 1986, Carnegie Mellon
 University), and the Gaussian 82(TM) system (copyright 1983,
 Carnegie Mellon University). Gaussian is a federally registered
 trademark of Gaussian, Inc.
  
 This software contains proprietary and confidential information,
 including trade secrets, belonging to Gaussian, Inc.
  
 This software is provided under written license and may be
 used, copied, transmitted, or stored only in accord with that
 written license.
  
 The following legend is applicable only to US Government
 contracts under FAR:
  
                    RESTRICTED RIGHTS LEGEND
  
 Use, reproduction and disclosure by the US Government is
 subject to restrictions as set forth in subparagraphs (a)
 and (c) of the Commercial Computer Software - Restricted
 Rights clause in FAR 52.227-19.
  
 Gaussian, Inc.
 340 Quinnipiac St., Bldg. 40, Wallingford CT 06492
  
  
 ---------------------------------------------------------------
 Warning -- This program may not be used in any manner that
 competes with the business of Gaussian, Inc. or will provide
 assistance to any competitor of Gaussian, Inc.  The licensee
 of this program is prohibited from giving any competitor of
 Gaussian, Inc. access to this program.  By using this program,
 the user acknowledges that Gaussian, Inc. is engaged in the
 business of creating and licensing software in the field of
 computational chemistry and represents and warrants to the
 licensee that it is not a competitor of Gaussian, Inc. and that
 it will not use this program in any manner prohibited above.
 ---------------------------------------------------------------
  

 Cite this work as:
 Gaussian 16, Revision C.01,
 M. J. Frisch, G. W. Trucks, H. B. Schlegel, G. E. Scuseria, 
 M. A. Robb, J. R. Cheeseman, G. Scalmani, V. Barone, 
 G. A. Petersson, H. Nakatsuji, X. Li, M. Caricato, A. V. Marenich, 
 J. Bloino, B. G. Janesko, R. Gomperts, B. Mennucci, H. P. Hratchian, 
 J. V. Ortiz, A. F. Izmaylov, J. L. Sonnenberg, D. Williams-Young, 
 F. Ding, F. Lipparini, F. Egidi, J. Goings, B. Peng, A. Petrone, 
 T. Henderson, D. Ranasinghe, V. G. Zakrzewski, J. Gao, N. Rega, 
 G. Zheng, W. Liang, M. Hada, M. Ehara, K. Toyota, R. Fukuda, 
 J. Hasegawa, M. Ishida, T. Nakajima, Y. Honda, O. Kitao, H. Nakai, 
 T. Vreven, K. Throssell, J. A. Montgomery, Jr., J. E. Peralta, 
 F. Ogliaro, M. J. Bearpark, J. J. Heyd, E. N. Brothers, K. N. Kudin, 
 V. N. Staroverov, T. A. Keith, R. Kobayashi, J. Normand, 
 K. Raghavachari, A. P. Rendell, J. C. Burant, S. S. Iyengar, 
 J. Tomasi, M. Cossi, J. M. Millam, M. Klene, C. Adamo, R. Cammi, 
 J. W. Ochterski, R. L. Martin, K. Morokuma, O. Farkas, 
 J. B. Foresman, and D. J. Fox, Gaussian, Inc., Wallingford CT, 2019.
 
 ******************************************
 Gaussian 16:  ES64L-G16RevC.01  3-Jul-2019
                 1-Apr-2021 
 ******************************************
 %NprocShared=32
 Will use up to   32 processors via shared memory.
 %Mem=10000MB
 %chk=CP22CA_carboxy_c2.M062X_6-311pGd_opt_water_GD3.chk
 ----------------------------------------------------------------------
 # M062X/6-311+G* SCF=Tight INT(grid=ultrafine) OPT=CalcFC IOP(2/17=4) 
 EmpiricalDispersion=GD3 SCRF=(SMD,Solvent=h2o) MaxDisk=10000MB
 ----------------------------------------------------------------------
 1/10=4,18=20,19=15,26=6,38=1/1,3;
 2/9=110,12=2,17=4,18=5,40=1/2;
 3/5=4,6=6,7=11,11=2,25=1,30=1,70=32201,71=2,72=1,74=-55,75=-5,124=31,140=1/1,2,3;
 4//1;
 5/5=2,32=2,38=5,53=1/2;
 8/6=4,10=90,11=11/1;
 11/6=1,8=1,9=11,15=111,16=1/1,2,10;
 10/6=1,13=1/2;
 6/7=2,8=2,9=2,10=2,28=1/1;
 7/10=1,25=1/1,2,3,16;
 1/10=4,18=20,19=15,26=6/3(2);
 2/9=110,17=4/2;
 99//99;
 2/9=110,17=4/2;
 3/5=4,6=6,7=11,11=2,25=1,30=1,70=32205,71=1,72=1,74=-55,75=-5,124=31/1,2,3;
 4/5=5,16=3,69=1/1;
 5/5=2,32=2,38=5,53=1/2;
 7//1,2,3,16;
 1/18=20,19=15,26=6/3(-5);
 2/9=110,17=4/2;
 6/7=2,8=2,9=2,10=2,19=2,28=1/1;
 99/9=1/99;
 ----------------------------------------------
 CP22CA_carboxy_c2.M062X_6-311pGd_opt_water_GD3
 ----------------------------------------------
 Symbolic Z-matrix:
 Charge = -1 Multiplicity = 1
 C                    -5.92919   1.36375   0.35054 
 N                    -4.70857   0.70401   0.27325 
 C                    -3.49994   1.29899   0.08495 
 O                    -3.27776   2.48326  -0.06879 
 O                    -2.53086   0.36794   0.08802 
 C                    -1.20105   0.8532   -0.09344 
 C                    -0.27348  -0.34307  -0.06237 
 C                     1.1789    0.08474  -0.245 
 C                    -7.07422   0.55446   0.48359 
 C                    -8.3008    1.1744    0.58284 
 C                    -8.48805   2.55202   0.55084 
 C                    -7.34063   3.31002   0.41126 
 C                    -6.07172   2.75689   0.31316 
 H                    -4.71744  -0.34468   0.40015 
 H                    -0.96316   1.56464   0.70288 
 H                    -1.13568   1.38603  -1.04654 
 H                    -0.56975  -1.04085  -0.85012 
 H                    -0.40297  -0.86636   0.88869 
 H                     1.32617   0.5954   -1.20081 
 H                     1.84894  -0.77694  -0.2243 
 H                     1.4949    0.76842   0.54794 
 H                    -6.98153  -0.53621   0.49995 
 Cl                   -7.49427   5.05366   0.36086 
 H                    -5.20798   3.39439   0.2091 
 S                    -9.76551   0.12888   0.77679 
 H                    -9.46322   3.01112   0.62973 
 F                    -9.06793  -0.81059   1.87498 
 F                    -10.36354   1.06551   1.96841 
 F                    -9.33114  -0.87306  -0.39762 
 F                    -10.62528   1.00274  -0.29634 
 F                    -11.09738  -0.77739   0.9563 
 O                    -6.83193  -2.53513   0.48449 
 O                    -4.67639  -1.95912   0.67263 
 C                    -5.62733  -2.78967   0.66878 
 C                    -5.26257  -4.26426   0.90961 
 C                    -3.79533  -4.5187    1.22226 
 H                    -5.57148  -4.81658   0.01586 
 H                    -5.90685  -4.62713   1.71634 
 H                    -3.1573   -4.17677   0.40555 
 H                    -3.60284  -5.58376   1.38624 
 H                    -3.4866   -3.97392   2.1167 
 
 Add virtual bond connecting atoms O33        and H14        Dist= 3.09D+00.

 GradGradGradGradGradGradGradGradGradGradGradGradGradGradGradGradGradGrad
 Berny optimization.
 Initialization pass.
                           ----------------------------
                           !    Initial Parameters    !
                           ! (Angstroms and Degrees)  !
 --------------------------                            --------------------------
 ! Name  Definition              Value          Derivative Info.                !
 --------------------------------------------------------------------------------
 ! R1    R(1,2)                  1.3897         calculate D2E/DX2 analytically  !
 ! R2    R(1,9)                  1.4085         calculate D2E/DX2 analytically  !
 ! R3    R(1,13)                 1.4009         calculate D2E/DX2 analytically  !
 ! R4    R(2,3)                  1.3602         calculate D2E/DX2 analytically  !
 ! R5    R(2,14)                 1.0564         calculate D2E/DX2 analytically  !
 ! R6    R(3,4)                  1.2147         calculate D2E/DX2 analytically  !
 ! R7    R(3,5)                  1.3439         calculate D2E/DX2 analytically  !
 ! R8    R(5,6)                  1.4272         calculate D2E/DX2 analytically  !
 ! R9    R(6,7)                  1.5141         calculate D2E/DX2 analytically  !
 ! R10   R(6,15)                 1.094          calculate D2E/DX2 analytically  !
 ! R11   R(6,16)                 1.0939         calculate D2E/DX2 analytically  !
 ! R12   R(7,8)                  1.525          calculate D2E/DX2 analytically  !
 ! R13   R(7,17)                 1.0933         calculate D2E/DX2 analytically  !
 ! R14   R(7,18)                 1.0932         calculate D2E/DX2 analytically  !
 ! R15   R(8,19)                 1.0936         calculate D2E/DX2 analytically  !
 ! R16   R(8,20)                 1.0917         calculate D2E/DX2 analytically  !
 ! R17   R(8,21)                 1.0936         calculate D2E/DX2 analytically  !
 ! R18   R(9,10)                 1.3779         calculate D2E/DX2 analytically  !
 ! R19   R(9,22)                 1.0947         calculate D2E/DX2 analytically  !
 ! R20   R(10,11)                1.3907         calculate D2E/DX2 analytically  !
 ! R21   R(10,25)                1.81           calculate D2E/DX2 analytically  !
 ! R22   R(11,12)                1.3822         calculate D2E/DX2 analytically  !
 ! R23   R(11,26)                1.0807         calculate D2E/DX2 analytically  !
 ! R24   R(12,13)                1.3877         calculate D2E/DX2 analytically  !
 ! R25   R(12,23)                1.7511         calculate D2E/DX2 analytically  !
 ! R26   R(13,24)                1.0786         calculate D2E/DX2 analytically  !
 ! R27   R(14,33)                1.6378         calculate D2E/DX2 analytically  !
 ! R28   R(25,27)                1.6048         calculate D2E/DX2 analytically  !
 ! R29   R(25,28)                1.6294         calculate D2E/DX2 analytically  !
 ! R30   R(25,29)                1.6037         calculate D2E/DX2 analytically  !
 ! R31   R(25,30)                1.6292         calculate D2E/DX2 analytically  !
 ! R32   R(25,31)                1.6209         calculate D2E/DX2 analytically  !
 ! R33   R(32,34)                1.2449         calculate D2E/DX2 analytically  !
 ! R34   R(33,34)                1.2626         calculate D2E/DX2 analytically  !
 ! R35   R(34,35)                1.538          calculate D2E/DX2 analytically  !
 ! R36   R(35,36)                1.5216         calculate D2E/DX2 analytically  !
 ! R37   R(35,37)                1.0951         calculate D2E/DX2 analytically  !
 ! R38   R(35,38)                1.0943         calculate D2E/DX2 analytically  !
 ! R39   R(36,39)                1.0913         calculate D2E/DX2 analytically  !
 ! R40   R(36,40)                1.0947         calculate D2E/DX2 analytically  !
 ! R41   R(36,41)                1.0918         calculate D2E/DX2 analytically  !
 ! A1    A(2,1,9)              116.5222         calculate D2E/DX2 analytically  !
 ! A2    A(2,1,13)             124.0554         calculate D2E/DX2 analytically  !
 ! A3    A(9,1,13)             119.4208         calculate D2E/DX2 analytically  !
 ! A4    A(1,2,3)              125.486          calculate D2E/DX2 analytically  !
 ! A5    A(1,2,14)             117.2089         calculate D2E/DX2 analytically  !
 ! A6    A(3,2,14)             117.2785         calculate D2E/DX2 analytically  !
 ! A7    A(2,3,4)              127.3364         calculate D2E/DX2 analytically  !
 ! A8    A(2,3,5)              109.7175         calculate D2E/DX2 analytically  !
 ! A9    A(4,3,5)              122.946          calculate D2E/DX2 analytically  !
 ! A10   A(3,5,6)              115.8528         calculate D2E/DX2 analytically  !
 ! A11   A(5,6,7)              107.4326         calculate D2E/DX2 analytically  !
 ! A12   A(5,6,15)             109.3407         calculate D2E/DX2 analytically  !
 ! A13   A(5,6,16)             109.3953         calculate D2E/DX2 analytically  !
 ! A14   A(7,6,15)             111.4478         calculate D2E/DX2 analytically  !
 ! A15   A(7,6,16)             111.4767         calculate D2E/DX2 analytically  !
 ! A16   A(15,6,16)            107.7255         calculate D2E/DX2 analytically  !
 ! A17   A(6,7,8)              111.0595         calculate D2E/DX2 analytically  !
 ! A18   A(6,7,17)             108.8731         calculate D2E/DX2 analytically  !
 ! A19   A(6,7,18)             108.8736         calculate D2E/DX2 analytically  !
 ! A20   A(8,7,17)             110.5392         calculate D2E/DX2 analytically  !
 ! A21   A(8,7,18)             110.5647         calculate D2E/DX2 analytically  !
 ! A22   A(17,7,18)            106.8127         calculate D2E/DX2 analytically  !
 ! A23   A(7,8,19)             111.3398         calculate D2E/DX2 analytically  !
 ! A24   A(7,8,20)             111.1498         calculate D2E/DX2 analytically  !
 ! A25   A(7,8,21)             111.329          calculate D2E/DX2 analytically  !
 ! A26   A(19,8,20)            107.6059         calculate D2E/DX2 analytically  !
 ! A27   A(19,8,21)            107.6296         calculate D2E/DX2 analytically  !
 ! A28   A(20,8,21)            107.5974         calculate D2E/DX2 analytically  !
 ! A29   A(1,9,10)             118.1621         calculate D2E/DX2 analytically  !
 ! A30   A(1,9,22)             120.3345         calculate D2E/DX2 analytically  !
 ! A31   A(10,9,22)            121.5022         calculate D2E/DX2 analytically  !
 ! A32   A(9,10,11)            124.3253         calculate D2E/DX2 analytically  !
 ! A33   A(9,10,25)            117.9168         calculate D2E/DX2 analytically  !
 ! A34   A(11,10,25)           117.757          calculate D2E/DX2 analytically  !
 ! A35   A(10,11,12)           115.7083         calculate D2E/DX2 analytically  !
 ! A36   A(10,11,26)           122.7277         calculate D2E/DX2 analytically  !
 ! A37   A(12,11,26)           121.564          calculate D2E/DX2 analytically  !
 ! A38   A(11,12,13)           123.2032         calculate D2E/DX2 analytically  !
 ! A39   A(11,12,23)           118.4318         calculate D2E/DX2 analytically  !
 ! A40   A(13,12,23)           118.3647         calculate D2E/DX2 analytically  !
 ! A41   A(1,13,12)            119.1781         calculate D2E/DX2 analytically  !
 ! A42   A(1,13,24)            120.59           calculate D2E/DX2 analytically  !
 ! A43   A(12,13,24)           120.2319         calculate D2E/DX2 analytically  !
 ! A44   A(10,25,27)            93.4239         calculate D2E/DX2 analytically  !
 ! A45   A(10,25,28)            92.4835         calculate D2E/DX2 analytically  !
 ! A46   A(10,25,29)            93.6254         calculate D2E/DX2 analytically  !
 ! A47   A(10,25,30)            92.6734         calculate D2E/DX2 analytically  !
 ! A48   A(27,25,28)            89.7478         calculate D2E/DX2 analytically  !
 ! A49   A(27,25,29)            91.0113         calculate D2E/DX2 analytically  !
 ! A50   A(27,25,31)            87.3678         calculate D2E/DX2 analytically  !
 ! A51   A(28,25,30)            88.8368         calculate D2E/DX2 analytically  !
 ! A52   A(28,25,31)            86.4927         calculate D2E/DX2 analytically  !
 ! A53   A(29,25,30)            89.7526         calculate D2E/DX2 analytically  !
 ! A54   A(29,25,31)            87.3832         calculate D2E/DX2 analytically  !
 ! A55   A(30,25,31)            86.5153         calculate D2E/DX2 analytically  !
 ! A56   A(14,33,34)           128.9808         calculate D2E/DX2 analytically  !
 ! A57   A(32,34,33)           126.4929         calculate D2E/DX2 analytically  !
 ! A58   A(32,34,35)           116.6604         calculate D2E/DX2 analytically  !
 ! A59   A(33,34,35)           116.8462         calculate D2E/DX2 analytically  !
 ! A60   A(34,35,36)           114.9096         calculate D2E/DX2 analytically  !
 ! A61   A(34,35,37)           106.7898         calculate D2E/DX2 analytically  !
 ! A62   A(34,35,38)           107.0807         calculate D2E/DX2 analytically  !
 ! A63   A(36,35,37)           110.8153         calculate D2E/DX2 analytically  !
 ! A64   A(36,35,38)           111.1487         calculate D2E/DX2 analytically  !
 ! A65   A(37,35,38)           105.5644         calculate D2E/DX2 analytically  !
 ! A66   A(35,36,39)           110.9519         calculate D2E/DX2 analytically  !
 ! A67   A(35,36,40)           111.2869         calculate D2E/DX2 analytically  !
 ! A68   A(35,36,41)           110.9496         calculate D2E/DX2 analytically  !
 ! A69   A(39,36,40)           108.309          calculate D2E/DX2 analytically  !
 ! A70   A(39,36,41)           106.9426         calculate D2E/DX2 analytically  !
 ! A71   A(40,36,41)           108.2414         calculate D2E/DX2 analytically  !
 ! A72   L(2,14,33,5,-1)       178.3428         calculate D2E/DX2 analytically  !
 ! A73   L(10,25,31,27,-1)     180.7917         calculate D2E/DX2 analytically  !
 ! A74   L(27,25,30,10,-1)     186.0973         calculate D2E/DX2 analytically  !
 ! A75   L(28,25,29,10,-1)     186.109          calculate D2E/DX2 analytically  !
 ! A76   L(2,14,33,5,-2)       176.9981         calculate D2E/DX2 analytically  !
 ! A77   L(10,25,31,27,-2)     178.9734         calculate D2E/DX2 analytically  !
 ! A78   L(27,25,30,10,-2)     181.1538         calculate D2E/DX2 analytically  !
 ! A79   L(28,25,29,10,-2)     181.1281         calculate D2E/DX2 analytically  !
 ! D1    D(9,1,2,3)            176.9679         calculate D2E/DX2 analytically  !
 ! D2    D(9,1,2,14)            -4.9644         calculate D2E/DX2 analytically  !
 ! D3    D(13,1,2,3)            -3.4931         calculate D2E/DX2 analytically  !
 ! D4    D(13,1,2,14)          174.5745         calculate D2E/DX2 analytically  !
 ! D5    D(2,1,9,10)           179.0722         calculate D2E/DX2 analytically  !
 ! D6    D(2,1,9,22)            -1.3212         calculate D2E/DX2 analytically  !
 ! D7    D(13,1,9,10)           -0.4892         calculate D2E/DX2 analytically  !
 ! D8    D(13,1,9,22)          179.1173         calculate D2E/DX2 analytically  !
 ! D9    D(2,1,13,12)         -179.3842         calculate D2E/DX2 analytically  !
 ! D10   D(2,1,13,24)            0.6406         calculate D2E/DX2 analytically  !
 ! D11   D(9,1,13,12)            0.1421         calculate D2E/DX2 analytically  !
 ! D12   D(9,1,13,24)         -179.833          calculate D2E/DX2 analytically  !
 ! D13   D(1,2,3,4)             -1.3437         calculate D2E/DX2 analytically  !
 ! D14   D(1,2,3,5)            178.7463         calculate D2E/DX2 analytically  !
 ! D15   D(14,2,3,4)          -179.4101         calculate D2E/DX2 analytically  !
 ! D16   D(14,2,3,5)             0.6798         calculate D2E/DX2 analytically  !
 ! D17   D(1,2,33,34)           15.7073         calculate D2E/DX2 analytically  !
 ! D18   D(3,2,33,34)         -167.8628         calculate D2E/DX2 analytically  !
 ! D19   D(2,3,5,6)           -179.6823         calculate D2E/DX2 analytically  !
 ! D20   D(4,3,5,6)              0.4029         calculate D2E/DX2 analytically  !
 ! D21   D(3,5,6,7)           -179.843          calculate D2E/DX2 analytically  !
 ! D22   D(3,5,6,15)            59.0664         calculate D2E/DX2 analytically  !
 ! D23   D(3,5,6,16)           -58.6859         calculate D2E/DX2 analytically  !
 ! D24   D(5,6,7,8)           -179.7986         calculate D2E/DX2 analytically  !
 ! D25   D(5,6,7,17)            58.2667         calculate D2E/DX2 analytically  !
 ! D26   D(5,6,7,18)           -57.8316         calculate D2E/DX2 analytically  !
 ! D27   D(15,6,7,8)           -60.0421         calculate D2E/DX2 analytically  !
 ! D28   D(15,6,7,17)          178.0232         calculate D2E/DX2 analytically  !
 ! D29   D(15,6,7,18)           61.9249         calculate D2E/DX2 analytically  !
 ! D30   D(16,6,7,8)            60.3611         calculate D2E/DX2 analytically  !
 ! D31   D(16,6,7,17)          -61.5736         calculate D2E/DX2 analytically  !
 ! D32   D(16,6,7,18)         -177.672          calculate D2E/DX2 analytically  !
 ! D33   D(6,7,8,19)           -59.9612         calculate D2E/DX2 analytically  !
 ! D34   D(6,7,8,20)          -179.9168         calculate D2E/DX2 analytically  !
 ! D35   D(6,7,8,21)            60.1456         calculate D2E/DX2 analytically  !
 ! D36   D(17,7,8,19)           60.9976         calculate D2E/DX2 analytically  !
 ! D37   D(17,7,8,20)          -58.9579         calculate D2E/DX2 analytically  !
 ! D38   D(17,7,8,21)         -178.8956         calculate D2E/DX2 analytically  !
 ! D39   D(18,7,8,19)          179.0621         calculate D2E/DX2 analytically  !
 ! D40   D(18,7,8,20)           59.1065         calculate D2E/DX2 analytically  !
 ! D41   D(18,7,8,21)          -60.8311         calculate D2E/DX2 analytically  !
 ! D42   D(1,9,10,11)            0.4874         calculate D2E/DX2 analytically  !
 ! D43   D(1,9,10,25)         -179.1639         calculate D2E/DX2 analytically  !
 ! D44   D(22,9,10,11)        -179.1143         calculate D2E/DX2 analytically  !
 ! D45   D(22,9,10,25)           1.2344         calculate D2E/DX2 analytically  !
 ! D46   D(9,10,11,12)          -0.1119         calculate D2E/DX2 analytically  !
 ! D47   D(9,10,11,26)         179.9211         calculate D2E/DX2 analytically  !
 ! D48   D(25,10,11,12)        179.54           calculate D2E/DX2 analytically  !
 ! D49   D(25,10,11,26)         -0.427          calculate D2E/DX2 analytically  !
 ! D50   D(9,10,25,27)          44.5107         calculate D2E/DX2 analytically  !
 ! D51   D(9,10,25,28)         134.4064         calculate D2E/DX2 analytically  !
 ! D52   D(9,10,25,29)         -46.7217         calculate D2E/DX2 analytically  !
 ! D53   D(9,10,25,30)        -136.6431         calculate D2E/DX2 analytically  !
 ! D54   D(11,10,25,27)       -135.1639         calculate D2E/DX2 analytically  !
 ! D55   D(11,10,25,28)        -45.2682         calculate D2E/DX2 analytically  !
 ! D56   D(11,10,25,29)        133.6037         calculate D2E/DX2 analytically  !
 ! D57   D(11,10,25,30)         43.6823         calculate D2E/DX2 analytically  !
 ! D58   D(10,11,12,13)         -0.2691         calculate D2E/DX2 analytically  !
 ! D59   D(10,11,12,23)        179.9349         calculate D2E/DX2 analytically  !
 ! D60   D(26,11,12,13)        179.6983         calculate D2E/DX2 analytically  !
 ! D61   D(26,11,12,23)         -0.0977         calculate D2E/DX2 analytically  !
 ! D62   D(11,12,13,1)           0.2521         calculate D2E/DX2 analytically  !
 ! D63   D(11,12,13,24)       -179.7726         calculate D2E/DX2 analytically  !
 ! D64   D(23,12,13,1)        -179.9518         calculate D2E/DX2 analytically  !
 ! D65   D(23,12,13,24)          0.0235         calculate D2E/DX2 analytically  !
 ! D66   D(14,33,34,32)         -2.024          calculate D2E/DX2 analytically  !
 ! D67   D(14,33,34,35)        177.6944         calculate D2E/DX2 analytically  !
 ! D68   D(32,34,35,36)       -176.0948         calculate D2E/DX2 analytically  !
 ! D69   D(32,34,35,37)         60.5816         calculate D2E/DX2 analytically  !
 ! D70   D(32,34,35,38)        -52.1189         calculate D2E/DX2 analytically  !
 ! D71   D(33,34,35,36)          4.1586         calculate D2E/DX2 analytically  !
 ! D72   D(33,34,35,37)       -119.165          calculate D2E/DX2 analytically  !
 ! D73   D(33,34,35,38)        128.1345         calculate D2E/DX2 analytically  !
 ! D74   D(34,35,36,39)        -59.5276         calculate D2E/DX2 analytically  !
 ! D75   D(34,35,36,40)        179.7953         calculate D2E/DX2 analytically  !
 ! D76   D(34,35,36,41)         59.2054         calculate D2E/DX2 analytically  !
 ! D77   D(37,35,36,39)         61.622          calculate D2E/DX2 analytically  !
 ! D78   D(37,35,36,40)        -59.0551         calculate D2E/DX2 analytically  !
 ! D79   D(37,35,36,41)       -179.6449         calculate D2E/DX2 analytically  !
 ! D80   D(38,35,36,39)        178.6776         calculate D2E/DX2 analytically  !
 ! D81   D(38,35,36,40)         58.0005         calculate D2E/DX2 analytically  !
 ! D82   D(38,35,36,41)        -62.5893         calculate D2E/DX2 analytically  !
 --------------------------------------------------------------------------------
 Trust Radius=3.00D-01 FncErr=5.00D-06 GrdErr=5.00D-06 EigMax=2.50D+02 EigMin=1.00D-04
 Number of steps in this run=    212 maximum allowed number of steps=    246.
 GradGradGradGradGradGradGradGradGradGradGradGradGradGradGradGradGradGrad

                          Input orientation:                          
 ---------------------------------------------------------------------
 Center     Atomic      Atomic             Coordinates (Angstroms)
 Number     Number       Type             X           Y           Z
 ---------------------------------------------------------------------
      1          6           0       -5.929192    1.363752    0.350543
      2          7           0       -4.708568    0.704012    0.273251
      3          6           0       -3.499939    1.298989    0.084949
      4          8           0       -3.277760    2.483257   -0.068793
      5          8           0       -2.530862    0.367940    0.088015
      6          6           0       -1.201052    0.853202   -0.093437
      7          6           0       -0.273476   -0.343074   -0.062370
      8          6           0        1.178900    0.084745   -0.244999
      9          6           0       -7.074218    0.554462    0.483590
     10          6           0       -8.300796    1.174397    0.582842
     11          6           0       -8.488047    2.552021    0.550838
     12          6           0       -7.340628    3.310018    0.411261
     13          6           0       -6.071718    2.756890    0.313159
     14          1           0       -4.717441   -0.344682    0.400147
     15          1           0       -0.963161    1.564642    0.702882
     16          1           0       -1.135682    1.386026   -1.046535
     17          1           0       -0.569754   -1.040854   -0.850123
     18          1           0       -0.402966   -0.866363    0.888694
     19          1           0        1.326174    0.595402   -1.200805
     20          1           0        1.848943   -0.776942   -0.224297
     21          1           0        1.494901    0.768421    0.547938
     22          1           0       -6.981531   -0.536213    0.499946
     23         17           0       -7.494265    5.053665    0.360862
     24          1           0       -5.207979    3.394392    0.209101
     25         16           0       -9.765510    0.128878    0.776790
     26          1           0       -9.463217    3.011122    0.629730
     27          9           0       -9.067930   -0.810594    1.874977
     28          9           0      -10.363541    1.065506    1.968410
     29          9           0       -9.331140   -0.873063   -0.397623
     30          9           0      -10.625281    1.002741   -0.296341
     31          9           0      -11.097384   -0.777389    0.956299
     32          8           0       -6.831925   -2.535127    0.484487
     33          8           0       -4.676393   -1.959117    0.672635
     34          6           0       -5.627328   -2.789673    0.668781
     35          6           0       -5.262569   -4.264260    0.909611
     36          6           0       -3.795330   -4.518700    1.222260
     37          1           0       -5.571478   -4.816584    0.015858
     38          1           0       -5.906854   -4.627130    1.716336
     39          1           0       -3.157303   -4.176768    0.405553
     40          1           0       -3.602837   -5.583758    1.386243
     41          1           0       -3.486601   -3.973919    2.116696
 ---------------------------------------------------------------------
                    Distance matrix (angstroms):
                    1          2          3          4          5
     1  C    0.000000
     2  N    1.389660   0.000000
     3  C    2.444587   1.360234   0.000000
     4  O    2.908475   2.308661   1.214698   0.000000
     5  O    3.550945   2.211258   1.343865   2.248780   0.000000
     6  C    4.776305   3.529786   2.348496   2.640151   1.427165
     7  C    5.922068   4.569363   3.623278   4.124792   2.371487
     8  C    7.246758   5.942588   4.845079   5.064160   3.735429
     9  C    1.408451   2.379686   3.672697   4.294004   4.564357
    10  C    2.390465   3.636098   4.828214   5.231505   5.846996
    11  C    2.828399   4.216237   5.164142   5.247454   6.361798
    12  C    2.404950   3.706488   4.347598   4.173834   5.647492
    13  C    1.400908   2.464565   2.965064   2.833190   4.277317
    14  H    2.095125   1.056381   2.069617   3.207776   2.320858
    15  H    4.982566   3.866954   2.624434   2.607048   2.065876
    16  H    4.993002   3.869431   2.622507   2.597766   2.066454
    17  H    5.995608   4.629936   3.864610   4.512552   2.590511
    18  H    5.983494   4.624182   3.863418   4.516766   2.586993
    19  H    7.459047   6.213111   5.043766   5.103102   4.073024
    20  H    8.087793   6.741048   5.745926   6.077512   4.537729
    21  H    7.450540   6.209882   5.044234   5.108749   4.071693
    22  H    2.177064   2.599213   3.957482   4.812337   4.560223
    23  Cl   4.008118   5.165971   5.488931   4.956866   6.831240
    24  H    2.159549   2.737091   2.706202   2.152473   4.042404
    25  S    4.052645   5.114390   6.411332   6.953345   7.271292
    26  H    3.909104   5.296840   6.228070   6.247116   7.438911
    27  F    4.111370   4.885038   6.217481   6.939292   6.878622
    28  F    4.729682   5.914639   7.121163   7.507896   8.085378
    29  F    4.139607   4.930052   6.241281   6.929389   6.929626
    30  F    4.754160   5.951569   7.141684   7.498652   8.128366
    31  F    5.626866   6.593790   7.924125   8.533999   8.686252
    32  O    4.004264   3.878826   5.095312   6.174333   5.204241
    33  O    3.565769   2.693103   3.513499   4.715991   3.218738
    34  C    4.176522   3.634061   4.645836   5.819645   4.460483
    35  C    5.694864   5.039405   5.893783   7.101108   5.440085
    36  C    6.317951   5.386218   5.935169   7.138774   5.173455
    37  H    6.199720   5.593554   6.457266   7.652188   6.010810
    38  H    6.144637   5.651501   6.601027   7.788224   6.244956
    39  H    6.195463   5.123080   5.495826   6.677982   4.598655
    40  H    7.399494   6.480544   7.005438   8.203629   6.185243
    41  H    6.129950   5.174412   5.650817   6.820198   4.886790
                    6          7          8          9         10
     6  C    0.000000
     7  C    1.514080   0.000000
     8  C    2.505527   1.525049   0.000000
     9  C    5.909001   6.881406   8.298520   0.000000
    10  C    7.139110   8.194931   9.577959   1.377920   0.000000
    11  C    7.510085   8.731368  10.008530   2.448199   1.390660
    12  C    6.632123   7.969570   9.133204   2.769348   2.347816
    13  C    5.245259   6.585622   7.747475   2.425848   2.746963
    14  H    3.747472   4.467970   5.947054   2.523850   3.896333
    15  H    1.094012   2.168100   2.770740   6.197868   7.348985
    16  H    1.093879   2.168356   2.773641   6.188618   7.351090
    17  H    2.135078   1.093267   2.165857   6.828754   8.168827
    18  H    2.135048   1.093217   2.166140   6.832896   8.162963
    19  H    2.771208   2.176155   1.093630   8.567698   9.807915
    20  H    3.460775   2.172354   1.091737   9.049671  10.367082
    21  H    2.772492   2.176017   1.093626   8.572032   9.804169
    22  H    5.974656   6.734353   8.217856   1.094729   2.161833
    23  Cl   7.579895   9.024617  10.014041   4.520434   3.968436
    24  H    4.754433   6.196101   7.207787   3.409310   3.825387
    25  S    8.638974   9.540736  10.992092   2.740463   1.810003
    26  H    8.569886   9.807190  11.071742   3.429846   2.174161
    27  F    8.278324   9.017446  10.502069   2.788230   2.489638
    28  F    9.394013  10.388339  11.793600   3.644928   2.487281
    29  F    8.316902   9.079349  10.554697   2.812128   2.492993
    30  F    9.427600  10.441544  11.839934   3.663236   2.491116
    31  F   10.084550  10.880409  12.365012   4.264170   3.430719
    32  O    6.597083   6.936672   8.459858   3.099075   3.990967
    33  O    4.535858   4.747369   6.269280   3.478992   4.792000
    34  C    5.783030   5.931624   7.444596   3.648428   4.782119
    35  C    6.609876   6.419619   7.857448   5.165623   6.238317
    36  C    6.108901   5.611558   6.934516   6.085533   7.288307
    37  H    7.159543   6.934497   8.346177   5.596887   6.607760
    38  H    7.446738   7.297389   8.732497   5.452642   6.377576
    39  H    5.420010   4.820023   6.114438   6.142708   7.424414
    40  H    7.027979   6.375571   7.593279   7.109362   8.269760
    41  H    5.780098   5.315595   6.619460   6.003688   7.213483
                   11         12         13         14         15
    11  C    0.000000
    12  C    1.382249   0.000000
    13  C    2.436618   1.387698   0.000000
    14  H    4.757212   4.498674   3.385467   0.000000
    15  H    7.590912   6.618418   5.260294   4.222769   0.000000
    16  H    7.613700   6.657948   5.300235   4.232876   1.766955
    17  H    8.807429   8.146528   6.785845   4.387612   3.058627
    18  H    8.784534   8.111798   6.752330   4.373274   2.501625
    19  H   10.159506   9.223956   7.854485   6.322349   3.131215
    20  H   10.887433  10.077469   8.689862   6.610157   3.774997
    21  H   10.141031   9.194834   7.827060   6.313005   2.588445
    22  H    3.436477   3.863976   3.421576   2.274367   6.377738
    23  Cl   2.698502   1.751128   2.702053   6.070786   7.412528
    24  H    3.403707   2.143871   1.078556   3.775950   4.648686
    25  S    2.748561   4.016630   4.556918   5.084202   8.918981
    26  H    1.080718   2.154634   3.415715   5.816916   8.622563
    27  F    3.660163   4.701647   4.913605   4.617245   8.526595
    28  F    2.781494   4.074377   4.901059   6.027148   9.498307
    29  F    3.652614   4.702616   4.930071   4.711883   8.785021
    30  F    2.772318   4.075926   4.917669   6.099444   9.729889
    31  F    4.249471   5.578276   6.177545   6.418739  10.404412
    32  O    5.350347   5.867696   5.349085   3.045686   7.162275
    33  O    5.907107   5.910182   4.931215   1.637783   5.119168
    34  C    6.060636   6.340973   5.575689   2.622601   6.380883
    35  C    7.549445   7.869967   7.092745   3.989964   7.245947
    36  C    8.512784   8.632246   7.677409   4.352997   6.730377
    37  H    7.942853   8.326337   7.595798   4.568913   7.901179
    38  H    7.717588   8.170511   7.517968   4.635345   7.987817
    39  H    8.585718   8.576258   7.521833   4.137505   6.153572
    40  H    9.526494   9.696439   8.764320   5.446343   7.650784
    41  H    8.369843   8.415329   7.432319   4.199151   6.248382
                   16         17         18         19         20
    16  H    0.000000
    17  H    2.499720   0.000000
    18  H    3.058634   1.755491   0.000000
    19  H    2.590294   2.528805   3.081021   0.000000
    20  H    3.776571   2.512250   2.513531   1.763571   0.000000
    21  H    3.137475   3.080722   2.527950   1.765363   1.763473
    22  H    6.345121   6.571775   6.598306   8.555178   8.863393
    23  Cl   7.474217   9.303682   9.252668  10.005752  11.028777
    24  H    4.711025   6.504344   6.457866   7.246885   8.209019
    25  S    8.909482   9.411538   9.415958  11.276257  11.692655
    26  H    8.648620   9.884440   9.858504  11.207030  11.960089
    27  F    8.733896   8.927384   8.721094  10.930447  11.116933
    28  F    9.713187  10.406687  10.203478  12.120823  12.543816
    29  F    8.525850   8.774668   9.020364  10.787949  11.181839
    30  F    9.526920  10.276020  10.459140  11.992551  12.600743
    31  F   10.388802  10.684735  10.695002  12.683944  13.000045
    32  O    7.082843   6.574863   6.654298   8.899158   8.885441
    33  O    5.165478   4.475096   4.416218   6.787206   6.691938
    34  C    6.368175   5.562777   5.571485   7.956462   7.793799
    35  C    7.265222   5.958987   5.929746   8.454686   8.001296
    36  C    6.861993   5.176342   4.995895   7.632502   6.924673
    37  H    7.699178   6.326398   6.563506   8.851411   8.452161
    38  H    8.158161   6.923347   6.717228   9.386227   8.873691
    39  H    6.094275   4.255125   4.333426   6.742074   6.084244
    40  H    7.783519   5.902449   5.721936   8.316850   7.444543
    41  H    6.652959   5.090470   4.546834   7.419388   6.645972
                   21         22         23         24         25
    21  H    0.000000
    22  H    8.576379   0.000000
    23  Cl   9.960092   5.615067   0.000000
    24  H    7.206881   4.322006   2.829015   0.000000
    25  S   11.280880   2.875679   5.439216   5.635330   0.000000
    26  H   11.185560   4.331188   2.849744   4.293119   2.901782
    27  F   10.762329   2.513774   6.257675   5.946115   1.604755
    28  F   11.946910   4.019936   5.169367   5.924415   1.629377
    29  F   10.990529   2.537669   6.251041   5.964876   1.603686
    30  F   12.151812   4.034771   5.161895   5.943285   1.629249
    31  F   12.693381   4.148092   6.880275   7.255835   1.620935
    32  O    8.958431   2.004564   7.618644   6.154042   3.973447
    33  O    6.748325   2.714431   7.564173   5.399769   5.501789
    34  C    7.962461   2.634473   8.068346   6.215289   5.064992
    35  C    8.433391   4.125650   9.597152   7.690816   6.292359
    36  C    7.509654   5.151098  10.298266   8.101795   7.579015
    37  H    9.022700   4.532567  10.061707   8.221290   6.528898
    38  H    9.233803   4.401152   9.903281   8.191765   6.196094
    39  H    6.791036   5.280840  10.198634   7.846421   7.895873
    40  H    8.187788   6.138306  11.373187   9.196158   8.425211
    41  H    7.054513   5.161999  10.032028   7.803465   7.619251
                   26         27         28         29         30
    26  H    0.000000
    27  F    4.038862   0.000000
    28  F    2.527463   2.281905   0.000000
    29  F    4.019924   2.288644   3.228314   0.000000
    30  F    2.498318   3.229264   2.280689   2.281162   0.000000
    31  F    4.138835   2.227948   2.226916   2.227526   2.227296
    32  O    6.140493   3.147569   5.257270   3.128362   5.245546
    33  O    6.900637   4.695778   6.570466   4.898125   6.715712
    34  C    6.954479   4.148422   6.243648   4.304513   6.347708
    35  C    8.405650   5.228816   7.453011   5.455488   7.612773
    36  C    9.443211   6.478920   8.653409   6.823480   8.912951
    37  H    8.763301   5.632890   7.834239   5.464191   7.713815
    38  H    8.495371   4.958177   7.234066   5.503415   7.616421
    39  H    9.564547   6.958868   9.047310   7.048108   9.115409
    40  H   10.430164   7.272496   9.500461   7.627993   9.773832
    41  H    9.312453   6.419991   8.527021   7.077834   9.030540
                   31         32         33         34         35
    31  F    0.000000
    32  O    4.637497   0.000000
    33  O    6.534988   2.239086   0.000000
    34  C    5.835534   1.244914   1.262583   0.000000
    35  C    6.797464   2.373502   2.390282   1.538005   0.000000
    36  C    8.209027   3.701322   2.762213   2.579165   1.521604
    37  H    6.909063   2.648280   3.065559   2.130211   1.095117
    38  H    6.506901   2.598016   3.117955   2.133485   1.094341
    39  H    8.654709   4.025428   2.701286   2.845057   2.166535
    40  H    8.913712   4.531482   3.847049   3.524235   2.173238
    41  H    8.335966   3.990667   2.749608   2.842817   2.166890
                   36         37         38         39         40
    36  C    0.000000
    37  H    2.167681   0.000000
    38  H    2.171267   1.743557   0.000000
    39  H    1.091332   2.527740   3.079125   0.000000
    40  H    1.094666   2.518344   2.516464   1.771969   0.000000
    41  H    1.091840   3.077388   2.538621   1.754308   1.771625
                   41
    41  H    0.000000
 Stoichiometry    C13H16ClF5NO4S(1-)
 Framework group  C1[X(C13H16ClF5NO4S)]
 Deg. of freedom   117
 Full point group                 C1      NOp   1
 Largest Abelian subgroup         C1      NOp   1
 Largest concise Abelian subgroup C1      NOp   1
                         Standard orientation:                         
 ---------------------------------------------------------------------
 Center     Atomic      Atomic             Coordinates (Angstroms)
 Number     Number       Type             X           Y           Z
 ---------------------------------------------------------------------
      1          6           0        0.181659   -1.074900    0.015933
      2          7           0        1.500952   -0.639308    0.045596
      3          6           0        2.597670   -1.443562    0.070548
      4          8           0        2.620408   -2.657820    0.094020
      5          8           0        3.711479   -0.691634    0.067808
      6          6           0        4.945846   -1.407756    0.085385
      7          6           0        6.063132   -0.385941    0.083036
      8          6           0        7.427967   -1.066253    0.096248
      9          6           0       -0.811296   -0.076983    0.059950
     10          6           0       -2.131064   -0.470231    0.012708
     11          6           0       -2.552817   -1.793043   -0.066216
     12          6           0       -1.548105   -2.741765   -0.099230
     13          6           0       -0.198490   -2.420929   -0.063042
     14          1           0        1.665987    0.403721    0.017370
     15          1           0        4.998674   -2.060281   -0.791133
     16          1           0        4.985143   -2.042111    0.975677
     17          1           0        5.949969    0.263812    0.954957
     18          1           0        5.959345    0.249514   -0.800451
     19          1           0        7.551760   -1.692785    0.984031
     20          1           0        8.234745   -0.330726    0.096050
     21          1           0        7.562589   -1.704909   -0.781257
     22          1           0       -0.531317    0.978584    0.136254
     23         17           0       -1.999336   -4.430949   -0.196684
     24          1           0        0.546090   -3.200581   -0.095078
     25         16           0       -3.401152    0.818897    0.046405
     26          1           0       -3.596188   -2.072586   -0.100638
     27          9           0       -2.630618    1.740431   -1.017688
     28          9           0       -4.236732    0.126562   -1.169058
     29          9           0       -2.716148    1.604304    1.265303
     30          9           0       -4.321327   -0.008686    1.106045
     31          9           0       -4.564021    1.947887    0.069817
     32          8           0       -0.034853    2.911701    0.322955
     33          8           0        1.968281    2.008520   -0.107421
     34          6           0        1.179414    2.980482    0.057178
     35          6           0        1.777507    4.390991   -0.077751
     36          6           0        3.240543    4.429611   -0.494061
     37          1           0        1.634144    4.888999    0.886985
     38          1           0        1.150469    4.939471   -0.787381
     39          1           0        3.865797    3.901639    0.227956
     40          1           0        3.603548    5.459131   -0.575361
     41          1           0        3.384994    3.939101   -1.458763
 ---------------------------------------------------------------------
 Rotational constants (GHZ):           0.2177208           0.1100613           0.0756273
 Standard basis: 6-311+G(d) (5D, 7F)
 There are   639 symmetry adapted cartesian basis functions of A   symmetry.
 There are   614 symmetry adapted basis functions of A   symmetry.
   614 basis functions,  1011 primitive gaussians,   639 cartesian basis functions
   106 alpha electrons      106 beta electrons
       nuclear repulsion energy      2806.2835553583 Hartrees.
 NAtoms=   41 NActive=   41 NUniq=   41 SFac= 1.00D+00 NAtFMM=   60 NAOKFM=F Big=F
 Integral buffers will be    131072 words long.
 Raffenetti 2 integral format.
 Two-electron integral symmetry is turned on.
 Nuclear repulsion after empirical dispersion term =     2806.2807522665 Hartrees.
 Force inversion solution in PCM.
 ------------------------------------------------------------------------------
 Polarizable Continuum Model (PCM)
 =================================
 Model                : PCM.
 Atomic radii         : SMD-Coulomb.
 Polarization charges : Total charges.
 Charge compensation  : None.
 Solution method      : Matrix inversion.
 Cavity type          : VdW (van der Waals Surface) (Alpha=1.000).
 Cavity algorithm     : GePol (No added spheres)
                        Default sphere list used, NSphG=   41.
                        Lebedev-Laikov grids with approx.  5.0 points / Ang**2.
                        Smoothing algorithm: York/Karplus (Gamma=1.0000).
                        Polarization charges: spherical gaussians, with
                                              point-specific exponents (IZeta= 3).
                        Self-potential: point-specific (ISelfS= 7).
                        Self-field    : sphere-specific E.n sum rule (ISelfD= 2).
 1st derivatives      : Analytical E(r).r(x)/FMM algorithm (CHGder, D1EAlg=3).
                        Cavity 1st derivative terms included.
 2nd derivatives      : Analytical E(r).r(xy)/FMM algorithm (CHGder, D2EAlg=3).
                        Cavity 2nd derivative terms included.
 Solvent              : Water, Eps=  78.355300 Eps(inf)=   1.777849
 ------------------------------------------------------------------------------
 ------------------------------------------------------------------------------
 Atomic radii for non-electrostatic terms: SMD-CDS.
 ------------------------------------------------------------------------------
 Nuclear repulsion after PCM non-electrostatic terms =     2806.2993890146 Hartrees.
 One-electron integrals computed using PRISM.
 NBasis=   614 RedAO= T EigKep=  2.66D-06  NBF=   614
 NBsUse=   610 1.00D-06 EigRej=  8.84D-07 NBFU=   610
 ExpMin= 4.05D-02 ExpMax= 1.06D+05 ExpMxC= 3.62D+03 IAcc=3 IRadAn=         5 AccDes= 0.00D+00
 Harris functional with IExCor= 1009 and IRadAn=       5 diagonalized for initial guess.
 HarFok:  IExCor= 1009 AccDes= 0.00D+00 IRadAn=         5 IDoV= 1 UseB2=F ITyADJ=14
 ICtDFT=  3500011 ScaDFX=  1.000000  1.000000  1.000000  1.000000
 FoFCou: FMM=F IPFlag=           0 FMFlag=      100000 FMFlg1=           0
         NFxFlg=           0 DoJE=T BraDBF=F KetDBF=T FulRan=T
         wScrn=  0.000000 ICntrl=       500 IOpCl=  0 I1Cent=   200000004 NGrid=           0
         NMat0=    1 NMatS0=      1 NMatT0=    0 NMatD0=    1 NMtDS0=    0 NMtDT0=    0
 Petite list used in FoFCou.
 Requested convergence on RMS density matrix=1.00D-08 within 128 cycles.
 Requested convergence on MAX density matrix=1.00D-06.
 Requested convergence on             energy=1.00D-06.
 No special actions if energy rises.
 Inv3:  Mode=1 IEnd=    32334267.
 Iteration    1 A*A^-1 deviation from unit magnitude is 5.66D-15 for   3273.
 Iteration    1 A*A^-1 deviation from orthogonality  is 2.66D-15 for   3170   1404.
 Iteration    1 A^-1*A deviation from unit magnitude is 5.77D-15 for   3273.
 Iteration    1 A^-1*A deviation from orthogonality  is 4.00D-15 for   3265   2078.
 Error on total polarization charges =  0.05392
 SCF Done:  E(RM062X) =  -2218.22608167     A.U. after   16 cycles
            NFock= 16  Conv=0.22D-08     -V/T= 2.0025
 SMD-CDS (non-electrostatic) energy       (kcal/mol) =      11.69
 (included in total energy above)
 DoSCS=F DFT=T ScalE2(SS,OS)=  1.000000  1.000000
 Range of M.O.s used for correlation:     1   610
 NBasis=   614 NAE=   106 NBE=   106 NFC=     0 NFV=     0
 NROrb=    610 NOA=   106 NOB=   106 NVA=   504 NVB=   504

 **** Warning!!: The largest alpha MO coefficient is  0.11521539D+03

 Symmetrizing basis deriv contribution to polar:
 IMax=3 JMax=2 DiffMx= 0.00D+00
 G2DrvN: will do    42 centers at a time, making    1 passes.
 Calling FoFCou, ICntrl=  3107 FMM=F I1Cent=   0 AccDes= 0.00D+00.
 NEqPCM:  Using equilibrium solvation (IEInf=0, Eps=  78.3553, EpsInf=   1.7778)
 G2PCM: DoFxE=T DoFxN=T DoGrad=T DoDP/DQ/DG/TGxP=FFFF NFrqRd=   0 IEInf=0 SqF1=F DoCFld=F IF1Alg=4.
 End of G2Drv F.D. properties file   721 does not exist.
 End of G2Drv F.D. properties file   722 does not exist.
 End of G2Drv F.D. properties file   788 does not exist.
          IDoAtm=11111111111111111111111111111111111111111
 NEqPCM:  Using equilibrium solvation (IEInf=0, Eps=  78.3553, EpsInf=   1.7778)
          Differentiating once with respect to nuclear coordinates.
 CalDSu exits because no D1Ps are significant.
          There are   126 degrees of freedom in the 1st order CPHF.  IDoFFX=6 NUNeed=     0.
    120 vectors produced by pass  0 Test12= 5.34D-14 1.00D-09 XBig12= 3.46D-01 1.48D-01.
 AX will form    64 AO Fock derivatives at one time.
    120 vectors produced by pass  1 Test12= 5.34D-14 1.00D-09 XBig12= 3.88D-02 4.00D-02.
    120 vectors produced by pass  2 Test12= 5.34D-14 1.00D-09 XBig12= 1.09D-03 5.20D-03.
    120 vectors produced by pass  3 Test12= 5.34D-14 1.00D-09 XBig12= 1.74D-05 6.36D-04.
    120 vectors produced by pass  4 Test12= 5.34D-14 1.00D-09 XBig12= 1.57D-07 4.83D-05.
    120 vectors produced by pass  5 Test12= 5.34D-14 1.00D-09 XBig12= 8.52D-10 3.00D-06.
    103 vectors produced by pass  6 Test12= 5.34D-14 1.00D-09 XBig12= 4.93D-12 1.65D-07.
     34 vectors produced by pass  7 Test12= 5.34D-14 1.00D-09 XBig12= 2.41D-14 1.22D-08.
 InvSVY:  IOpt=1 It=  1 EMax= 7.77D-16
 Solved reduced A of dimension   857 with   126 vectors.
 End of Minotr F.D. properties file   721 does not exist.
 End of Minotr F.D. properties file   722 does not exist.
 End of Minotr F.D. properties file   788 does not exist.

 **********************************************************************

            Population analysis using the SCF Density.

 **********************************************************************

 Orbital symmetries:
       Occupied  (A) (A) (A) (A) (A) (A) (A) (A) (A) (A) (A) (A)
                 (A) (A) (A) (A) (A) (A) (A) (A) (A) (A) (A) (A)
                 (A) (A) (A) (A) (A) (A) (A) (A) (A) (A) (A) (A)
                 (A) (A) (A) (A) (A) (A) (A) (A) (A) (A) (A) (A)
                 (A) (A) (A) (A) (A) (A) (A) (A) (A) (A) (A) (A)
                 (A) (A) (A) (A) (A) (A) (A) (A) (A) (A) (A) (A)
                 (A) (A) (A) (A) (A) (A) (A) (A) (A) (A) (A) (A)
                 (A) (A) (A) (A) (A) (A) (A) (A) (A) (A) (A) (A)
                 (A) (A) (A) (A) (A) (A) (A) (A) (A) (A)
       Virtual   (A) (A) (A) (A) (A) (A) (A) (A) (A) (A) (A) (A)
                 (A) (A) (A) (A) (A) (A) (A) (A) (A) (A) (A) (A)
                 (A) (A) (A) (A) (A) (A) (A) (A) (A) (A) (A) (A)
                 (A) (A) (A) (A) (A) (A) (A) (A) (A) (A) (A) (A)
                 (A) (A) (A) (A) (A) (A) (A) (A) (A) (A) (A) (A)
                 (A) (A) (A) (A) (A) (A) (A) (A) (A) (A) (A) (A)
                 (A) (A) (A) (A) (A) (A) (A) (A) (A) (A) (A) (A)
                 (A) (A) (A) (A) (A) (A) (A) (A) (A) (A) (A) (A)
                 (A) (A) (A) (A) (A) (A) (A) (A) (A) (A) (A) (A)
                 (A) (A) (A) (A) (A) (A) (A) (A) (A) (A) (A) (A)
                 (A) (A) (A) (A) (A) (A) (A) (A) (A) (A) (A) (A)
                 (A) (A) (A) (A) (A) (A) (A) (A) (A) (A) (A) (A)
                 (A) (A) (A) (A) (A) (A) (A) (A) (A) (A) (A) (A)
                 (A) (A) (A) (A) (A) (A) (A) (A) (A) (A) (A) (A)
                 (A) (A) (A) (A) (A) (A) (A) (A) (A) (A) (A) (A)
                 (A) (A) (A) (A) (A) (A) (A) (A) (A) (A) (A) (A)
                 (A) (A) (A) (A) (A) (A) (A) (A) (A) (A) (A) (A)
                 (A) (A) (A) (A) (A) (A) (A) (A) (A) (A) (A) (A)
                 (A) (A) (A) (A) (A) (A) (A) (A) (A) (A) (A) (A)
                 (A) (A) (A) (A) (A) (A) (A) (A) (A) (A) (A) (A)
                 (A) (A) (A) (A) (A) (A) (A) (A) (A) (A) (A) (A)
                 (A) (A) (A) (A) (A) (A) (A) (A) (A) (A) (A) (A)
                 (A) (A) (A) (A) (A) (A) (A) (A) (A) (A) (A) (A)
                 (A) (A) (A) (A) (A) (A) (A) (A) (A) (A) (A) (A)
                 (A) (A) (A) (A) (A) (A) (A) (A) (A) (A) (A) (A)
                 (A) (A) (A) (A) (A) (A) (A) (A) (A) (A) (A) (A)
                 (A) (A) (A) (A) (A) (A) (A) (A) (A) (A) (A) (A)
                 (A) (A) (A) (A) (A) (A) (A) (A) (A) (A) (A) (A)
                 (A) (A) (A) (A) (A) (A) (A) (A) (A) (A) (A) (A)
                 (A) (A) (A) (A) (A) (A) (A) (A) (A) (A) (A) (A)
                 (A) (A) (A) (A) (A) (A) (A) (A) (A) (A) (A) (A)
                 (A) (A) (A) (A) (A) (A) (A) (A) (A) (A) (A) (A)
                 (A) (A) (A) (A) (A) (A) (A) (A) (A) (A) (A) (A)
                 (A) (A) (A) (A) (A) (A) (A) (A) (A) (A) (A) (A)
                 (A) (A) (A) (A) (A) (A) (A) (A) (A) (A) (A) (A)
                 (A) (A) (A) (A) (A) (A) (A) (A) (A) (A) (A) (A)
                 (A) (A) (A) (A) (A) (A) (A) (A) (A) (A) (A) (A)
                 (A) (A) (A) (A) (A) (A) (A) (A) (A) (A) (A) (A)
                 (A) (A) (A) (A) (A) (A) (A) (A) (A) (A) (A) (A)
                 (A) (A) (A) (A) (A) (A) (A) (A) (A) (A) (A) (A)
                 (A) (A) (A) (A) (A) (A) (A) (A) (A) (A) (A) (A)
                 (A) (A) (A) (A) (A) (A) (A) (A) (A) (A) (A) (A)
 The electronic state is 1-A.
 Alpha  occ. eigenvalues -- -102.68685 -90.28615 -25.29651 -25.29615 -25.29087
 Alpha  occ. eigenvalues --  -25.28721 -25.28699 -19.67036 -19.61616 -19.58030
 Alpha  occ. eigenvalues --  -19.57486 -14.78168 -10.70898 -10.63791 -10.62610
 Alpha  occ. eigenvalues --  -10.61889 -10.61268 -10.58590 -10.57549 -10.56805
 Alpha  occ. eigenvalues --  -10.56499 -10.52852 -10.52221 -10.51791 -10.51240
 Alpha  occ. eigenvalues --   -9.82945  -8.60949  -7.55455  -7.54786  -7.54771
 Alpha  occ. eigenvalues --   -6.53369  -6.53358  -6.52901  -1.50961  -1.41015
 Alpha  occ. eigenvalues --   -1.40907  -1.37808  -1.36363  -1.25244  -1.16998
 Alpha  occ. eigenvalues --   -1.15343  -1.07641  -1.06637  -1.01604  -0.97485
 Alpha  occ. eigenvalues --   -0.93282  -0.89346  -0.86691  -0.85459  -0.85258
 Alpha  occ. eigenvalues --   -0.79574  -0.76577  -0.74713  -0.74457  -0.72624
 Alpha  occ. eigenvalues --   -0.71923  -0.69824  -0.67433  -0.65888  -0.64944
 Alpha  occ. eigenvalues --   -0.64753  -0.63107  -0.62098  -0.60706  -0.60006
 Alpha  occ. eigenvalues --   -0.59098  -0.58869  -0.58640  -0.56433  -0.56239
 Alpha  occ. eigenvalues --   -0.55965  -0.55931  -0.55882  -0.54285  -0.53461
 Alpha  occ. eigenvalues --   -0.53384  -0.53104  -0.52994  -0.52765  -0.52282
 Alpha  occ. eigenvalues --   -0.52014  -0.50774  -0.50172  -0.49423  -0.49086
 Alpha  occ. eigenvalues --   -0.46837  -0.46612  -0.46351  -0.45067  -0.44761
 Alpha  occ. eigenvalues --   -0.43883  -0.42981  -0.42606  -0.41397  -0.39921
 Alpha  occ. eigenvalues --   -0.39776  -0.39414  -0.39139  -0.39061  -0.37645
 Alpha  occ. eigenvalues --   -0.37570  -0.34176  -0.33348  -0.32658  -0.31658
 Alpha  occ. eigenvalues --   -0.28927
 Alpha virt. eigenvalues --   -0.02632  -0.01770  -0.00182   0.01225   0.02052
 Alpha virt. eigenvalues --    0.02824   0.03110   0.03219   0.03798   0.04068
 Alpha virt. eigenvalues --    0.04453   0.04471   0.04775   0.05406   0.05634
 Alpha virt. eigenvalues --    0.06043   0.06431   0.06765   0.07007   0.07459
 Alpha virt. eigenvalues --    0.07746   0.07999   0.08434   0.08532   0.08943
 Alpha virt. eigenvalues --    0.09091   0.09437   0.09600   0.10116   0.10405
 Alpha virt. eigenvalues --    0.10605   0.11233   0.11373   0.11898   0.12028
 Alpha virt. eigenvalues --    0.12799   0.13010   0.13105   0.13435   0.14027
 Alpha virt. eigenvalues --    0.14491   0.14664   0.15163   0.15279   0.15713
 Alpha virt. eigenvalues --    0.16262   0.16967   0.17352   0.17541   0.18029
 Alpha virt. eigenvalues --    0.18285   0.18797   0.19352   0.19852   0.20159
 Alpha virt. eigenvalues --    0.20756   0.21137   0.21270   0.21498   0.21868
 Alpha virt. eigenvalues --    0.22394   0.22627   0.22857   0.22892   0.23546
 Alpha virt. eigenvalues --    0.23912   0.24322   0.24630   0.24857   0.25044
 Alpha virt. eigenvalues --    0.25340   0.25741   0.25984   0.26228   0.26435
 Alpha virt. eigenvalues --    0.26832   0.27161   0.27375   0.27526   0.27945
 Alpha virt. eigenvalues --    0.28336   0.28575   0.29106   0.29392   0.29464
 Alpha virt. eigenvalues --    0.29890   0.30072   0.30241   0.30676   0.30995
 Alpha virt. eigenvalues --    0.31391   0.31737   0.31768   0.32010   0.32148
 Alpha virt. eigenvalues --    0.32606   0.33050   0.33131   0.33445   0.34016
 Alpha virt. eigenvalues --    0.34471   0.34818   0.35264   0.35643   0.35879
 Alpha virt. eigenvalues --    0.36222   0.36434   0.37001   0.37882   0.38198
 Alpha virt. eigenvalues --    0.38297   0.38731   0.39160   0.39522   0.39730
 Alpha virt. eigenvalues --    0.40741   0.41194   0.42376   0.43017   0.43754
 Alpha virt. eigenvalues --    0.44476   0.44696   0.44773   0.44963   0.45538
 Alpha virt. eigenvalues --    0.45647   0.46367   0.46805   0.47686   0.48182
 Alpha virt. eigenvalues --    0.48511   0.48713   0.49137   0.49524   0.49831
 Alpha virt. eigenvalues --    0.50299   0.51188   0.51816   0.53093   0.53269
 Alpha virt. eigenvalues --    0.54209   0.54393   0.55338   0.55634   0.55965
 Alpha virt. eigenvalues --    0.56096   0.57164   0.57750   0.58159   0.58699
 Alpha virt. eigenvalues --    0.59466   0.60756   0.61292   0.61787   0.62116
 Alpha virt. eigenvalues --    0.62570   0.63064   0.63180   0.63862   0.64869
 Alpha virt. eigenvalues --    0.65231   0.65972   0.66394   0.67260   0.67658
 Alpha virt. eigenvalues --    0.68781   0.69484   0.69869   0.70142   0.70575
 Alpha virt. eigenvalues --    0.71487   0.71764   0.72307   0.73166   0.73591
 Alpha virt. eigenvalues --    0.73665   0.74069   0.74411   0.75375   0.75814
 Alpha virt. eigenvalues --    0.76322   0.76472   0.77550   0.77609   0.78596
 Alpha virt. eigenvalues --    0.79537   0.79909   0.79966   0.80552   0.80856
 Alpha virt. eigenvalues --    0.83147   0.83811   0.84188   0.86062   0.88531
 Alpha virt. eigenvalues --    0.89470   0.90522   0.91117   0.92262   0.92607
 Alpha virt. eigenvalues --    0.93266   0.93551   0.94652   0.94911   0.96318
 Alpha virt. eigenvalues --    0.97485   0.97865   0.99289   0.99608   1.00486
 Alpha virt. eigenvalues --    1.02278   1.02693   1.04879   1.05211   1.05790
 Alpha virt. eigenvalues --    1.07084   1.07536   1.08917   1.09293   1.09642
 Alpha virt. eigenvalues --    1.11448   1.13029   1.13300   1.14787   1.16017
 Alpha virt. eigenvalues --    1.16668   1.18006   1.19050   1.19464   1.20119
 Alpha virt. eigenvalues --    1.21518   1.22108   1.22762   1.23566   1.23888
 Alpha virt. eigenvalues --    1.25033   1.25336   1.25861   1.26814   1.27284
 Alpha virt. eigenvalues --    1.28334   1.31668   1.32170   1.33699   1.34362
 Alpha virt. eigenvalues --    1.35505   1.35830   1.37634   1.38280   1.38553
 Alpha virt. eigenvalues --    1.38652   1.39788   1.41225   1.42421   1.43300
 Alpha virt. eigenvalues --    1.44069   1.44882   1.46185   1.48787   1.49760
 Alpha virt. eigenvalues --    1.51088   1.51277   1.52103   1.52158   1.52958
 Alpha virt. eigenvalues --    1.53781   1.54228   1.57149   1.57559   1.57757
 Alpha virt. eigenvalues --    1.59909   1.60430   1.61497   1.62404   1.62950
 Alpha virt. eigenvalues --    1.63245   1.63696   1.64412   1.65381   1.67399
 Alpha virt. eigenvalues --    1.68937   1.69418   1.70213   1.70420   1.72769
 Alpha virt. eigenvalues --    1.75136   1.75239   1.75522   1.76681   1.78360
 Alpha virt. eigenvalues --    1.78498   1.79848   1.79986   1.81043   1.82058
 Alpha virt. eigenvalues --    1.84448   1.85549   1.86315   1.87884   1.88114
 Alpha virt. eigenvalues --    1.88591   1.89934   1.90685   1.91527   1.93010
 Alpha virt. eigenvalues --    1.94612   1.95978   1.98251   1.99229   2.00232
 Alpha virt. eigenvalues --    2.01436   2.02364   2.03013   2.07277   2.07387
 Alpha virt. eigenvalues --    2.08617   2.10432   2.10863   2.13416   2.16481
 Alpha virt. eigenvalues --    2.18273   2.20346   2.21047   2.23294   2.24704
 Alpha virt. eigenvalues --    2.26411   2.29350   2.30096   2.30902   2.35437
 Alpha virt. eigenvalues --    2.36583   2.40397   2.43728   2.44942   2.48122
 Alpha virt. eigenvalues --    2.51854   2.53950   2.55065   2.55751   2.56599
 Alpha virt. eigenvalues --    2.57470   2.57970   2.58701   2.60072   2.60990
 Alpha virt. eigenvalues --    2.61224   2.61987   2.64036   2.67558   2.68147
 Alpha virt. eigenvalues --    2.69440   2.72433   2.73589   2.75646   2.76111
 Alpha virt. eigenvalues --    2.77177   2.84530   2.85368   2.86190   2.87989
 Alpha virt. eigenvalues --    2.93033   2.93945   2.94822   2.96674   2.97506
 Alpha virt. eigenvalues --    2.99951   3.00052   3.02040   3.02853   3.03533
 Alpha virt. eigenvalues --    3.05824   3.09158   3.10776   3.11615   3.12445
 Alpha virt. eigenvalues --    3.14053   3.18349   3.19392   3.20750   3.22130
 Alpha virt. eigenvalues --    3.22322   3.26116   3.26257   3.28319   3.30429
 Alpha virt. eigenvalues --    3.30930   3.31075   3.33385   3.35847   3.36972
 Alpha virt. eigenvalues --    3.38610   3.38882   3.39581   3.43584   3.45294
 Alpha virt. eigenvalues --    3.47056   3.47183   3.50111   3.56710   3.62759
 Alpha virt. eigenvalues --    3.65444   3.69761   3.71869   3.76646   3.77343
 Alpha virt. eigenvalues --    3.78745   3.79301   3.80156   3.80529   3.82389
 Alpha virt. eigenvalues --    3.82862   3.82963   3.83400   3.83843   3.84237
 Alpha virt. eigenvalues --    3.85396   3.86200   3.87849   3.88353   3.88842
 Alpha virt. eigenvalues --    3.89012   3.90742   3.91305   3.91461   3.92669
 Alpha virt. eigenvalues --    3.95269   3.98394   4.00320   4.03251   4.04406
 Alpha virt. eigenvalues --    4.08196   4.11451   4.13350   4.18089   4.20864
 Alpha virt. eigenvalues --    4.23961   4.26820   4.28419   4.30626   4.32554
 Alpha virt. eigenvalues --    4.38299   4.69976   4.78563   5.09814   5.11116
 Alpha virt. eigenvalues --    5.16599   5.19002   5.20647   5.37868   5.38962
 Alpha virt. eigenvalues --    5.44711   5.53059   5.76864   5.81114   5.97201
 Alpha virt. eigenvalues --    6.02437   6.35870   6.38067   6.39029   6.41052
 Alpha virt. eigenvalues --    6.43036   6.43574   6.48803   6.52261   6.52445
 Alpha virt. eigenvalues --    6.54300   6.58455   6.63342   6.65140   6.66066
 Alpha virt. eigenvalues --    6.72030   8.23515   9.96355  17.51237  17.56239
 Alpha virt. eigenvalues --   17.61590  23.48518  23.60021  23.63810  23.74403
 Alpha virt. eigenvalues --   23.81833  23.83331  23.92378  23.93748  23.97080
 Alpha virt. eigenvalues --   23.98002  24.08560  24.12510  24.20030  25.93456
 Alpha virt. eigenvalues --   26.23095  26.71403  35.72075  50.03194  50.07800
 Alpha virt. eigenvalues --   50.14174  50.16665  66.89109  66.91539  66.96088
 Alpha virt. eigenvalues --   66.98452  67.06706 189.48243 216.06451
          Condensed to atoms (all electrons):
               1          2          3          4          5          6
     1  C   24.503633  -0.122595  -2.000399  -0.216918  -0.411112  -0.974249
     2  N   -0.122595   7.822793   0.313696  -0.036566  -0.126086  -0.252268
     3  C   -2.000399   0.313696   9.513081   0.506338   0.201936  -0.648517
     4  O   -0.216918  -0.036566   0.506338   8.189961  -0.184969  -0.158015
     5  O   -0.411112  -0.126086   0.201936  -0.184969   8.389576   0.394990
     6  C   -0.974249  -0.252268  -0.648517  -0.158015   0.394990   8.457244
     7  C   -0.047399   0.020068   0.148142   0.041135  -0.150226  -0.996928
     8  C   -0.026147  -0.007887  -0.273953   0.000729   0.032359   0.359347
     9  C   -0.492334  -0.134665   0.777407  -0.006604  -0.020631   0.141888
    10  C   -3.723289   0.112015  -0.871399   0.000355   0.019595  -0.090019
    11  C   -0.991495   0.018679  -0.341643  -0.009456  -0.004870  -0.031910
    12  C   -5.465831   0.064798  -0.541068   0.085880   0.034873  -0.057593
    13  C   -3.303329  -0.163384  -0.894246   0.197893   0.016732  -0.372226
    14  H   -0.082837   0.045651   0.001953   0.002444  -0.017608  -0.019343
    15  H    0.004032   0.002975   0.009926  -0.001715  -0.041413   0.402818
    16  H    0.012518   0.003869   0.039258  -0.000991  -0.046360   0.364815
    17  H    0.000373  -0.001280   0.000700  -0.000428   0.002001  -0.057593
    18  H   -0.001086  -0.000927  -0.002097  -0.000395   0.001856  -0.053993
    19  H   -0.000270  -0.000057  -0.005758  -0.000061  -0.000173  -0.045921
    20  H    0.000239   0.000019   0.009768   0.000026  -0.000717   0.092256
    21  H   -0.000208  -0.000022  -0.002007  -0.000055  -0.000055  -0.045462
    22  H    0.021848  -0.060814  -0.009182   0.000298  -0.002183  -0.001270
    23  Cl  -0.227391   0.000700  -0.010967   0.000647   0.000522   0.001316
    24  H    0.099395  -0.027132   0.117658   0.001664   0.002121   0.013532
    25  S   -0.425800   0.057761  -0.151109   0.000479   0.001932  -0.008848
    26  H   -0.004387   0.001081   0.001994   0.000004   0.000003   0.000025
    27  F   -0.020209   0.002545  -0.004721   0.000011   0.000029   0.000033
    28  F   -0.012666  -0.000351  -0.000401  -0.000004   0.000001  -0.000002
    29  F   -0.018917   0.003599  -0.003381   0.000009   0.000024   0.000027
    30  F   -0.005521  -0.000314  -0.000154  -0.000005   0.000001  -0.000005
    31  F   -0.001340  -0.000100   0.000016  -0.000000  -0.000000   0.000002
    32  O   -0.021041   0.003082  -0.002623  -0.000064   0.000535  -0.000093
    33  O    0.055821   0.064516  -0.071620   0.000500   0.008689  -0.015494
    34  C    0.009583  -0.025055   0.049193   0.001767  -0.000709   0.018588
    35  C    0.053285  -0.008685  -0.007671   0.001694  -0.003634  -0.004061
    36  C   -0.005145   0.001576  -0.000206  -0.000164  -0.001923  -0.001012
    37  H    0.000380  -0.000016   0.000058  -0.000000   0.000034  -0.000097
    38  H   -0.000588   0.000186   0.000201  -0.000000   0.000006   0.000010
    39  H    0.000229   0.000300  -0.000324  -0.000001   0.000042  -0.000189
    40  H    0.000003  -0.000128   0.000053  -0.000000  -0.000009   0.000009
    41  H    0.001032   0.000093  -0.000227   0.000002   0.000163  -0.000062
               7          8          9         10         11         12
     1  C   -0.047399  -0.026147  -0.492334  -3.723289  -0.991495  -5.465831
     2  N    0.020068  -0.007887  -0.134665   0.112015   0.018679   0.064798
     3  C    0.148142  -0.273953   0.777407  -0.871399  -0.341643  -0.541068
     4  O    0.041135   0.000729  -0.006604   0.000355  -0.009456   0.085880
     5  O   -0.150226   0.032359  -0.020631   0.019595  -0.004870   0.034873
     6  C   -0.996928   0.359347   0.141888  -0.090019  -0.031910  -0.057593
     7  C    6.656780  -0.273425   0.015432  -0.004337   0.000560  -0.011019
     8  C   -0.273425   6.343810   0.001953  -0.000522  -0.000172   0.000213
     9  C    0.015432   0.001953   7.598241  -1.056950  -0.113663  -0.699205
    10  C   -0.004337  -0.000522  -1.056950  21.984399   0.329890  -8.186927
    11  C    0.000560  -0.000172  -0.113663   0.329890   9.373852  -0.675310
    12  C   -0.011019   0.000213  -0.699205  -8.186927  -0.675310  20.728175
    13  C   -0.009712  -0.008039  -0.086003   0.182847  -1.177160   1.340655
    14  H    0.002951  -0.000500  -0.020333  -0.006240  -0.003595   0.028619
    15  H   -0.032121  -0.013645   0.000290  -0.000036   0.000071  -0.000188
    16  H   -0.025698  -0.015341  -0.000189   0.000015   0.000050  -0.000608
    17  H    0.444906  -0.055457  -0.000107   0.000011   0.000001   0.000019
    18  H    0.446881  -0.058230   0.000053  -0.000016   0.000002   0.000028
    19  H    0.018348   0.375807   0.000011  -0.000002   0.000000  -0.000005
    20  H   -0.144971   0.393508  -0.000014   0.000001  -0.000000   0.000001
    21  H    0.022953   0.367477   0.000004  -0.000001   0.000000   0.000001
    22  H    0.000014  -0.000006   0.197458  -0.058068   0.024247   0.069615
    23  Cl  -0.000142   0.000017  -0.033371  -0.219249  -0.176770  -0.327685
    24  H   -0.000682   0.000105   0.022211  -0.000085  -0.005587  -0.192296
    25  S    0.000052  -0.000052   0.397308  -1.248687  -0.096894  -0.643181
    26  H   -0.000000   0.000000   0.009511  -0.078464   0.372934  -0.010280
    27  F   -0.000002   0.000000   0.001652  -0.232541   0.187497   0.088477
    28  F    0.000000   0.000000   0.017146   0.324746  -0.142062  -0.170085
    29  F   -0.000003   0.000000   0.019765  -0.247734   0.179242   0.084745
    30  F    0.000000   0.000000   0.003714   0.354779  -0.165657  -0.184018
    31  F   -0.000000   0.000000   0.026519  -0.035105   0.014522  -0.017045
    32  O    0.000020  -0.000002   0.009820   0.002948  -0.006213  -0.013994
    33  O    0.001400   0.000597  -0.089916   0.024431  -0.002393   0.010073
    34  C   -0.001978  -0.001336   0.034903  -0.026649  -0.023259   0.031555
    35  C    0.001026   0.002829  -0.292794   0.076810   0.025307   0.009338
    36  C    0.002205  -0.002657   0.012984  -0.002448  -0.000173  -0.000283
    37  H    0.000078   0.000001  -0.001305   0.000132  -0.000033   0.000000
    38  H    0.000006  -0.000002   0.004798  -0.001260  -0.000113  -0.000038
    39  H    0.001124   0.000271   0.000380   0.000030  -0.000002  -0.000006
    40  H    0.000027   0.000005   0.000148  -0.000034  -0.000002   0.000001
    41  H   -0.000349   0.000035  -0.001882   0.000262   0.000008   0.000018
              13         14         15         16         17         18
     1  C   -3.303329  -0.082837   0.004032   0.012518   0.000373  -0.001086
     2  N   -0.163384   0.045651   0.002975   0.003869  -0.001280  -0.000927
     3  C   -0.894246   0.001953   0.009926   0.039258   0.000700  -0.002097
     4  O    0.197893   0.002444  -0.001715  -0.000991  -0.000428  -0.000395
     5  O    0.016732  -0.017608  -0.041413  -0.046360   0.002001   0.001856
     6  C   -0.372226  -0.019343   0.402818   0.364815  -0.057593  -0.053993
     7  C   -0.009712   0.002951  -0.032121  -0.025698   0.444906   0.446881
     8  C   -0.008039  -0.000500  -0.013645  -0.015341  -0.055457  -0.058230
     9  C   -0.086003  -0.020333   0.000290  -0.000189  -0.000107   0.000053
    10  C    0.182847  -0.006240  -0.000036   0.000015   0.000011  -0.000016
    11  C   -1.177160  -0.003595   0.000071   0.000050   0.000001   0.000002
    12  C    1.340655   0.028619  -0.000188  -0.000608   0.000019   0.000028
    13  C   10.480882   0.081821  -0.003123  -0.003578   0.000024   0.000254
    14  H    0.081821   0.294038  -0.000005   0.000000  -0.000134  -0.000119
    15  H   -0.003123  -0.000005   0.431028  -0.042691   0.005093  -0.007688
    16  H   -0.003578   0.000000  -0.042691   0.436924  -0.007996   0.005094
    17  H    0.000024  -0.000134   0.005093  -0.007996   0.435480  -0.036048
    18  H    0.000254  -0.000119  -0.007688   0.005094  -0.036048   0.438278
    19  H   -0.000044  -0.000000  -0.000471   0.002914  -0.007095   0.005919
    20  H    0.000037  -0.000000  -0.000133  -0.000148  -0.003447  -0.003479
    21  H    0.000059  -0.000000   0.002910  -0.000533   0.005972  -0.007083
    22  H    0.006387   0.027415  -0.000001  -0.000000  -0.000001  -0.000001
    23  Cl   0.140190   0.000293  -0.000001  -0.000004   0.000000   0.000000
    24  H    0.300942  -0.000985  -0.000026  -0.000006  -0.000000  -0.000000
    25  S   -0.025402  -0.001980   0.000001  -0.000001   0.000001   0.000000
    26  H   -0.016379  -0.000004  -0.000000  -0.000000   0.000000   0.000000
    27  F   -0.017234   0.000040  -0.000000  -0.000000  -0.000000  -0.000000
    28  F    0.008458   0.000047  -0.000000  -0.000000   0.000000  -0.000000
    29  F   -0.019014  -0.000066  -0.000000  -0.000000  -0.000000  -0.000000
    30  F    0.004844   0.000034   0.000000  -0.000000  -0.000000   0.000000
    31  F   -0.001839  -0.000009  -0.000000  -0.000000  -0.000000  -0.000000
    32  O   -0.015606   0.007457   0.000001  -0.000002   0.000004  -0.000002
    33  O    0.034001   0.052635   0.000033  -0.000097   0.000111  -0.000075
    34  C   -0.034487  -0.005865   0.000000   0.000067   0.000674   0.000580
    35  C   -0.072705   0.026832  -0.000036  -0.000042  -0.000680  -0.001141
    36  C    0.001625  -0.000993   0.000040   0.000038   0.000226   0.001152
    37  H    0.000136   0.000002   0.000000   0.000000   0.000000   0.000000
    38  H    0.000143  -0.000009  -0.000000   0.000000  -0.000000   0.000000
    39  H   -0.000090  -0.000539   0.000001   0.000001  -0.000048  -0.000073
    40  H    0.000019   0.000070  -0.000000  -0.000000  -0.000000   0.000000
    41  H    0.000062  -0.000418   0.000000   0.000000   0.000004  -0.000024
              19         20         21         22         23         24
     1  C   -0.000270   0.000239  -0.000208   0.021848  -0.227391   0.099395
     2  N   -0.000057   0.000019  -0.000022  -0.060814   0.000700  -0.027132
     3  C   -0.005758   0.009768  -0.002007  -0.009182  -0.010967   0.117658
     4  O   -0.000061   0.000026  -0.000055   0.000298   0.000647   0.001664
     5  O   -0.000173  -0.000717  -0.000055  -0.002183   0.000522   0.002121
     6  C   -0.045921   0.092256  -0.045462  -0.001270   0.001316   0.013532
     7  C    0.018348  -0.144971   0.022953   0.000014  -0.000142  -0.000682
     8  C    0.375807   0.393508   0.367477  -0.000006   0.000017   0.000105
     9  C    0.000011  -0.000014   0.000004   0.197458  -0.033371   0.022211
    10  C   -0.000002   0.000001  -0.000001  -0.058068  -0.219249  -0.000085
    11  C    0.000000  -0.000000   0.000000   0.024247  -0.176770  -0.005587
    12  C   -0.000005   0.000001   0.000001   0.069615  -0.327685  -0.192296
    13  C   -0.000044   0.000037   0.000059   0.006387   0.140190   0.300942
    14  H   -0.000000  -0.000000  -0.000000   0.027415   0.000293  -0.000985
    15  H   -0.000471  -0.000133   0.002910  -0.000001  -0.000001  -0.000026
    16  H    0.002914  -0.000148  -0.000533  -0.000000  -0.000004  -0.000006
    17  H   -0.007095  -0.003447   0.005972  -0.000001   0.000000  -0.000000
    18  H    0.005919  -0.003479  -0.007083  -0.000001   0.000000  -0.000000
    19  H    0.445170  -0.024285  -0.036381  -0.000000   0.000000  -0.000000
    20  H   -0.024285   0.421797  -0.024245   0.000000   0.000000   0.000000
    21  H   -0.036381  -0.024245   0.444651  -0.000000   0.000000  -0.000000
    22  H   -0.000000   0.000000  -0.000000   0.367725   0.000180   0.000035
    23  Cl   0.000000   0.000000   0.000000   0.000180  17.481774  -0.017627
    24  H   -0.000000   0.000000  -0.000000   0.000035  -0.017627   0.348513
    25  S   -0.000000   0.000000   0.000000  -0.046236  -0.016035  -0.000885
    26  H    0.000000   0.000000   0.000000  -0.000065  -0.009348  -0.000232
    27  F   -0.000000  -0.000000   0.000000   0.002489  -0.000167  -0.000014
    28  F   -0.000000   0.000000   0.000000  -0.001713  -0.000345  -0.000004
    29  F   -0.000000   0.000000  -0.000000   0.002509  -0.000101  -0.000011
    30  F   -0.000000   0.000000  -0.000000  -0.001657  -0.000204  -0.000001
    31  F    0.000000  -0.000000   0.000000  -0.001748  -0.000001   0.000000
    32  O   -0.000000   0.000000   0.000000   0.006178  -0.000020  -0.000009
    33  O    0.000000   0.000002   0.000002   0.008034   0.000023   0.000087
    34  C    0.000005  -0.000014   0.000005   0.018597  -0.001433  -0.000053
    35  C   -0.000013   0.000025  -0.000014   0.026082  -0.000288  -0.000024
    36  C    0.000018  -0.000052   0.000022   0.000567   0.000005   0.000003
    37  H    0.000000  -0.000000   0.000000   0.000001  -0.000000  -0.000000
    38  H    0.000000  -0.000000   0.000000  -0.000350   0.000000  -0.000000
    39  H   -0.000000   0.000001  -0.000000  -0.000031  -0.000000   0.000000
    40  H    0.000000  -0.000000   0.000000   0.000000  -0.000000  -0.000000
    41  H   -0.000000   0.000000  -0.000000   0.000007  -0.000000   0.000000
              25         26         27         28         29         30
     1  C   -0.425800  -0.004387  -0.020209  -0.012666  -0.018917  -0.005521
     2  N    0.057761   0.001081   0.002545  -0.000351   0.003599  -0.000314
     3  C   -0.151109   0.001994  -0.004721  -0.000401  -0.003381  -0.000154
     4  O    0.000479   0.000004   0.000011  -0.000004   0.000009  -0.000005
     5  O    0.001932   0.000003   0.000029   0.000001   0.000024   0.000001
     6  C   -0.008848   0.000025   0.000033  -0.000002   0.000027  -0.000005
     7  C    0.000052  -0.000000  -0.000002   0.000000  -0.000003   0.000000
     8  C   -0.000052   0.000000   0.000000   0.000000   0.000000   0.000000
     9  C    0.397308   0.009511   0.001652   0.017146   0.019765   0.003714
    10  C   -1.248687  -0.078464  -0.232541   0.324746  -0.247734   0.354779
    11  C   -0.096894   0.372934   0.187497  -0.142062   0.179242  -0.165657
    12  C   -0.643181  -0.010280   0.088477  -0.170085   0.084745  -0.184018
    13  C   -0.025402  -0.016379  -0.017234   0.008458  -0.019014   0.004844
    14  H   -0.001980  -0.000004   0.000040   0.000047  -0.000066   0.000034
    15  H    0.000001  -0.000000  -0.000000  -0.000000  -0.000000   0.000000
    16  H   -0.000001  -0.000000  -0.000000  -0.000000  -0.000000  -0.000000
    17  H    0.000001   0.000000  -0.000000   0.000000  -0.000000  -0.000000
    18  H    0.000000   0.000000  -0.000000  -0.000000  -0.000000   0.000000
    19  H   -0.000000   0.000000  -0.000000  -0.000000  -0.000000  -0.000000
    20  H    0.000000   0.000000  -0.000000   0.000000   0.000000   0.000000
    21  H    0.000000   0.000000   0.000000   0.000000  -0.000000  -0.000000
    22  H   -0.046236  -0.000065   0.002489  -0.001713   0.002509  -0.001657
    23  Cl  -0.016035  -0.009348  -0.000167  -0.000345  -0.000101  -0.000204
    24  H   -0.000885  -0.000232  -0.000014  -0.000004  -0.000011  -0.000001
    25  S   17.783267   0.036087   0.019797   0.002203   0.024383   0.018547
    26  H    0.036087   0.339290   0.000007  -0.001843  -0.000006  -0.001122
    27  F    0.019797   0.000007   8.952456  -0.025876  -0.008354  -0.057493
    28  F    0.002203  -0.001843  -0.025876   9.005819  -0.059341   0.008495
    29  F    0.024383  -0.000006  -0.008354  -0.059341   8.952390  -0.021400
    30  F    0.018547  -0.001122  -0.057493   0.008495  -0.021400   9.005105
    31  F   -0.216394  -0.000689   0.021210   0.020670   0.022992   0.020821
    32  O    0.035746   0.000008  -0.001677   0.000552   0.000588   0.000842
    33  O   -0.002230  -0.000000  -0.000605   0.000009   0.000137   0.000034
    34  C   -0.034120   0.000233  -0.000959  -0.001057  -0.005194  -0.001788
    35  C   -0.017259   0.000020   0.013389  -0.000881   0.008812  -0.000695
    36  C   -0.002018  -0.000000  -0.000149   0.000029  -0.000297   0.000018
    37  H   -0.000198   0.000000  -0.000003   0.000000  -0.000027   0.000000
    38  H    0.000448  -0.000000  -0.000073  -0.000000  -0.000000  -0.000000
    39  H    0.000037   0.000000   0.000000  -0.000000   0.000000  -0.000000
    40  H   -0.000001  -0.000000  -0.000000  -0.000000  -0.000000   0.000000
    41  H   -0.000030   0.000000   0.000002  -0.000000  -0.000000  -0.000000
              31         32         33         34         35         36
     1  C   -0.001340  -0.021041   0.055821   0.009583   0.053285  -0.005145
     2  N   -0.000100   0.003082   0.064516  -0.025055  -0.008685   0.001576
     3  C    0.000016  -0.002623  -0.071620   0.049193  -0.007671  -0.000206
     4  O   -0.000000  -0.000064   0.000500   0.001767   0.001694  -0.000164
     5  O   -0.000000   0.000535   0.008689  -0.000709  -0.003634  -0.001923
     6  C    0.000002  -0.000093  -0.015494   0.018588  -0.004061  -0.001012
[...]
 00498,0.00000233,-0.00000116,0.00069534,0.00030757,0.00368998,0.000621
 55,-0.00752874,0.00263481,-0.01882171,-0.00481550,-0.02916075,-0.03287
 894,-0.05709060,-0.05141666,0.00360584,0.00061310,0.00494823,0.0338661
 1,0.06219097,-0.00005680,-0.00001393,0.00000758,-0.00001435,-0.0001468
 2,0.00004869,0.00010085,0.00002049,-0.00002553,-0.00003311,-0.00004197
 ,0.00002170,-0.00003149,0.,0.00000322,0.00001152,0.00000271,-0.0000037
 8,-0.00000245,-0.00000263,-0.00000106,0.00000005,0.00000056,0.00000085
 ,0.00002407,-0.00000492,-0.00000004,-0.00002174,-0.00000366,0.00000670
 ,0.00001087,-0.00000968,-0.00000096,-0.00000192,0.00000676,-0.00000063
 ,0.00001210,-0.00001162,0.00000322,-0.00000033,0.00027898,-0.00008958,
 -0.00000228,-0.00000137,0.00000063,-0.00000160,-0.00000013,0.00000126,
 0.00000166,0.00000112,-0.00000074,-0.00000015,-0.00000004,-0.00000012,
 -0.00000021,0.00000009,0.00000059,-0.00000082,0.00000020,-0.00000008,-
 0.00000052,-0.00000019,-0.00000023,-0.00000590,0.00001990,-0.00001004,
 0.00000219,-0.00000781,0.00000139,0.00000031,-0.00000028,0.00000004,-0
 .00002468,-0.00001854,-0.00000712,-0.00000016,-0.00000161,0.00000077,0
 .00000779,0.00000372,-0.00000328,0.00000841,-0.00000100,-0.00000281,0.
 00000945,0.00000253,0.00000728,0.00000889,0.00000066,0.00000549,0.0000
 0488,0.00000384,-0.00000038,0.00140563,-0.00059975,0.00157302,0.000331
 46,-0.00200282,0.00004014,-0.00556986,0.00127449,-0.00735321,-0.120204
 51,-0.04886423,-0.21484867,0.00575596,0.00246913,0.00796927,0.13029078
 ,0.05333139,0.23001946,-0.00000608,0.00001271,-0.00001182,0.00001161,0
 .00000988,0.00000394,-0.00002651,-0.00000264,0.00000500,0.00000683,0.0
 0000580,-0.00000316,0.00001123,-0.00000480,-0.00000401,-0.00000470,-0.
 00000025,0.00000084,0.00000225,0.00001031,0.00000644,0.00000080,-0.000
 00254,-0.00000187,-0.00000431,0.00001141,0.00001327,0.00001133,0.00000
 685,0.00000078,-0.00000379,0.00000654,-0.00000487,-0.00000427,-0.00000
 453,0.00000262,0.00000494,0.00000075,0.00000154,-0.00000006,-0.0000491
 0,0.00000587,0.00000094,-0.00000198,0.00000059,0.00000076,0.00000078,0
 .00000009,0.00000240,-0.00000326,-0.00000570,-0.00000047,-0.00000044,-
 0.00000131,0.00000008,0.00000012,0.,0.00000019,0.00000019,0.00000051,-
 0.00000134,-0.00000080,0.00000028,0.00001349,-0.00006459,0.00000306,-0
 .00000083,0.00000421,-0.00000175,-0.00000092,0.00000146,-0.00000031,0.
 00001801,-0.00000639,-0.00000204,0.00000004,0.00000122,-0.00000006,-0.
 00000951,-0.00000141,0.00000316,-0.00000445,0.00000314,-0.00000071,-0.
 00000379,-0.00000116,0.00000028,-0.00000608,0.00000257,-0.00000028,-0.
 00000539,0.00000051,0.00000034,-0.00084568,0.00172838,0.00099065,0.001
 03103,0.00030331,0.00042595,-0.00043557,0.00090871,-0.00638868,-0.0674
 2450,-0.04484633,0.05696771,-0.00984231,-0.01989310,0.02462528,0.00489
 312,0.01216726,-0.01276604,0.07570376,-0.00008990,0.00002577,0.0000043
 9,-0.00000374,-0.00023847,0.00014217,0.00010381,0.00003031,-0.00002167
 ,-0.00003693,-0.00004956,0.00001679,-0.00003162,0.00000307,0.00000656,
 0.00001568,0.00000370,-0.00000199,-0.00000227,-0.00000312,0.00000049,0
 .00000019,0.00000119,-0.00000107,0.00000746,0.00003975,-0.00001280,0.0
 0000289,0.00000391,-0.00000590,0.00000511,0.00000028,0.00000053,-0.000
 00756,0.00000207,-0.00000184,0.00002197,-0.00001550,-0.00000216,-0.000
 02714,0.00044235,-0.00027883,-0.00000263,-0.00000075,0.00000038,-0.000
 00256,-0.00000063,0.00000077,0.00000133,0.00000036,-0.00000008,0.00000
 017,0.00000052,0.00000030,-0.00000005,-0.00000003,0.00000032,-0.000001
 01,0.00000034,0.00000020,-0.00000008,-0.00000040,-0.00000024,-0.000025
 01,0.00001320,0.00000489,0.00000184,-0.00000438,0.00000179,-0.00000059
 ,0.00000219,-0.00000005,-0.00000376,-0.00000170,0.00000742,-0.00000011
 ,0.00000077,0.00000003,-0.00000100,0.00000349,-0.00000516,0.00000263,-
 0.00000146,-0.00000063,0.00000298,0.00000222,0.00000077,0.00000283,-0.
 00000029,-0.00000154,0.00000247,-0.00000188,0.00000034,-0.00034824,0.0
 0202798,-0.00349558,-0.00062486,-0.00580116,-0.00513814,-0.00857490,-0
 .01803055,0.02782339,-0.04469889,-0.14860675,0.12438230,0.00212647,0.0
 0410221,-0.00574333,0.00290298,0.00511890,-0.00582677,0.04865957,0.159
 83619,0.00001310,0.00000387,-0.00000222,0.00000390,0.00003514,0.000016
 66,-0.00002012,-0.00000583,0.00000366,0.00000638,0.00000925,-0.0000062
 2,0.00000722,0.00000396,0.00000132,-0.00000264,-0.00000131,0.00000147,
 0.00000058,-0.00000055,-0.00000194,0.00000008,0.00000073,-0.00000135,-
 0.00001352,0.00001006,-0.00000642,0.00000878,0.00000019,-0.00000172,-0
 .00000319,0.00000297,0.00000062,0.00000007,-0.00000232,-0.00000099,-0.
 00000262,0.00000349,0.00000057,-0.00001503,-0.00004981,-0.00004425,0.0
 0000032,0.00000072,0.00000086,0.,-0.00000030,-0.00000016,-0.00000115,0
 .00000003,0.00000121,-0.00000017,-0.00000057,0.00000033,0.00000002,-0.
 00000021,-0.00000020,0.00000010,-0.00000037,0.00000012,0.00000071,0.00
 000044,0.00000033,-0.00000510,0.00002074,0.00000215,-0.00000055,0.0000
 0180,-0.00000014,-0.00000006,-0.00000004,0.,0.00000896,0.00000796,-0.0
 0000427,-0.00000007,0.00000043,-0.00000033,-0.00000348,-0.00000111,0.0
 0000243,-0.00000304,0.00000066,0.00000171,-0.00000054,-0.00000326,-0.0
 0000016,-0.00000260,-0.00000023,-0.00000038,-0.00000265,-0.00000165,0.
 00000056,-0.00075008,0.00007074,0.00004008,-0.00093163,-0.00124126,-0.
 00193086,-0.00144034,-0.00751935,0.00815507,0.05696918,0.12207426,-0.1
 8819273,0.00169596,0.00263432,-0.00443749,0.00702334,0.01660765,-0.019
 23338,-0.06402703,-0.13157946,0.20376960,-0.00000143,0.00000768,0.0000
 0851,0.00000167,0.00001930,-0.00002250,-0.00000973,0.00001061,0.000012
 91,0.00000310,0.00000283,-0.00000428,0.00000774,0.00000321,0.00000465,
 -0.00001215,-0.00001182,-0.00001065,-0.00001300,0.00005905,0.00006690,
 0.00000010,-0.00002095,-0.00001887,-0.00000554,0.00001000,-0.00000868,
 0.00000561,0.00000439,0.00000079,-0.00000305,-0.00000046,-0.00000168,-
 0.00000169,0.00000026,0.00000171,0.00000191,0.00000105,-0.00000638,0.0
 0000381,-0.00004753,0.00002522,0.00000428,-0.00000356,-0.00000020,0.00
 000106,0.00000032,-0.00000011,-0.00004709,-0.00005578,-0.00003855,-0.0
 0000061,0.00000011,-0.00001177,0.00000075,0.00000009,0.00000068,0.0000
 0017,0.00000126,-0.00000006,-0.00000843,-0.00000153,0.00000410,0.00000
 428,-0.00001694,0.00000859,0.00000013,0.00000069,-0.00000012,-0.000000
 08,0.00000051,0.00000028,0.00000380,-0.00000190,0.00001086,-0.00000017
 ,0.00000085,0.00000021,-0.00000154,0.00000013,-0.00000318,-0.00000280,
 0.00000127,-0.00000101,0.00000055,-0.00000156,-0.00000390,-0.00000378,
 0.00000111,-0.00000147,-0.00000080,0.00000171,-0.00000300,-0.00014353,
 0.00052524,-0.00017651,0.00055643,0.00063894,-0.00020726,0.00073933,-0
 .00171905,-0.00020749,-0.00975914,-0.02019686,0.02568303,-0.06924045,-
 0.04541660,0.05678576,0.00155067,-0.00034307,-0.00067225,-0.00604243,0
 .00169422,0.00135699,0.07644598,0.00001222,0.00000001,0.00000044,0.000
 00277,0.00002236,-0.00000765,-0.00000364,-0.00000833,0.00000554,0.0000
 0203,0.00001251,-0.00000468,0.00000582,0.00003928,0.00001141,-0.000026
 87,-0.00000938,-0.00000964,0.00000828,0.00007483,0.00007799,-0.0000009
 5,-0.00002142,-0.00002057,-0.00000334,0.00000268,-0.00000040,0.0000004
 6,0.00000121,-0.00000029,-0.00000109,0.00000088,0.00000107,0.00000111,
 -0.00000033,-0.00000203,-0.00000235,0.00000240,0.00000246,-0.00000111,
 -0.00001667,0.00003088,0.00000668,-0.00000414,-0.00000017,0.00000339,-
 0.00000029,-0.00000010,-0.00002529,-0.00003707,-0.00004263,0.00000337,
 0.00000145,-0.00001609,0.00000002,0.00000053,0.00000018,0.00000158,0.0
 0000098,0.00000090,-0.00000836,-0.00000211,0.00000312,-0.00000108,-0.0
 0000811,-0.00000003,-0.00000048,0.00000078,-0.00000078,-0.00000007,0.0
 0000039,0.00000014,0.00000275,-0.00000305,0.00000274,-0.00000002,0.000
 00005,0.00000003,-0.00000248,0.00000150,0.00000133,-0.00000031,0.00000
 035,-0.00000025,-0.00000166,0.00000017,-0.00000173,0.00000006,0.000000
 08,-0.00000061,-0.00000101,0.00000036,0.00000011,-0.00000253,0.0003498
 0,0.00029089,0.00107859,0.00009949,-0.00066023,-0.00078423,-0.00088213
 ,-0.00074788,0.00127208,0.00342241,-0.00489240,-0.04671063,-0.14365625
 ,0.12220304,-0.00056917,0.00017630,0.00007208,0.00106940,0.00058348,-0
 .00064710,0.04983088,0.15237112,0.00001831,-0.00000844,-0.00000048,-0.
 00001735,0.00001145,0.00000569,0.00002360,-0.00003590,0.00000319,-0.00
 000267,0.00001658,-0.00000434,-0.00001741,0.00000563,-0.00000465,0.000
 00306,0.00000350,0.00001004,-0.00001103,-0.00005390,-0.00005915,-0.000
 00099,0.00001441,0.00001520,-0.00000174,-0.00000929,0.00000151,0.00000
 037,-0.00000308,-0.00000058,-0.00000089,0.00000283,0.00000167,0.000001
 62,-0.00000306,-0.00000166,-0.00000472,0.00000220,0.00000147,0.0000080
 9,-0.00002319,-0.00000317,-0.00000210,0.00000595,-0.00000124,0.0000012
 8,-0.00000069,-0.00000104,-0.00002004,0.00000699,0.00002784,-0.0000001
 7,-0.00000001,0.00000713,-0.00000021,-0.00000051,-0.00000135,0.0000006
 6,-0.00000070,-0.00000142,0.00000691,0.00000293,-0.00000174,-0.0000013
 3,0.00000978,-0.00000338,-0.00000044,0.00000095,0.00000002,0.00000007,
 -0.00000087,-0.00000042,0.00000371,0.00000458,-0.00000596,0.00000021,-
 0.00000032,-0.00000020,0.00000167,-0.00000207,0.00000240,-0.00000208,-
 0.00000046,-0.00000051,0.00000193,-0.00000194,0.00000060,-0.00000186,-
 0.00000019,0.00000215,-0.00000139,0.00000011,0.00000073,-0.00001529,-0
 .00049169,-0.00008916,-0.00098065,-0.00008786,0.00045086,0.00056520,0.
 00140909,0.00008981,0.00167784,0.00270349,-0.00468445,0.05818952,0.120
 70589,-0.20173157,0.00021436,-0.00036404,0.00064177,0.00134294,-0.0004
 2925,0.00114151,-0.06477209,-0.13319896,0.21406989,0.00001566,0.000018
 95,-0.00000661,0.00002088,0.00010515,-0.00003803,-0.00007733,-0.000012
 28,0.00001778,0.00002301,0.00002544,-0.00001234,0.00002830,-0.00000293
 ,-0.00000051,-0.00000969,-0.00000168,-0.00000041,0.00000257,0.00001005
 ,0.00000780,-0.00000017,-0.00000425,-0.00000022,-0.00001975,0.00003857
 ,-0.00001814,0.00002667,0.00000793,-0.00000244,-0.00000858,0.00000942,
 -0.00000192,-0.00000328,-0.00000739,0.00000227,0.00000136,0.00000751,0
 .00000059,0.00000224,-0.00021342,0.00004853,0.00000232,-0.00000058,-0.
 00000019,0.00000189,0.00000036,-0.00000018,0.00000352,-0.00000304,-0.0
 0000701,0.00000023,0.00000051,-0.00000019,-0.00000023,-0.00000012,0.00
 000019,0.00000052,0.00000001,-0.00000010,-0.00000146,-0.00000015,0.000
 00033,0.00001380,-0.00008713,0.00002401,-0.00000152,0.00000848,-0.0000
 0226,-0.00000111,0.00000188,-0.00000046,0.00003809,-0.00001003,0.00000
 687,-0.00000005,0.00000235,-0.00000054,-0.00002230,0.00000724,0.000004
 41,-0.00001100,0.00000737,0.00000496,-0.00001155,-0.00000005,-0.000005
 59,-0.00001097,0.00000291,-0.00000708,-0.00000781,-0.00000241,-0.00000
 005,-0.00288902,0.00329401,0.00145399,0.00120935,0.00079185,0.00000732
 ,-0.00456037,-0.00484469,-0.00026619,-0.00465583,0.03352531,0.00922748
 ,-0.05354869,0.03831681,0.01072880,0.00141597,-0.00035912,-0.00073690,
 0.00145007,-0.00063272,-0.00001813,0.00040562,-0.00838483,-0.00386758,
 0.05824245,-0.00002951,-0.00000153,0.00000320,-0.00000545,-0.00008739,
 0.00002476,0.00004091,0.00002616,-0.00001478,-0.00001601,-0.00002890,0
 .00001337,-0.00001515,-0.00000365,0.00000357,0.00001009,0.00000304,-0.
 00000440,-0.00000121,0.00000943,0.00001181,0.00000232,-0.00000393,-0.0
 0000236,0.00001157,-0.00000464,0.00000385,-0.00000980,-0.00000226,0.00
 000041,0.00000509,-0.00000626,0.00000162,0.00000010,0.00000502,-0.0000
 0184,0.00000434,-0.00000610,0.00000174,0.00000281,0.00017851,-0.000052
 33,-0.00000101,-0.00000182,0.00000003,-0.00000109,-0.00000044,0.000001
 31,0.00000580,-0.00000299,-0.00000738,0.00000128,0.00000149,-0.0000008
 2,-0.00000079,-0.00000051,0.00000145,-0.00000183,0.00000146,-0.0000004
 1,-0.00000232,-0.00000064,0.00000027,-0.00000954,0.00003537,-0.0000089
 3,0.00000119,-0.00000538,0.00000137,0.00000027,-0.00000013,-0.00000012
 ,-0.00002113,0.00000341,-0.00000105,-0.00000004,-0.00000081,0.00000011
 ,0.00000831,-0.00000153,-0.00000161,0.00000527,-0.00000243,-0.00000277
 ,0.00000531,-0.00000009,0.00000079,0.00000590,-0.00000122,0.00000356,0
 .00000381,0.00000088,-0.00000048,0.00110407,-0.00066765,-0.00041127,0.
 00099487,-0.00074761,-0.00037656,-0.00095602,0.00180744,0.00044548,-0.
 00089020,-0.00249184,-0.00014841,0.03997772,-0.29247350,-0.07036510,0.
 00029900,0.00017325,0.00026964,0.00031736,0.00044494,-0.00024866,0.002
 51997,-0.01661136,-0.00554843,-0.04343282,0.31487096,-0.00000871,-0.00
 000361,0.00000050,-0.00000885,-0.00003661,0.00001932,0.00002595,0.0000
 0336,-0.00000643,-0.00000796,-0.00000941,0.00000479,-0.00001041,-0.000
 00216,0.00000209,0.00000396,0.00000177,0.00000061,-0.00000375,-0.00001
 091,-0.00001428,0.00000120,0.00000271,0.00000307,0.00000586,-0.0000087
 2,0.00000655,-0.00000631,-0.00000039,0.00000115,0.00000202,-0.00000276
 ,-0.00000065,0.00000073,0.00000210,0.00000002,0.00000111,-0.00000197,-
 0.00000028,0.00000608,0.00007519,-0.00003519,-0.00000084,0.00000064,-0
 .00000003,-0.00000035,-0.00000027,0.00000056,-0.00000657,0.,0.00000468
 ,0.00000102,0.00000150,0.00000312,-0.00000031,-0.00000004,0.00000023,-
 0.00000030,0.00000013,-0.00000021,0.00000079,0.00000033,-0.00000066,-0
 .00000570,0.00002740,-0.00000822,0.00000036,-0.00000267,0.00000040,0.0
 0000008,-0.00000045,-0.00000018,-0.00001152,0.00000422,-0.00000041,-0.
 00000007,-0.00000079,0.00000024,0.00000624,-0.00000292,-0.00000089,0.0
 0000331,-0.00000218,-0.00000135,0.00000344,-0.00000098,0.00000171,0.00
 000315,-0.00000099,0.00000169,0.00000223,0.00000048,-0.00000060,0.0008
 2867,-0.00081601,-0.00029271,0.00000756,-0.00038149,0.00015574,0.00080
 031,0.00120640,0.00101988,0.00042401,-0.00653339,-0.00301170,0.0111388
 2,-0.07003341,-0.06892400,0.00005851,0.00039160,0.00029877,-0.00039863
 ,-0.00007104,-0.00003801,-0.00474507,0.02336901,0.00841081,-0.01339800
 ,0.07742447,0.06867327,-0.00000143,0.00000308,-0.00000396,0.00000058,0
 .00001997,0.00000213,-0.00001317,-0.00000221,-0.00000306,0.00000402,0.
 00000384,0.00000054,0.00000098,0.00000159,-0.00000058,0.00000540,0.000
 00424,-0.00000073,0.00000436,-0.00000516,-0.00002092,-0.00000278,0.000
 00601,0.00000524,-0.00000762,0.00000868,-0.00000029,0.00000416,0.00000
 371,0.00000005,-0.00000189,0.00000092,-0.00000037,-0.00000038,-0.00000
 154,0.00000020,0.00000177,0.00000277,0.00000107,0.00001044,-0.00004070
 ,0.00000147,-0.00000142,0.00000134,0.00000106,-0.00000006,0.00000164,-
 0.00000009,0.00000309,0.00001110,0.00000863,0.00000436,0.00000575,-0.0
 0000629,0.00000136,0.00000074,-0.00000045,0.00000058,-0.00000084,-0.00
 000023,0.00000246,0.00000084,-0.00000013,0.00000350,-0.00001156,-0.000
 00332,-0.00000023,0.00000174,-0.00000034,-0.00000017,0.00000018,-0.000
 00034,0.00000754,-0.00000889,-0.00000928,-0.00000032,0.00000050,-0.000
 00026,0.00000075,-0.00000149,0.00000159,-0.00000254,0.00000312,0.00000
 317,-0.00000301,0.00000372,0.00000486,-0.00000146,0.00000151,-0.000001
 62,-0.00000144,0.00000005,0.00000137,-0.00004762,0.00053044,0.00046999
 ,0.00098162,0.00055021,0.00028126,0.00042941,-0.00203299,-0.00090567,-
 0.01916790,-0.00615834,-0.02649263,-0.13580940,-0.03011989,-0.12293777
 ,-0.00578386,0.00144299,0.00216118,0.00151010,-0.00043903,0.00014807,0
 .00556044,0.00323002,0.00766068,0.00293618,0.00006658,0.00528792,0.149
 37358,0.00001389,0.00000137,0.00000342,-0.00000616,0.00003120,-0.00002
 177,0.00000162,-0.00001480,0.00001462,0.00000229,0.00001285,-0.0000068
 7,-0.00000623,0.00000750,-0.00000611,0.00000103,0.00000239,0.00000372,
 0.00000834,-0.00000979,-0.00001574,-0.00000360,0.00000840,0.00000498,-
 0.00000718,0.00000346,-0.00000129,0.00000184,0.00000014,0.00000413,-0.
 00000166,0.00000137,-0.00000210,0.00000139,-0.00000111,0.00000025,-0.0
 0000397,0.00000095,-0.00000174,-0.00000115,-0.00004384,0.00002706,-0.0
 0000028,0.00000276,-0.00000135,0.00000070,0.00000249,-0.00000177,0.000
 00237,0.00001239,0.00001237,0.00000126,0.00000133,-0.00000972,0.000002
 48,0.00000103,-0.00000156,0.00000105,-0.00000092,-0.00000015,0.0000028
 6,0.00000129,-0.00000123,0.00000184,-0.00000224,0.00000354,-0.00000048
 ,0.00000130,-0.00000020,-0.00000009,0.00000015,0.,0.00000281,-0.000001
 23,0.00000048,0.00000029,0.00000034,0.00000005,-0.00000172,0.00000192,
 0.00000100,-0.00000027,0.00000075,0.00000028,-0.00000078,0.00000007,-0
 .00000301,-0.00000018,0.00000032,-0.00000046,-0.00000147,-0.00000113,0
 .00000009,-0.00004641,0.00017870,-0.00011370,0.00068556,-0.00003680,0.
 00015090,-0.00018418,-0.00049424,0.00054758,0.00265603,0.00031253,0.00
 436615,-0.03101645,-0.05813218,-0.04246250,0.00100891,0.00055160,-0.00
 019852,-0.00034912,0.00006746,-0.00018601,0.01250192,0.00409526,0.0153
 5851,-0.01818246,-0.00440676,-0.02458814,0.03291537,0.05784372,-0.0000
 0636,0.00000682,0.00000341,0.00000816,-0.00000125,-0.00000016,-0.00001
 657,0.00001149,-0.00000757,0.00000285,-0.00000739,0.00000396,0.0000089
 4,-0.00001001,0.00000232,-0.00000470,0.00000354,-0.00000422,0.00000488
 ,0.00001582,0.00000935,0.00000169,-0.00000340,-0.00000465,-0.00000048,
 0.00000540,-0.00000309,0.00000170,0.00000098,0.00000220,0.00000047,0.0
 0000039,-0.00000058,-0.00000130,0.00000006,0.00000073,0.00000144,-0.00
 000170,-0.00000075,-0.00000378,0.00001174,-0.00000319,0.00000168,-0.00
 000187,0.00000060,-0.00000019,-0.00000149,0.00000195,-0.00000324,-0.00
 000618,-0.00001191,0.00000520,0.00000917,0.00000228,-0.00000159,-0.000
 00148,0.00000169,0.00000160,-0.00000040,0.00000032,-0.00000185,-0.0000
 0121,0.00000069,-0.00000017,-0.00000345,-0.00000045,0.00000004,0.00000
 036,-0.00000017,-0.00000021,0.00000036,-0.00000062,0.00000139,-0.00000
 563,-0.00000654,-0.00000002,0.00000015,-0.00000035,-0.00000207,0.00000
 209,0.00000334,-0.00000082,0.00000060,0.00000052,-0.00000013,0.0000014
 9,0.00000055,-0.00000054,0.00000081,0.00000170,-0.00000016,0.00000103,
 0.00000067,0.00000418,0.00046619,-0.00005990,0.00120504,-0.00023566,0.
 00013960,-0.00094122,-0.00108749,0.00024225,0.00531168,0.00229554,0.00
 785998,-0.12487327,-0.04137623,-0.22120903,0.00193113,-0.00060348,0.00
 092980,-0.00078286,0.00022369,0.00076295,-0.01305413,-0.00581914,-0.01
 828785,-0.00314426,-0.00101511,-0.00627340,0.13434787,0.04712484,0.235
 90358\\0.00000314,0.00000051,0.00000089,-0.00000076,0.00000296,-0.0000
 0113,0.00000122,-0.00000024,0.00000077,0.00000244,-0.00000185,-0.00000
 013,0.00000104,-0.00000187,0.00000025,-0.00000045,-0.00000358,0.000000
 45,-0.00000014,-0.00000381,0.00000039,0.00000017,-0.00000526,0.0000003
 8,-0.00000083,0.00000259,-0.00000031,0.00000176,0.00000269,-0.00000017
 ,0.00000217,0.00000358,-0.00000067,0.00000319,0.00000166,-0.00000032,0
 .00000197,0.00000247,-0.00000045,0.00000317,-0.00000447,-0.00000012,0.
 00000168,-0.00000325,0.00000012,0.00000138,-0.00000311,0.00000034,-0.0
 0000103,-0.00000384,0.00000030,-0.00000049,-0.00000381,0.00000027,0.00
 000046,-0.00000528,0.00000040,-0.00000053,-0.00000576,0.00000044,0.000
 00093,-0.00000552,0.00000043,0.00000114,0.00000253,0.00000079,0.000004
 67,0.00000304,-0.00000018,0.00000348,0.00000011,-0.00000008,-0.0000003
 9,0.00000471,-0.00000074,0.00000221,0.00000383,-0.00000022,0.00000007,
 0.00000379,-0.00000102,0.00000154,0.00000451,-0.00000026,0.,0.00000314
 ,0.00000008,0.00000117,0.00000518,0.00000006,-0.00000041,0.00000543,-0
 .00000037,-0.00000229,0.00000041,-0.00000361,-0.00000304,0.00000239,-0
 .00000116,-0.00000185,0.00000145,0.00000601,-0.00000468,0.00000033,-0.
 00000133,-0.00000424,-0.00000319,-0.00000060,-0.00000336,0.00000035,0.
 00000007,-0.00000401,0.00000076,0.00000004,-0.00000252,-0.00000123,0.0
 0000025,-0.00000451,-0.00000120,0.00000016,-0.00000346,-0.00000115,-0.
 00000002\\\@


 EVERY WORD THAT YOU WRITE IS A BLOW THAT SMITES THE DEVIL.
     -- ST. BERNARD OF CLAIRVAUX
 Job cpu time:       0 days 11 hours 15 minutes 37.6 seconds.
 Elapsed time:       0 days 11 hours 16 minutes 24.3 seconds.
 File lengths (MBytes):  RWF=   1733 Int=      0 D2E=      0 Chk=     49 Scr=      1
 Normal termination of Gaussian 16 at Thu Apr  1 13:18:29 2021.
