 Entering Gaussian System, Link 0=/apps/gaussian/g16c01/g16/g16
 Initial command:
 /apps/gaussian/g16c01/g16/l1.exe "/jobfs/19479100.gadi-pbs/Gau-437105.inp" -scrdir="/jobfs/19479100.gadi-pbs/"
 Entering Link 1 = /apps/gaussian/g16c01/g16/l1.exe PID=    437106.
  
 Copyright (c) 1988-2019, Gaussian, Inc.  All Rights Reserved.
  
 This is part of the Gaussian(R) 16 program.  It is based on
 the Gaussian(R) 09 system (copyright 2009, Gaussian, Inc.),
 the Gaussian(R) 03 system (copyright 2003, Gaussian, Inc.),
 the Gaussian(R) 98 system (copyright 1998, Gaussian, Inc.),
 the Gaussian(R) 94 system (copyright 1995, Gaussian, Inc.),
 the Gaussian 92(TM) system (copyright 1992, Gaussian, Inc.),
 the Gaussian 90(TM) system (copyright 1990, Gaussian, Inc.),
 the Gaussian 88(TM) system (copyright 1988, Gaussian, Inc.),
 the Gaussian 86(TM) system (copyright 1986, Carnegie Mellon
 University), and the Gaussian 82(TM) system (copyright 1983,
 Carnegie Mellon University). Gaussian is a federally registered
 trademark of Gaussian, Inc.
  
 This software contains proprietary and confidential information,
 including trade secrets, belonging to Gaussian, Inc.
  
 This software is provided under written license and may be
 used, copied, transmitted, or stored only in accord with that
 written license.
  
 The following legend is applicable only to US Government
 contracts under FAR:
  
                    RESTRICTED RIGHTS LEGEND
  
 Use, reproduction and disclosure by the US Government is
 subject to restrictions as set forth in subparagraphs (a)
 and (c) of the Commercial Computer Software - Restricted
 Rights clause in FAR 52.227-19.
  
 Gaussian, Inc.
 340 Quinnipiac St., Bldg. 40, Wallingford CT 06492
  
  
 ---------------------------------------------------------------
 Warning -- This program may not be used in any manner that
 competes with the business of Gaussian, Inc. or will provide
 assistance to any competitor of Gaussian, Inc.  The licensee
 of this program is prohibited from giving any competitor of
 Gaussian, Inc. access to this program.  By using this program,
 the user acknowledges that Gaussian, Inc. is engaged in the
 business of creating and licensing software in the field of
 computational chemistry and represents and warrants to the
 licensee that it is not a competitor of Gaussian, Inc. and that
 it will not use this program in any manner prohibited above.
 ---------------------------------------------------------------
  

 Cite this work as:
 Gaussian 16, Revision C.01,
 M. J. Frisch, G. W. Trucks, H. B. Schlegel, G. E. Scuseria, 
 M. A. Robb, J. R. Cheeseman, G. Scalmani, V. Barone, 
 G. A. Petersson, H. Nakatsuji, X. Li, M. Caricato, A. V. Marenich, 
 J. Bloino, B. G. Janesko, R. Gomperts, B. Mennucci, H. P. Hratchian, 
 J. V. Ortiz, A. F. Izmaylov, J. L. Sonnenberg, D. Williams-Young, 
 F. Ding, F. Lipparini, F. Egidi, J. Goings, B. Peng, A. Petrone, 
 T. Henderson, D. Ranasinghe, V. G. Zakrzewski, J. Gao, N. Rega, 
 G. Zheng, W. Liang, M. Hada, M. Ehara, K. Toyota, R. Fukuda, 
 J. Hasegawa, M. Ishida, T. Nakajima, Y. Honda, O. Kitao, H. Nakai, 
 T. Vreven, K. Throssell, J. A. Montgomery, Jr., J. E. Peralta, 
 F. Ogliaro, M. J. Bearpark, J. J. Heyd, E. N. Brothers, K. N. Kudin, 
 V. N. Staroverov, T. A. Keith, R. Kobayashi, J. Normand, 
 K. Raghavachari, A. P. Rendell, J. C. Burant, S. S. Iyengar, 
 J. Tomasi, M. Cossi, J. M. Millam, M. Klene, C. Adamo, R. Cammi, 
 J. W. Ochterski, R. L. Martin, K. Morokuma, O. Farkas, 
 J. B. Foresman, and D. J. Fox, Gaussian, Inc., Wallingford CT, 2019.
 
 ******************************************
 Gaussian 16:  ES64L-G16RevC.01  3-Jul-2019
                22-Mar-2021 
 ******************************************
 %NprocShared=32
 Will use up to   32 processors via shared memory.
 %Mem=10000MB
 %chk=CP22CA_carboxy_c2.M062X_6-311pGd_opt_Pentadecane_GD3.chk
 ----------------------------------------------------------------------
 # M062X/6-311+G* SCF=Tight INT(grid=ultrafine) OPT=CalcFC IOP(2/17=4) 
 EmpiricalDispersion=GD3 SCRF=(SMD,Solvent=n-Pentadecane) MaxDisk=10000
 MB
 ----------------------------------------------------------------------
 1/10=4,18=20,19=15,26=6,38=1/1,3;
 2/9=110,12=2,17=4,18=5,40=1/2;
 3/5=4,6=6,7=11,11=2,25=1,30=1,70=32201,71=2,72=151,74=-55,75=-5,124=31,140=1/1,2,3;
 4//1;
 5/5=2,32=2,38=5,53=151/2;
 8/6=4,10=90,11=11/1;
 11/6=1,8=1,9=11,15=111,16=1/1,2,10;
 10/6=1,13=1/2;
 6/7=2,8=2,9=2,10=2,28=1/1;
 7/10=1,25=1/1,2,3,16;
 1/10=4,18=20,19=15,26=6/3(2);
 2/9=110,17=4/2;
 99//99;
 2/9=110,17=4/2;
 3/5=4,6=6,7=11,11=2,25=1,30=1,70=32205,71=1,72=151,74=-55,75=-5,124=31/1,2,3;
 4/5=5,16=3,69=1/1;
 5/5=2,32=2,38=5,53=151/2;
 7//1,2,3,16;
 1/18=20,19=15,26=6/3(-5);
 2/9=110,17=4/2;
 6/7=2,8=2,9=2,10=2,19=2,28=1/1;
 99/9=1/99;
 ----------------------------------------------------
 CP22CA_carboxy_c2.M062X_6-311pGd_opt_Pentadecane_GD3
 ----------------------------------------------------
 Symbolic Z-matrix:
 Charge = -1 Multiplicity = 1
 C                    -5.96997   1.2401    0.28809 
 N                    -4.67838   0.58155   0.22322 
 C                    -3.46733   1.22125   0.14221 
 O                    -3.39243   2.43868   0.14406 
 O                    -2.31727   0.50384   0.04587 
 C                    -1.08089   1.13131   0.02825 
 C                     0.04036   0.12534  -0.19196 
 C                     1.39833   0.82694  -0.17631 
 C                    -7.1829    0.62443   0.71814 
 C                    -8.40154   1.32961   0.75454 
 C                    -8.41455   2.67404   0.36139 
 C                    -7.2406    3.29839  -0.05896 
 C                    -6.037     2.58699  -0.09433 
 H                    -4.66133  -0.587     0.24069 
 H                    -0.9267    1.66029   0.99604 
 H                    -1.05116   1.8798   -0.79716 
 H                    -0.10399  -0.37216  -1.17538 
 H                     0.01566  -0.64101   0.61099 
 H                     1.44924   1.59861  -0.97504 
 H                     2.20554   0.08528  -0.34686 
 H                     1.56746   1.31712   0.80694 
 H                    -7.245    -0.3945    1.03451 
 Cl                   -7.279     4.98271  -0.54576 
 H                    -5.04781   3.13102  -0.45301 
 S                    -9.94279   0.50719   1.29989 
 H                    -9.33715   3.23978   0.38052 
 F                    -9.13482  -0.15589   2.657 
 F                    -10.36075   1.87077   2.248 
 F                    -9.56168  -0.87601   0.36393 
 F                    -10.78195   1.15382  -0.04539 
 F                    -11.3847  -0.26272   1.80733 
 O                    -6.71605  -2.77971   0.59903 
 O                    -4.48526  -2.66176   0.49587 
 C                    -5.49624  -3.35631   0.62456 
 C                    -5.46817  -4.86158   0.81828 
 C                    -4.10368  -5.54938   0.85724 
 H                    -6.05386  -5.32078  -0.00697 
 H                    -5.98603  -5.08844   1.77493 
 H                    -3.5586   -5.41971  -0.09985 
 H                    -4.26979  -6.6417    1.0089 
 H                    -3.48996  -5.17993   1.70392 
 
 Add virtual bond connecting atoms O33        and H14        Dist= 3.96D+00.

 GradGradGradGradGradGradGradGradGradGradGradGradGradGradGradGradGradGrad
 Berny optimization.
 Initialization pass.
                           ----------------------------
                           !    Initial Parameters    !
                           ! (Angstroms and Degrees)  !
 --------------------------                            --------------------------
 ! Name  Definition              Value          Derivative Info.                !
 --------------------------------------------------------------------------------
 ! R1    R(1,2)                  1.4512         calculate D2E/DX2 analytically  !
 ! R2    R(1,9)                  1.4266         calculate D2E/DX2 analytically  !
 ! R3    R(1,13)                 1.4017         calculate D2E/DX2 analytically  !
 ! R4    R(2,3)                  1.372          calculate D2E/DX2 analytically  !
 ! R5    R(2,14)                 1.1688         calculate D2E/DX2 analytically  !
 ! R6    R(3,4)                  1.2197         calculate D2E/DX2 analytically  !
 ! R7    R(3,5)                  1.3589         calculate D2E/DX2 analytically  !
 ! R8    R(5,6)                  1.3866         calculate D2E/DX2 analytically  !
 ! R9    R(6,7)                  1.5224         calculate D2E/DX2 analytically  !
 ! R10   R(6,15)                 1.1136         calculate D2E/DX2 analytically  !
 ! R11   R(6,16)                 1.1146         calculate D2E/DX2 analytically  !
 ! R12   R(7,8)                  1.5286         calculate D2E/DX2 analytically  !
 ! R13   R(7,17)                 1.1115         calculate D2E/DX2 analytically  !
 ! R14   R(7,18)                 1.1102         calculate D2E/DX2 analytically  !
 ! R15   R(8,19)                 1.1118         calculate D2E/DX2 analytically  !
 ! R16   R(8,20)                 1.1094         calculate D2E/DX2 analytically  !
 ! R17   R(8,21)                 1.1116         calculate D2E/DX2 analytically  !
 ! R18   R(9,10)                 1.4084         calculate D2E/DX2 analytically  !
 ! R19   R(9,22)                 1.0687         calculate D2E/DX2 analytically  !
 ! R20   R(10,11)                1.4008         calculate D2E/DX2 analytically  !
 ! R21   R(10,25)                1.8301         calculate D2E/DX2 analytically  !
 ! R22   R(11,12)                1.3945         calculate D2E/DX2 analytically  !
 ! R23   R(11,26)                1.0824         calculate D2E/DX2 analytically  !
 ! R24   R(12,13)                1.3986         calculate D2E/DX2 analytically  !
 ! R25   R(12,23)                1.7537         calculate D2E/DX2 analytically  !
 ! R26   R(13,24)                1.1845         calculate D2E/DX2 analytically  !
 ! R27   R(14,33)                2.0978         calculate D2E/DX2 analytically  !
 ! R28   R(25,27)                1.713          calculate D2E/DX2 analytically  !
 ! R29   R(25,28)                1.7126         calculate D2E/DX2 analytically  !
 ! R30   R(25,29)                1.713          calculate D2E/DX2 analytically  !
 ! R31   R(25,30)                1.7123         calculate D2E/DX2 analytically  !
 ! R32   R(25,31)                1.7115         calculate D2E/DX2 analytically  !
 ! R33   R(32,34)                1.3495         calculate D2E/DX2 analytically  !
 ! R34   R(33,34)                1.2333         calculate D2E/DX2 analytically  !
 ! R35   R(34,35)                1.5179         calculate D2E/DX2 analytically  !
 ! R36   R(35,36)                1.5285         calculate D2E/DX2 analytically  !
 ! R37   R(35,37)                1.1113         calculate D2E/DX2 analytically  !
 ! R38   R(35,38)                1.1112         calculate D2E/DX2 analytically  !
 ! R39   R(36,39)                1.109          calculate D2E/DX2 analytically  !
 ! R40   R(36,40)                1.1152         calculate D2E/DX2 analytically  !
 ! R41   R(36,41)                1.1091         calculate D2E/DX2 analytically  !
 ! A1    A(2,1,9)              125.0526         calculate D2E/DX2 analytically  !
 ! A2    A(2,1,13)             117.8005         calculate D2E/DX2 analytically  !
 ! A3    A(9,1,13)             117.1463         calculate D2E/DX2 analytically  !
 ! A4    A(1,2,3)              125.2146         calculate D2E/DX2 analytically  !
 ! A5    A(1,2,14)             117.7749         calculate D2E/DX2 analytically  !
 ! A6    A(3,2,14)             117.0105         calculate D2E/DX2 analytically  !
 ! A7    A(2,3,4)              121.2975         calculate D2E/DX2 analytically  !
 ! A8    A(2,3,5)              120.3358         calculate D2E/DX2 analytically  !
 ! A9    A(4,3,5)              118.3644         calculate D2E/DX2 analytically  !
 ! A10   A(3,5,6)              121.1064         calculate D2E/DX2 analytically  !
 ! A11   A(5,6,7)              111.0715         calculate D2E/DX2 analytically  !
 ! A12   A(5,6,15)             109.1086         calculate D2E/DX2 analytically  !
 ! A13   A(5,6,16)             109.6982         calculate D2E/DX2 analytically  !
 ! A14   A(7,6,15)             109.7307         calculate D2E/DX2 analytically  !
 ! A15   A(7,6,16)             108.4794         calculate D2E/DX2 analytically  !
 ! A16   A(15,6,16)            108.7156         calculate D2E/DX2 analytically  !
 ! A17   A(6,7,8)              110.4585         calculate D2E/DX2 analytically  !
 ! A18   A(6,7,17)             109.1528         calculate D2E/DX2 analytically  !
 ! A19   A(6,7,18)             109.5794         calculate D2E/DX2 analytically  !
 ! A20   A(8,7,17)             109.2608         calculate D2E/DX2 analytically  !
 ! A21   A(8,7,18)             109.2189         calculate D2E/DX2 analytically  !
 ! A22   A(17,7,18)            109.1497         calculate D2E/DX2 analytically  !
 ! A23   A(7,8,19)             110.6038         calculate D2E/DX2 analytically  !
 ! A24   A(7,8,20)             109.7541         calculate D2E/DX2 analytically  !
 ! A25   A(7,8,21)             110.2808         calculate D2E/DX2 analytically  !
 ! A26   A(19,8,20)            108.6784         calculate D2E/DX2 analytically  !
 ! A27   A(19,8,21)            108.8104         calculate D2E/DX2 analytically  !
 ! A28   A(20,8,21)            108.6675         calculate D2E/DX2 analytically  !
 ! A29   A(1,9,10)             121.8276         calculate D2E/DX2 analytically  !
 ! A30   A(1,9,22)             123.3738         calculate D2E/DX2 analytically  !
 ! A31   A(10,9,22)            114.7986         calculate D2E/DX2 analytically  !
 ! A32   A(9,10,11)            118.7716         calculate D2E/DX2 analytically  !
 ! A33   A(9,10,25)            120.7561         calculate D2E/DX2 analytically  !
 ! A34   A(11,10,25)           120.472          calculate D2E/DX2 analytically  !
 ! A35   A(10,11,12)           120.43           calculate D2E/DX2 analytically  !
 ! A36   A(10,11,26)           120.3042         calculate D2E/DX2 analytically  !
 ! A37   A(12,11,26)           119.2658         calculate D2E/DX2 analytically  !
 ! A38   A(11,12,13)           120.2891         calculate D2E/DX2 analytically  !
 ! A39   A(11,12,23)           119.6864         calculate D2E/DX2 analytically  !
 ! A40   A(13,12,23)           120.0245         calculate D2E/DX2 analytically  !
 ! A41   A(1,13,12)            121.5347         calculate D2E/DX2 analytically  !
 ! A42   A(1,13,24)            118.9461         calculate D2E/DX2 analytically  !
 ! A43   A(12,13,24)           119.519          calculate D2E/DX2 analytically  !
 ! A44   A(10,25,27)            90.7338         calculate D2E/DX2 analytically  !
 ! A45   A(10,25,28)            90.7275         calculate D2E/DX2 analytically  !
 ! A46   A(10,25,29)            90.7267         calculate D2E/DX2 analytically  !
 ! A47   A(10,25,30)            90.5102         calculate D2E/DX2 analytically  !
 ! A48   A(27,25,28)            89.1244         calculate D2E/DX2 analytically  !
 ! A49   A(27,25,29)            90.8807         calculate D2E/DX2 analytically  !
 ! A50   A(27,25,31)            89.3327         calculate D2E/DX2 analytically  !
 ! A51   A(28,25,30)            90.8403         calculate D2E/DX2 analytically  !
 ! A52   A(28,25,31)            89.3366         calculate D2E/DX2 analytically  !
 ! A53   A(29,25,30)            89.123          calculate D2E/DX2 analytically  !
 ! A54   A(29,25,31)            89.2091         calculate D2E/DX2 analytically  !
 ! A55   A(30,25,31)            89.4233         calculate D2E/DX2 analytically  !
 ! A56   A(14,33,34)           120.0575         calculate D2E/DX2 analytically  !
 ! A57   A(32,34,33)           119.8923         calculate D2E/DX2 analytically  !
 ! A58   A(32,34,35)           116.2854         calculate D2E/DX2 analytically  !
 ! A59   A(33,34,35)           123.8222         calculate D2E/DX2 analytically  !
 ! A60   A(34,35,36)           117.7735         calculate D2E/DX2 analytically  !
 ! A61   A(34,35,37)           107.7732         calculate D2E/DX2 analytically  !
 ! A62   A(34,35,38)           107.6799         calculate D2E/DX2 analytically  !
 ! A63   A(36,35,37)           107.6662         calculate D2E/DX2 analytically  !
 ! A64   A(36,35,38)           107.5901         calculate D2E/DX2 analytically  !
 ! A65   A(37,35,38)           108.0194         calculate D2E/DX2 analytically  !
 ! A66   A(35,36,39)           111.3544         calculate D2E/DX2 analytically  !
 ! A67   A(35,36,40)           108.1335         calculate D2E/DX2 analytically  !
 ! A68   A(35,36,41)           111.318          calculate D2E/DX2 analytically  !
 ! A69   A(39,36,40)           107.7632         calculate D2E/DX2 analytically  !
 ! A70   A(39,36,41)           110.3592         calculate D2E/DX2 analytically  !
 ! A71   A(40,36,41)           107.7509         calculate D2E/DX2 analytically  !
 ! A72   L(2,14,33,7,-1)       176.5297         calculate D2E/DX2 analytically  !
 ! A73   L(10,25,31,27,-1)     180.0665         calculate D2E/DX2 analytically  !
 ! A74   L(27,25,30,10,-1)     181.244          calculate D2E/DX2 analytically  !
 ! A75   L(28,25,29,10,-1)     181.4542         calculate D2E/DX2 analytically  !
 ! A76   L(2,14,33,7,-2)       173.5151         calculate D2E/DX2 analytically  !
 ! A77   L(10,25,31,27,-2)     180.0632         calculate D2E/DX2 analytically  !
 ! A78   L(27,25,30,10,-2)     180.0195         calculate D2E/DX2 analytically  !
 ! A79   L(28,25,29,10,-2)     180.0238         calculate D2E/DX2 analytically  !
 ! D1    D(9,1,2,3)           -162.6287         calculate D2E/DX2 analytically  !
 ! D2    D(9,1,2,14)            17.3877         calculate D2E/DX2 analytically  !
 ! D3    D(13,1,2,3)            17.0734         calculate D2E/DX2 analytically  !
 ! D4    D(13,1,2,14)         -162.9102         calculate D2E/DX2 analytically  !
 ! D5    D(2,1,9,10)           179.988          calculate D2E/DX2 analytically  !
 ! D6    D(2,1,9,22)            -0.0596         calculate D2E/DX2 analytically  !
 ! D7    D(13,1,9,10)            0.2841         calculate D2E/DX2 analytically  !
 ! D8    D(13,1,9,22)         -179.7635         calculate D2E/DX2 analytically  !
 ! D9    D(2,1,13,12)         -179.8353         calculate D2E/DX2 analytically  !
 ! D10   D(2,1,13,24)            0.0464         calculate D2E/DX2 analytically  !
 ! D11   D(9,1,13,12)           -0.1094         calculate D2E/DX2 analytically  !
 ! D12   D(9,1,13,24)          179.7724         calculate D2E/DX2 analytically  !
 ! D13   D(1,2,3,4)              1.4143         calculate D2E/DX2 analytically  !
 ! D14   D(1,2,3,5)           -178.0158         calculate D2E/DX2 analytically  !
 ! D15   D(14,2,3,4)          -178.6019         calculate D2E/DX2 analytically  !
 ! D16   D(14,2,3,5)             1.9679         calculate D2E/DX2 analytically  !
 ! D17   D(1,2,33,34)            1.6575         calculate D2E/DX2 analytically  !
 ! D18   D(3,2,33,34)          177.4326         calculate D2E/DX2 analytically  !
 ! D19   D(2,3,5,6)           -176.8484         calculate D2E/DX2 analytically  !
 ! D20   D(4,3,5,6)              3.705          calculate D2E/DX2 analytically  !
 ! D21   D(3,5,6,7)           -175.6749         calculate D2E/DX2 analytically  !
 ! D22   D(3,5,6,15)            63.2357         calculate D2E/DX2 analytically  !
 ! D23   D(3,5,6,16)           -55.7587         calculate D2E/DX2 analytically  !
 ! D24   D(5,6,7,8)           -178.6792         calculate D2E/DX2 analytically  !
 ! D25   D(5,6,7,17)            61.1702         calculate D2E/DX2 analytically  !
 ! D26   D(5,6,7,18)           -58.3087         calculate D2E/DX2 analytically  !
 ! D27   D(15,6,7,8)           -57.9562         calculate D2E/DX2 analytically  !
 ! D28   D(15,6,7,17)         -178.1068         calculate D2E/DX2 analytically  !
 ! D29   D(15,6,7,18)           62.4143         calculate D2E/DX2 analytically  !
 ! D30   D(16,6,7,8)            60.6821         calculate D2E/DX2 analytically  !
 ! D31   D(16,6,7,17)          -59.4685         calculate D2E/DX2 analytically  !
 ! D32   D(16,6,7,18)         -178.9474         calculate D2E/DX2 analytically  !
 ! D33   D(6,7,8,19)           -59.5842         calculate D2E/DX2 analytically  !
 ! D34   D(6,7,8,20)          -179.4879         calculate D2E/DX2 analytically  !
 ! D35   D(6,7,8,21)            60.8244         calculate D2E/DX2 analytically  !
 ! D36   D(17,7,8,19)           60.5016         calculate D2E/DX2 analytically  !
 ! D37   D(17,7,8,20)          -59.4022         calculate D2E/DX2 analytically  !
 ! D38   D(17,7,8,21)         -179.0898         calculate D2E/DX2 analytically  !
 ! D39   D(18,7,8,19)          179.8296         calculate D2E/DX2 analytically  !
 ! D40   D(18,7,8,20)           59.9259         calculate D2E/DX2 analytically  !
 ! D41   D(18,7,8,21)          -59.7618         calculate D2E/DX2 analytically  !
 ! D42   D(1,9,10,11)           -0.2663         calculate D2E/DX2 analytically  !
 ! D43   D(1,9,10,25)          179.5514         calculate D2E/DX2 analytically  !
 ! D44   D(22,9,10,11)         179.7775         calculate D2E/DX2 analytically  !
 ! D45   D(22,9,10,25)          -0.4048         calculate D2E/DX2 analytically  !
 ! D46   D(9,10,11,12)           0.0686         calculate D2E/DX2 analytically  !
 ! D47   D(9,10,11,26)        -179.945          calculate D2E/DX2 analytically  !
 ! D48   D(25,10,11,12)       -179.7496         calculate D2E/DX2 analytically  !
 ! D49   D(25,10,11,26)          0.2369         calculate D2E/DX2 analytically  !
 ! D50   D(9,10,25,27)          46.8196         calculate D2E/DX2 analytically  !
 ! D51   D(9,10,25,28)         135.9532         calculate D2E/DX2 analytically  !
 ! D52   D(9,10,25,29)         -44.0706         calculate D2E/DX2 analytically  !
 ! D53   D(9,10,25,30)        -133.1999         calculate D2E/DX2 analytically  !
 ! D54   D(11,10,25,27)       -133.3659         calculate D2E/DX2 analytically  !
 ! D55   D(11,10,25,28)        -44.2322         calculate D2E/DX2 analytically  !
 ! D56   D(11,10,25,29)        135.744          calculate D2E/DX2 analytically  !
 ! D57   D(11,10,25,30)         46.6146         calculate D2E/DX2 analytically  !
 ! D58   D(10,11,12,13)          0.1011         calculate D2E/DX2 analytically  !
 ! D59   D(10,11,12,23)       -179.9543         calculate D2E/DX2 analytically  !
 ! D60   D(26,11,12,13)       -179.8855         calculate D2E/DX2 analytically  !
 ! D61   D(26,11,12,23)          0.0591         calculate D2E/DX2 analytically  !
 ! D62   D(11,12,13,1)          -0.0788         calculate D2E/DX2 analytically  !
 ! D63   D(11,12,13,24)       -179.9599         calculate D2E/DX2 analytically  !
 ! D64   D(23,12,13,1)         179.9767         calculate D2E/DX2 analytically  !
 ! D65   D(23,12,13,24)          0.0957         calculate D2E/DX2 analytically  !
 ! D66   D(14,33,34,32)          0.0952         calculate D2E/DX2 analytically  !
 ! D67   D(14,33,34,35)       -179.795          calculate D2E/DX2 analytically  !
 ! D68   D(32,34,35,36)       -179.796          calculate D2E/DX2 analytically  !
 ! D69   D(32,34,35,37)         58.2668         calculate D2E/DX2 analytically  !
 ! D70   D(32,34,35,38)        -58.0364         calculate D2E/DX2 analytically  !
 ! D71   D(33,34,35,36)          0.0978         calculate D2E/DX2 analytically  !
 ! D72   D(33,34,35,37)       -121.8394         calculate D2E/DX2 analytically  !
 ! D73   D(33,34,35,38)        121.8573         calculate D2E/DX2 analytically  !
 ! D74   D(34,35,36,39)        -62.0155         calculate D2E/DX2 analytically  !
 ! D75   D(34,35,36,40)        179.7724         calculate D2E/DX2 analytically  !
 ! D76   D(34,35,36,41)         61.5964         calculate D2E/DX2 analytically  !
 ! D77   D(37,35,36,39)         59.9765         calculate D2E/DX2 analytically  !
 ! D78   D(37,35,36,40)        -58.2355         calculate D2E/DX2 analytically  !
 ! D79   D(37,35,36,41)       -176.4115         calculate D2E/DX2 analytically  !
 ! D80   D(38,35,36,39)        176.1789         calculate D2E/DX2 analytically  !
 ! D81   D(38,35,36,40)         57.9668         calculate D2E/DX2 analytically  !
 ! D82   D(38,35,36,41)        -60.2091         calculate D2E/DX2 analytically  !
 --------------------------------------------------------------------------------
 Trust Radius=3.00D-01 FncErr=5.00D-06 GrdErr=5.00D-06 EigMax=2.50D+02 EigMin=1.00D-04
 Number of steps in this run=    212 maximum allowed number of steps=    246.
 GradGradGradGradGradGradGradGradGradGradGradGradGradGradGradGradGradGrad

                          Input orientation:                          
 ---------------------------------------------------------------------
 Center     Atomic      Atomic             Coordinates (Angstroms)
 Number     Number       Type             X           Y           Z
 ---------------------------------------------------------------------
      1          6           0       -5.969970    1.240100    0.288090
      2          7           0       -4.678380    0.581550    0.223220
      3          6           0       -3.467330    1.221250    0.142210
      4          8           0       -3.392430    2.438680    0.144060
      5          8           0       -2.317270    0.503840    0.045870
      6          6           0       -1.080890    1.131310    0.028250
      7          6           0        0.040360    0.125340   -0.191960
      8          6           0        1.398330    0.826940   -0.176310
      9          6           0       -7.182900    0.624430    0.718140
     10          6           0       -8.401540    1.329610    0.754540
     11          6           0       -8.414550    2.674040    0.361390
     12          6           0       -7.240600    3.298390   -0.058960
     13          6           0       -6.037000    2.586990   -0.094330
     14          1           0       -4.661330   -0.587000    0.240690
     15          1           0       -0.926700    1.660290    0.996040
     16          1           0       -1.051160    1.879800   -0.797160
     17          1           0       -0.103990   -0.372160   -1.175380
     18          1           0        0.015660   -0.641010    0.610990
     19          1           0        1.449240    1.598610   -0.975040
     20          1           0        2.205540    0.085280   -0.346860
     21          1           0        1.567460    1.317120    0.806940
     22          1           0       -7.245000   -0.394500    1.034510
     23         17           0       -7.279000    4.982710   -0.545760
     24          1           0       -5.047810    3.131020   -0.453010
     25         16           0       -9.942790    0.507190    1.299890
     26          1           0       -9.337150    3.239780    0.380520
     27          9           0       -9.134820   -0.155890    2.657000
     28          9           0      -10.360750    1.870770    2.248000
     29          9           0       -9.561680   -0.876010    0.363930
     30          9           0      -10.781950    1.153820   -0.045390
     31          9           0      -11.384700   -0.262720    1.807330
     32          8           0       -6.716050   -2.779710    0.599030
     33          8           0       -4.485260   -2.661760    0.495870
     34          6           0       -5.496240   -3.356310    0.624560
     35          6           0       -5.468170   -4.861580    0.818280
     36          6           0       -4.103680   -5.549380    0.857240
     37          1           0       -6.053860   -5.320780   -0.006970
     38          1           0       -5.986030   -5.088440    1.774930
     39          1           0       -3.558600   -5.419710   -0.099850
     40          1           0       -4.269790   -6.641700    1.008900
     41          1           0       -3.489960   -5.179930    1.703920
 ---------------------------------------------------------------------
                    Distance matrix (angstroms):
                    1          2          3          4          5
     1  C    0.000000
     2  N    1.451241   0.000000
     3  C    2.506959   1.372013   0.000000
     4  O    2.846235   2.260280   1.219733   0.000000
     5  O    3.734028   2.369036   1.358895   2.215675   0.000000
     6  C    4.897189   3.644473   2.390852   2.658166   1.386602
     7  C    6.131656   4.758887   3.690065   4.153131   2.399634
     8  C    7.394472   6.094772   4.891992   5.064753   3.736234
     9  C    1.426601   2.553313   3.807013   4.241313   4.913333
    10  C    2.477523   3.834555   4.973240   5.166614   6.180813
    11  C    2.835053   4.284457   5.160777   5.032327   6.479672
    12  C    2.443666   3.745106   4.311908   3.948257   5.662127
    13  C    1.401731   2.443046   2.919658   2.659432   4.265626
    14  H    2.247906   1.168805   2.169125   3.282405   2.592779
    15  H    5.110022   3.979451   2.715986   2.722423   2.043009
    16  H    5.077566   3.985392   2.674693   2.584528   2.051097
    17  H    6.257064   4.877570   3.948044   4.522785   2.675338
    18  H    6.282564   4.866110   3.977309   4.617098   2.659437
    19  H    7.534501   6.325975   5.056017   5.039828   4.053070
    20  H    8.281047   6.925289   5.806124   6.092353   4.559083
    21  H    7.555659   6.316036   5.079387   5.128140   4.041260
    22  H    2.203352   2.863285   4.204478   4.864371   5.105580
    23  Cl   4.051666   5.169600   5.399140   4.696101   6.710370
    24  H    2.230513   2.663374   2.549397   1.891061   3.821885
    25  S    4.164636   5.373896   6.616773   6.926313   7.727945
    26  H    3.917290   5.366104   6.211766   6.003113   7.541623
    27  F    4.192469   5.130980   6.351466   6.783930   7.330227
    28  F    4.849530   6.168562   7.237090   7.301135   8.450766
    29  F    4.169419   5.098127   6.448935   7.006794   7.381506
    30  F    4.824293   6.136221   7.317336   7.502784   8.490089
    31  F    5.821156   6.942400   8.225542   8.598861   9.268692
    32  O    4.100267   3.948595   5.174026   6.203631   5.516969
    33  O    4.179958   3.260474   4.029767   5.228053   3.863121
    34  C    4.632992   4.041870   5.030228   6.183753   5.034033
    35  C    6.145194   5.532226   6.439041   7.619519   6.269970
    36  C    7.064277   6.190361   6.837956   8.051311   6.363258
    37  H    6.568047   6.064852   7.036373   8.204586   6.920339
    38  H    6.500875   6.022171   6.987261   8.126748   6.908187
    39  H    7.093537   6.113379   6.645997   7.863930   6.053972
    40  H    8.095242   7.277333   7.951168   9.163570   7.469840
    41  H    7.026508   6.066256   6.588972   7.777268   6.035692
                    6          7          8          9         10
     6  C    0.000000
     7  C    1.522389   0.000000
     8  C    2.506196   1.528584   0.000000
     9  C    6.161769   7.297456   8.630096   0.000000
    10  C    7.359262   8.579732   9.856805   1.408434   0.000000
    11  C    7.501571   8.848026   9.999676   2.417671   1.400796
    12  C    6.530380   7.943445   8.986264   2.785189   2.426038
    13  C    5.166919   6.557710   7.641245   2.413470   2.809383
    14  H    3.977093   4.774987   6.236393   2.837928   4.233982
    15  H    1.113648   2.168553   2.733979   6.347462   7.486047
    16  H    1.114640   2.153094   2.737512   6.439746   7.532501
    17  H    2.159509   1.111512   2.166321   7.395240   8.687344
    18  H    2.164053   1.110239   2.164831   7.309725   8.645994
    19  H    2.761615   2.183731   1.111772   8.850408  10.005082
    20  H    3.469223   2.171083   1.109385   9.464022  10.736461
    21  H    2.766702   2.179490   1.111603   8.778183   9.969146
    22  H    6.429378   7.406142   8.812784   1.068721   2.094880
    23  Cl   7.319791   8.791601   9.628238   4.538864   4.036832
    24  H    4.468434   5.915381   6.851136   3.494738   3.993840
    25  S    8.974401  10.101223  11.441259   2.822972   1.830091
    26  H    8.528515   9.897735  11.017368   3.405119   2.159631
    27  F    8.569306   9.611430  10.951751   2.859732   2.522650
    28  F    9.570261  10.825111  12.051673   3.740664   2.522257
    29  F    8.721572   9.670103  11.104671   2.834674   2.522550
    30  F    9.701366  10.872058  12.185369   3.717041   2.517368
    31  F   10.548789  11.605160  12.981835   4.430406   3.541627
    32  O    6.883088   7.396895   8.913599   3.438067   4.444274
    33  O    5.118182   5.359316   6.873099   4.257430   5.597785
    34  C    6.323736   6.591095   8.104077   4.324335   5.515026
    35  C    7.469076   7.498924   8.972028   5.748620   6.851245
    36  C    7.379438   7.104670   8.485152   6.900498   8.111883
    37  H    8.146234   8.175204   9.662208   6.094755   7.093602
    38  H    8.111509   8.207895   9.660633   5.931795   6.933055
    39  H    7.005092   6.611246   7.974813   7.094807   8.350890
    40  H    8.458749   8.112477   9.450550   7.833735   8.982084
    41  H    6.960118   6.648565   7.969513   6.949832   8.209693
                   11         12         13         14         15
    11  C    0.000000
    12  C    1.394513   0.000000
    13  C    2.422396   1.398569   0.000000
    14  H    4.973491   4.673187   3.475474   0.000000
    15  H    7.582768   6.607702   5.306868   4.423610   0.000000
    16  H    7.496170   6.392691   5.084554   4.493947   1.810868
    17  H    8.983674   8.102502   6.717577   4.777108   3.085899
    18  H    9.062025   8.283780   6.895807   4.691937   2.516404
    19  H   10.011840   8.901785   7.602390   6.602572   3.087726
    20  H   10.953977   9.981810   8.617528   6.924672   3.754326
    21  H   10.083664   9.069572   7.762259   6.537900   2.524749
    22  H    3.352145   3.851381   3.409227   2.709715   6.644137
    23  Cl   2.728067   1.753677   2.736024   6.204222   7.332621
    24  H    3.493854   2.234192   1.184532   3.801876   4.609375
    25  S    2.812746   4.115714   4.639463   5.496633   9.094605
    26  H    1.082413   2.142919   3.397441   6.043765   8.579588
    27  F    3.714447   4.785035   4.968873   5.102600   8.569162
    28  F    2.827054   4.134670   4.969335   6.523290   9.519086
    29  F    3.730787   4.794983   4.962433   4.910412   9.021932
    30  F    2.842731   4.140112   4.956906   6.369795   9.923056
    31  F    4.420078   5.773916   6.350988   6.911094  10.664236
    32  O    5.717059   6.136074   5.453744   3.026262   7.306695
    33  O    6.627833   6.589622   5.505053   2.097796   5.620822
    34  C    6.704544   6.913394   6.010993   2.917792   6.795952
    35  C    8.104040   8.396200   7.525797   4.388238   7.949298
    36  C    9.298070   9.432005   8.416872   5.031533   7.879836
    37  H    8.344201   8.700641   7.908271   4.940562   8.719469
    38  H    8.255416   8.676175   7.899934   4.936769   8.470469
    39  H    9.449962   9.463829   8.381512   4.968608   7.632449
    40  H   10.216717  10.429354   9.460913   6.115786   8.949830
    41  H    9.366900   9.436999   8.369359   4.960661   7.338938
                   16         17         18         19         20
    16  H    0.000000
    17  H    2.472146   0.000000
    18  H    3.078226   1.810446   0.000000
    19  H    2.522441   2.517259   3.096214   0.000000
    20  H    3.745553   2.495922   2.498109   1.804652   0.000000
    21  H    3.122005   3.094674   2.506143   1.807945   1.804392
    22  H    6.847708   7.475168   7.277178   9.143336   9.563006
    23  Cl   6.962560   8.975067   9.283122   9.371157  10.676183
    24  H    4.202047   6.102085   6.403049   6.695704   7.867585
    25  S    9.238115  10.183428  10.048068  11.668113  12.266691
    26  H    8.479039  10.035845  10.128608  10.994416  11.988063
    27  F    9.023348   9.812737   9.388971  11.326620  11.733930
    28  F    9.794976  11.043160  10.800867  12.244914  12.955034
    29  F    9.020619   9.595376   9.583408  11.364724  11.827796
    30  F    9.786750  10.845475  10.965429  12.274530  13.034859
    31  F   10.869950  11.668888  11.469200  13.263338  13.764311
    32  O    7.466683   7.257008   7.063292   9.397837   9.417943
    33  O    5.838727   5.218321   4.935075   7.452021   7.281705
    34  C    7.014048   6.420381   6.144435   8.680417   8.491502
    35  C    8.219844   7.273514   6.923046   9.633307   9.204064
    36  C    8.200465   6.850742   6.412620   9.235038   8.544326
    37  H    8.803395   7.826556   7.689031  10.252396   9.877181
    38  H    8.917677   8.096050   7.560071  10.371220   9.918225
    39  H    7.749603   6.210383   6.009709   8.666097   7.974412
    40  H    9.286409   7.837863   7.384558  10.224775   9.435054
    41  H    7.876734   6.547504   5.838293   8.804608   8.022896
                   21         22         23         24         25
    21  H    0.000000
    22  H    8.980027   0.000000
    23  Cl   9.670895   5.604712   0.000000
    24  H    6.974203   4.412443   2.900960   0.000000
    25  S   11.549236   2.856841   5.525620   5.823914   0.000000
    26  H   11.081019   4.244147   2.851628   4.370931   2.946029
    27  F   10.960441   2.502165   6.333005   6.097507   1.712962
    28  F   12.027692   4.038800   5.194848   6.091881   1.712587
    29  F   11.351821   2.459377   6.353170   6.090870   1.713041
    30  F   12.379865   4.009176   5.213581   6.079131   1.712337
    31  F   13.086448   4.213281   7.064584   7.535435   1.711538
    32  O    9.243581   2.481664   7.866551   6.231095   4.659052
    33  O    7.250081   3.612031   8.205358   5.896875   6.361865
    34  C    8.471722   3.463891   8.607388   6.591487   5.929124
    35  C    9.363576   4.812347  10.101968   8.103983   7.005559
    36  C    8.905795   6.039214  11.089454   8.829353   8.424558
    37  H   10.139462   5.174140  10.390051   8.523146   7.127194
    38  H    9.951051   4.915923  10.415634   8.567584   6.869693
    39  H    8.513732   6.334750  11.056697   8.686625   8.822998
    40  H    9.872036   6.919540  12.107816   9.912041   9.130949
    41  H    8.282133   6.119540  11.076874   8.726462   8.610783
                   26         27         28         29         30
    26  H    0.000000
    27  F    4.093150   0.000000
    28  F    2.531685   2.403651   0.000000
    29  F    4.121943   2.441097   3.425352   0.000000
    30  F    2.572951   3.425097   2.439480   2.403500   0.000000
    31  F    4.300669   2.407345   2.407165   2.404772   2.408831
    32  O    6.569031   4.119481   6.134322   3.431757   5.693811
    33  O    7.640832   5.706862   7.624642   5.382969   7.382406
    34  C    7.636789   5.254785   7.322662   4.769446   6.980604
    35  C    8.988475   6.242494   8.444287   5.731320   8.072622
    36  C   10.240401   7.592183   9.805293   7.202326   9.505100
    37  H    9.176782   6.577624   8.680587   5.674359   8.017279
    38  H    9.084802   5.918021   8.233625   5.702698   8.079618
    39  H   10.421572   8.148758  10.243668   7.543028   9.766834
    40  H   11.122798   8.273481  10.540271   7.852596  10.212242
    41  H   10.335983   7.616678   9.859825   7.562082   9.815783
                   31         32         33         34         35
    31  F    0.000000
    32  O    5.439809   0.000000
    33  O    7.421428   2.236287   0.000000
    34  C    6.755976   1.349465   1.233305   0.000000
    35  C    7.558641   2.437100   2.430899   1.517944   0.000000
    36  C    9.047911   3.816048   2.935054   2.608241   1.528535
    37  H    7.569248   2.694952   3.127897   2.137501   1.111276
    38  H    7.241151   2.691822   3.126832   2.136240   1.111226
    39  H    9.564503   4.174629   2.969826   2.921787   2.191102
    40  H    9.589099   4.589896   4.018650   3.527844   2.154363
    41  H    9.301428   4.170071   2.964994   2.918179   2.190667
                   36         37         38         39         40
    36  C    0.000000
    37  H    2.145302   0.000000
    38  H    2.144263   1.798263   0.000000
    39  H    1.109030   2.498947   3.084956   0.000000
    40  H    1.115238   2.441255   2.438216   1.796769   0.000000
    41  H    1.109059   3.085542   2.498755   1.820932   1.796652
                   41
    41  H    0.000000
 Stoichiometry    C13H16ClF5NO4S(1-)
 Framework group  C1[X(C13H16ClF5NO4S)]
 Deg. of freedom   117
 Full point group                 C1      NOp   1
 Largest Abelian subgroup         C1      NOp   1
 Largest concise Abelian subgroup C1      NOp   1
                         Standard orientation:                         
 ---------------------------------------------------------------------
 Center     Atomic      Atomic             Coordinates (Angstroms)
 Number     Number       Type             X           Y           Z
 ---------------------------------------------------------------------
      1          6           0       -0.188228   -0.915600   -0.093964
      2          7           0       -1.576520   -0.493655   -0.067306
      3          6           0       -2.652901   -1.325382    0.111733
      4          8           0       -2.505402   -2.522610    0.292396
      5          8           0       -3.917202   -0.828288    0.079531
      6          6           0       -5.013293   -1.642030    0.322582
      7          6           0       -6.315865   -0.879185    0.124994
      8          6           0       -7.513498   -1.779431    0.427982
      9          6           0        0.934245   -0.050952    0.072253
     10          6           0        2.256468   -0.534667    0.034372
     11          6           0        2.467674   -1.904728   -0.167001
     12          6           0        1.385957   -2.769968   -0.327980
     13          6           0        0.077417   -2.277599   -0.292060
     14          1           0       -1.802775    0.644208   -0.209362
     15          1           0       -4.957474   -2.026719    1.366186
     16          1           0       -5.001165   -2.508107   -0.378978
     17          1           0       -6.377383   -0.529247   -0.928199
     18          1           0       -6.338708   -0.000135    0.802771
     19          1           0       -7.514812   -2.667222   -0.241243
     20          1           0       -8.455779   -1.215188    0.271542
     21          1           0       -7.477531   -2.126276    1.483476
     22          1           0        0.846569    1.001995    0.232815
     23         17           0        1.672804   -4.481903   -0.577734
     24          1           0       -0.831320   -3.024854   -0.429621
     25         16           0        3.675389    0.602893    0.238951
     26          1           0        3.473501   -2.303317   -0.199536
     27          9           0        2.921250    1.335663    1.591194
     28          9           0        4.438962   -0.505077    1.298343
     29          9           0        2.945648    1.737877   -0.816415
     30          9           0        4.458369   -0.106917   -1.108347
     31          9           0        5.002449    1.667175    0.427570
     32          8           0       -0.151805    3.169046   -0.449679
     33          8           0       -2.321279    2.676881   -0.221347
     34          6           0       -1.444807    3.537312   -0.333138
     35          6           0       -1.722649    5.029543   -0.347411
     36          6           0       -3.175575    5.484842   -0.212769
     37          1           0       -1.328047    5.438944   -1.302196
     38          1           0       -1.148511    5.487710    0.486418
     39          1           0       -3.793952    5.116835   -1.056647
     40          1           0       -3.193775    6.599636   -0.238437
     41          1           0       -3.611359    5.161736    0.754551
 ---------------------------------------------------------------------
 Rotational constants (GHZ):           0.1846739           0.1018564           0.0684655
 Standard basis: 6-311+G(d) (5D, 7F)
 There are   639 symmetry adapted cartesian basis functions of A   symmetry.
 There are   614 symmetry adapted basis functions of A   symmetry.
   614 basis functions,  1011 primitive gaussians,   639 cartesian basis functions
   106 alpha electrons      106 beta electrons
       nuclear repulsion energy      2686.6739413931 Hartrees.
 NAtoms=   41 NActive=   41 NUniq=   41 SFac= 1.00D+00 NAtFMM=   60 NAOKFM=F Big=F
 Integral buffers will be    131072 words long.
 Raffenetti 2 integral format.
 Two-electron integral symmetry is turned on.
 Nuclear repulsion after empirical dispersion term =     2686.6714875656 Hartrees.
 Force inversion solution in PCM.
 ------------------------------------------------------------------------------
 Polarizable Continuum Model (PCM)
 =================================
 Model                : PCM.
 Atomic radii         : SMD-Coulomb.
 Polarization charges : Total charges.
 Charge compensation  : None.
 Solution method      : Matrix inversion.
 Cavity type          : VdW (van der Waals Surface) (Alpha=1.000).
 Cavity algorithm     : GePol (No added spheres)
                        Default sphere list used, NSphG=   41.
                        Lebedev-Laikov grids with approx.  5.0 points / Ang**2.
                        Smoothing algorithm: York/Karplus (Gamma=1.0000).
                        Polarization charges: spherical gaussians, with
                                              point-specific exponents (IZeta= 3).
                        Self-potential: point-specific (ISelfS= 7).
                        Self-field    : sphere-specific E.n sum rule (ISelfD= 2).
 1st derivatives      : Analytical E(r).r(x)/FMM algorithm (CHGder, D1EAlg=3).
                        Cavity 1st derivative terms included.
 2nd derivatives      : Analytical E(r).r(xy)/FMM algorithm (CHGder, D2EAlg=3).
                        Cavity 2nd derivative terms included.
 Solvent              : n-Pentadecane, Eps=   2.033300 Eps(inf)=   2.049192
 ------------------------------------------------------------------------------
 ------------------------------------------------------------------------------
 Atomic radii for non-electrostatic terms: SMD-CDS.
 ------------------------------------------------------------------------------
 Nuclear repulsion after PCM non-electrostatic terms =     2686.6653617408 Hartrees.
 One-electron integrals computed using PRISM.
 NBasis=   614 RedAO= T EigKep=  1.03D-06  NBF=   614
 NBsUse=   612 1.00D-06 EigRej=  6.35D-07 NBFU=   612
 ExpMin= 4.05D-02 ExpMax= 1.06D+05 ExpMxC= 3.62D+03 IAcc=3 IRadAn=         5 AccDes= 0.00D+00
 Harris functional with IExCor= 1009 and IRadAn=       5 diagonalized for initial guess.
 HarFok:  IExCor= 1009 AccDes= 0.00D+00 IRadAn=         5 IDoV= 1 UseB2=F ITyADJ=14
 ICtDFT=  3500011 ScaDFX=  1.000000  1.000000  1.000000  1.000000
 FoFCou: FMM=F IPFlag=           0 FMFlag=      100000 FMFlg1=           0
         NFxFlg=           0 DoJE=T BraDBF=F KetDBF=T FulRan=T
         wScrn=  0.000000 ICntrl=       500 IOpCl=  0 I1Cent=   200000004 NGrid=           0
         NMat0=    1 NMatS0=      1 NMatT0=    0 NMatD0=    1 NMtDS0=    0 NMtDT0=    0
 Petite list used in FoFCou.
 Requested convergence on RMS density matrix=1.00D-08 within 128 cycles.
 Requested convergence on MAX density matrix=1.00D-06.
 Requested convergence on             energy=1.00D-06.
 No special actions if energy rises.
 Inv3:  Mode=1 IEnd=    36352083.
 Iteration    1 A*A^-1 deviation from unit magnitude is 5.77D-15 for   3479.
 Iteration    1 A*A^-1 deviation from orthogonality  is 3.55D-15 for   3477    660.
 Iteration    1 A^-1*A deviation from unit magnitude is 5.88D-15 for   3475.
 Iteration    1 A^-1*A deviation from orthogonality  is 8.51D-11 for   1817   1795.
 Error on total polarization charges =  0.01086
 SCF Done:  E(RM062X) =  -2218.09210372     A.U. after   18 cycles
            NFock= 18  Conv=0.52D-08     -V/T= 2.0034
 SMD-CDS (non-electrostatic) energy       (kcal/mol) =      -3.84
 (included in total energy above)
 DoSCS=F DFT=T ScalE2(SS,OS)=  1.000000  1.000000
 Range of M.O.s used for correlation:     1   612
 NBasis=   614 NAE=   106 NBE=   106 NFC=     0 NFV=     0
 NROrb=    612 NOA=   106 NOB=   106 NVA=   506 NVB=   506

 **** Warning!!: The largest alpha MO coefficient is  0.15915693D+03

 Symmetrizing basis deriv contribution to polar:
 IMax=3 JMax=2 DiffMx= 0.00D+00
 G2DrvN: will do    42 centers at a time, making    1 passes.
 Calling FoFCou, ICntrl=  3107 FMM=F I1Cent=   0 AccDes= 0.00D+00.
 NEqPCM:  Using equilibrium solvation (IEInf=0, Eps=   2.0333, EpsInf=   2.0492)
 G2PCM: DoFxE=T DoFxN=T DoGrad=T DoDP/DQ/DG/TGxP=FFFF NFrqRd=   0 IEInf=0 SqF1=F DoCFld=F IF1Alg=4.
 End of G2Drv F.D. properties file   721 does not exist.
 End of G2Drv F.D. properties file   722 does not exist.
 End of G2Drv F.D. properties file   788 does not exist.
          IDoAtm=11111111111111111111111111111111111111111
 NEqPCM:  Using equilibrium solvation (IEInf=0, Eps=   2.0333, EpsInf=   2.0492)
          Differentiating once with respect to nuclear coordinates.
 CalDSu exits because no D1Ps are significant.
          There are   126 degrees of freedom in the 1st order CPHF.  IDoFFX=6 NUNeed=     0.
    120 vectors produced by pass  0 Test12= 5.36D-14 1.00D-09 XBig12= 7.09D-01 1.24D-01.
 AX will form    64 AO Fock derivatives at one time.
    120 vectors produced by pass  1 Test12= 5.36D-14 1.00D-09 XBig12= 3.59D-02 4.57D-02.
    120 vectors produced by pass  2 Test12= 5.36D-14 1.00D-09 XBig12= 1.24D-03 5.45D-03.
    120 vectors produced by pass  3 Test12= 5.36D-14 1.00D-09 XBig12= 1.47D-05 5.14D-04.
    120 vectors produced by pass  4 Test12= 5.36D-14 1.00D-09 XBig12= 1.66D-07 3.93D-05.
    120 vectors produced by pass  5 Test12= 5.36D-14 1.00D-09 XBig12= 1.25D-09 3.62D-06.
    106 vectors produced by pass  6 Test12= 5.36D-14 1.00D-09 XBig12= 6.41D-12 2.47D-07.
     41 vectors produced by pass  7 Test12= 5.36D-14 1.00D-09 XBig12= 2.77D-14 1.24D-08.
 InvSVY:  IOpt=1 It=  1 EMax= 9.99D-16
 Solved reduced A of dimension   867 with   126 vectors.
 End of Minotr F.D. properties file   721 does not exist.
 End of Minotr F.D. properties file   722 does not exist.
 End of Minotr F.D. properties file   788 does not exist.

 **********************************************************************

            Population analysis using the SCF Density.

 **********************************************************************

 Orbital symmetries:
       Occupied  (A) (A) (A) (A) (A) (A) (A) (A) (A) (A) (A) (A)
                 (A) (A) (A) (A) (A) (A) (A) (A) (A) (A) (A) (A)
                 (A) (A) (A) (A) (A) (A) (A) (A) (A) (A) (A) (A)
                 (A) (A) (A) (A) (A) (A) (A) (A) (A) (A) (A) (A)
                 (A) (A) (A) (A) (A) (A) (A) (A) (A) (A) (A) (A)
                 (A) (A) (A) (A) (A) (A) (A) (A) (A) (A) (A) (A)
                 (A) (A) (A) (A) (A) (A) (A) (A) (A) (A) (A) (A)
                 (A) (A) (A) (A) (A) (A) (A) (A) (A) (A) (A) (A)
                 (A) (A) (A) (A) (A) (A) (A) (A) (A) (A)
       Virtual   (A) (A) (A) (A) (A) (A) (A) (A) (A) (A) (A) (A)
                 (A) (A) (A) (A) (A) (A) (A) (A) (A) (A) (A) (A)
                 (A) (A) (A) (A) (A) (A) (A) (A) (A) (A) (A) (A)
                 (A) (A) (A) (A) (A) (A) (A) (A) (A) (A) (A) (A)
                 (A) (A) (A) (A) (A) (A) (A) (A) (A) (A) (A) (A)
                 (A) (A) (A) (A) (A) (A) (A) (A) (A) (A) (A) (A)
                 (A) (A) (A) (A) (A) (A) (A) (A) (A) (A) (A) (A)
                 (A) (A) (A) (A) (A) (A) (A) (A) (A) (A) (A) (A)
                 (A) (A) (A) (A) (A) (A) (A) (A) (A) (A) (A) (A)
                 (A) (A) (A) (A) (A) (A) (A) (A) (A) (A) (A) (A)
                 (A) (A) (A) (A) (A) (A) (A) (A) (A) (A) (A) (A)
                 (A) (A) (A) (A) (A) (A) (A) (A) (A) (A) (A) (A)
                 (A) (A) (A) (A) (A) (A) (A) (A) (A) (A) (A) (A)
                 (A) (A) (A) (A) (A) (A) (A) (A) (A) (A) (A) (A)
                 (A) (A) (A) (A) (A) (A) (A) (A) (A) (A) (A) (A)
                 (A) (A) (A) (A) (A) (A) (A) (A) (A) (A) (A) (A)
                 (A) (A) (A) (A) (A) (A) (A) (A) (A) (A) (A) (A)
                 (A) (A) (A) (A) (A) (A) (A) (A) (A) (A) (A) (A)
                 (A) (A) (A) (A) (A) (A) (A) (A) (A) (A) (A) (A)
                 (A) (A) (A) (A) (A) (A) (A) (A) (A) (A) (A) (A)
                 (A) (A) (A) (A) (A) (A) (A) (A) (A) (A) (A) (A)
                 (A) (A) (A) (A) (A) (A) (A) (A) (A) (A) (A) (A)
                 (A) (A) (A) (A) (A) (A) (A) (A) (A) (A) (A) (A)
                 (A) (A) (A) (A) (A) (A) (A) (A) (A) (A) (A) (A)
                 (A) (A) (A) (A) (A) (A) (A) (A) (A) (A) (A) (A)
                 (A) (A) (A) (A) (A) (A) (A) (A) (A) (A) (A) (A)
                 (A) (A) (A) (A) (A) (A) (A) (A) (A) (A) (A) (A)
                 (A) (A) (A) (A) (A) (A) (A) (A) (A) (A) (A) (A)
                 (A) (A) (A) (A) (A) (A) (A) (A) (A) (A) (A) (A)
                 (A) (A) (A) (A) (A) (A) (A) (A) (A) (A) (A) (A)
                 (A) (A) (A) (A) (A) (A) (A) (A) (A) (A) (A) (A)
                 (A) (A) (A) (A) (A) (A) (A) (A) (A) (A) (A) (A)
                 (A) (A) (A) (A) (A) (A) (A) (A) (A) (A) (A) (A)
                 (A) (A) (A) (A) (A) (A) (A) (A) (A) (A) (A) (A)
                 (A) (A) (A) (A) (A) (A) (A) (A) (A) (A) (A) (A)
                 (A) (A) (A) (A) (A) (A) (A) (A) (A) (A) (A) (A)
                 (A) (A) (A) (A) (A) (A) (A) (A) (A) (A) (A) (A)
                 (A) (A) (A) (A) (A) (A) (A) (A) (A) (A) (A) (A)
                 (A) (A) (A) (A) (A) (A) (A) (A) (A) (A) (A) (A)
                 (A) (A) (A) (A) (A) (A) (A) (A) (A) (A) (A) (A)
                 (A) (A) (A) (A) (A) (A) (A) (A) (A) (A) (A) (A)
                 (A) (A) (A) (A) (A) (A) (A) (A) (A) (A) (A) (A)
                 (A) (A)
 The electronic state is 1-A.
 Alpha  occ. eigenvalues -- -102.65240 -90.25280 -25.26548 -25.25089 -25.24943
 Alpha  occ. eigenvalues --  -25.24426 -25.24037 -19.62482 -19.55654 -19.49110
 Alpha  occ. eigenvalues --  -19.45624 -14.75645 -10.66690 -10.58820 -10.58747
 Alpha  occ. eigenvalues --  -10.58216 -10.55849 -10.54455 -10.54294 -10.53764
 Alpha  occ. eigenvalues --  -10.53167 -10.50494 -10.50271 -10.46981 -10.46856
 Alpha  occ. eigenvalues --   -9.79472  -8.57462  -7.51990  -7.51308  -7.51301
 Alpha  occ. eigenvalues --   -6.49808  -6.49791  -6.49413  -1.40873  -1.33403
 Alpha  occ. eigenvalues --   -1.33222  -1.32387  -1.30163  -1.20337  -1.10358
 Alpha  occ. eigenvalues --   -1.05964  -1.00063  -0.96874  -0.93549  -0.92781
 Alpha  occ. eigenvalues --   -0.89240  -0.85826  -0.82378  -0.80648  -0.79454
 Alpha  occ. eigenvalues --   -0.76039  -0.70565  -0.68899  -0.67269  -0.66862
 Alpha  occ. eigenvalues --   -0.65373  -0.64604  -0.63474  -0.61243  -0.58593
 Alpha  occ. eigenvalues --   -0.57360  -0.56406  -0.56270  -0.55220  -0.54618
 Alpha  occ. eigenvalues --   -0.54023  -0.52194  -0.51867  -0.50871  -0.50811
 Alpha  occ. eigenvalues --   -0.50590  -0.50572  -0.50295  -0.49570  -0.49392
 Alpha  occ. eigenvalues --   -0.49150  -0.48630  -0.47640  -0.47437  -0.46419
 Alpha  occ. eigenvalues --   -0.45982  -0.45111  -0.44430  -0.43801  -0.43100
 Alpha  occ. eigenvalues --   -0.41325  -0.41128  -0.40518  -0.39968  -0.39390
 Alpha  occ. eigenvalues --   -0.38481  -0.37775  -0.37042  -0.36936  -0.35799
 Alpha  occ. eigenvalues --   -0.35580  -0.34216  -0.34075  -0.32912  -0.32694
 Alpha  occ. eigenvalues --   -0.31017  -0.28238  -0.25216  -0.23487  -0.21498
 Alpha  occ. eigenvalues --   -0.20505
 Alpha virt. eigenvalues --   -0.06518   0.01734   0.03637   0.04803   0.05127
 Alpha virt. eigenvalues --    0.06410   0.06533   0.06917   0.07076   0.07331
 Alpha virt. eigenvalues --    0.07411   0.07837   0.08120   0.08666   0.09122
 Alpha virt. eigenvalues --    0.09234   0.09470   0.09795   0.10265   0.10380
 Alpha virt. eigenvalues --    0.10779   0.11345   0.11387   0.11687   0.11903
 Alpha virt. eigenvalues --    0.12194   0.12605   0.12901   0.13346   0.13781
 Alpha virt. eigenvalues --    0.14043   0.14516   0.14601   0.14944   0.15456
 Alpha virt. eigenvalues --    0.15877   0.16005   0.16284   0.16531   0.16892
 Alpha virt. eigenvalues --    0.17044   0.17907   0.18613   0.18783   0.19237
 Alpha virt. eigenvalues --    0.19576   0.19822   0.20160   0.20892   0.21313
 Alpha virt. eigenvalues --    0.21630   0.21919   0.22217   0.22525   0.23034
 Alpha virt. eigenvalues --    0.23600   0.23930   0.24108   0.24521   0.24602
 Alpha virt. eigenvalues --    0.25049   0.25292   0.25664   0.26190   0.26380
 Alpha virt. eigenvalues --    0.27089   0.27134   0.27214   0.28010   0.28249
 Alpha virt. eigenvalues --    0.28739   0.28935   0.29517   0.29711   0.29875
 Alpha virt. eigenvalues --    0.30249   0.30656   0.30852   0.31337   0.31386
 Alpha virt. eigenvalues --    0.31834   0.31892   0.32238   0.32567   0.33061
 Alpha virt. eigenvalues --    0.33210   0.33337   0.33698   0.34308   0.34342
 Alpha virt. eigenvalues --    0.34486   0.34707   0.35072   0.35481   0.35701
 Alpha virt. eigenvalues --    0.36261   0.36454   0.36915   0.37455   0.37586
 Alpha virt. eigenvalues --    0.37860   0.38633   0.38871   0.39145   0.39283
 Alpha virt. eigenvalues --    0.39609   0.40096   0.40400   0.40578   0.41441
 Alpha virt. eigenvalues --    0.41896   0.42114   0.42191   0.43005   0.43219
 Alpha virt. eigenvalues --    0.43892   0.44876   0.45690   0.45899   0.46778
 Alpha virt. eigenvalues --    0.47354   0.47495   0.47982   0.48256   0.48732
 Alpha virt. eigenvalues --    0.49295   0.49581   0.50096   0.50622   0.50673
 Alpha virt. eigenvalues --    0.51125   0.51813   0.52298   0.52599   0.52845
 Alpha virt. eigenvalues --    0.53159   0.53953   0.54731   0.54922   0.55800
 Alpha virt. eigenvalues --    0.56437   0.56928   0.57211   0.57796   0.58699
 Alpha virt. eigenvalues --    0.59694   0.60177   0.60668   0.60895   0.61314
 Alpha virt. eigenvalues --    0.61916   0.62515   0.62718   0.63601   0.64179
 Alpha virt. eigenvalues --    0.64935   0.65695   0.65999   0.66587   0.67395
 Alpha virt. eigenvalues --    0.68217   0.68514   0.68849   0.70204   0.70404
 Alpha virt. eigenvalues --    0.71156   0.71238   0.71490   0.72123   0.72466
 Alpha virt. eigenvalues --    0.73401   0.73805   0.74421   0.75272   0.75454
 Alpha virt. eigenvalues --    0.75945   0.76516   0.76676   0.77301   0.77745
 Alpha virt. eigenvalues --    0.78098   0.79098   0.79948   0.80091   0.80734
 Alpha virt. eigenvalues --    0.80868   0.81036   0.82301   0.82463   0.83094
 Alpha virt. eigenvalues --    0.83644   0.84169   0.85299   0.85799   0.87897
 Alpha virt. eigenvalues --    0.89930   0.91136   0.91623   0.91979   0.93049
 Alpha virt. eigenvalues --    0.93767   0.93950   0.95807   0.96434   0.97234
 Alpha virt. eigenvalues --    0.97736   0.98065   0.99386   1.00189   1.01007
 Alpha virt. eigenvalues --    1.01550   1.03816   1.05012   1.06055   1.07384
 Alpha virt. eigenvalues --    1.07554   1.08766   1.09554   1.10825   1.11396
 Alpha virt. eigenvalues --    1.11980   1.12537   1.14000   1.15545   1.16801
 Alpha virt. eigenvalues --    1.17596   1.17892   1.19628   1.19710   1.23693
 Alpha virt. eigenvalues --    1.24244   1.24774   1.25642   1.27270   1.27665
 Alpha virt. eigenvalues --    1.28321   1.28997   1.29652   1.30065   1.31434
 Alpha virt. eigenvalues --    1.33255   1.33666   1.35000   1.35656   1.36946
 Alpha virt. eigenvalues --    1.37483   1.38784   1.40004   1.41510   1.41906
 Alpha virt. eigenvalues --    1.41991   1.42625   1.43216   1.44295   1.45771
 Alpha virt. eigenvalues --    1.46705   1.47230   1.49035   1.50103   1.51391
 Alpha virt. eigenvalues --    1.52480   1.53439   1.54717   1.55011   1.55791
 Alpha virt. eigenvalues --    1.56187   1.57356   1.58754   1.59718   1.60451
 Alpha virt. eigenvalues --    1.60658   1.61343   1.61835   1.62926   1.64026
 Alpha virt. eigenvalues --    1.65104   1.65427   1.65985   1.66288   1.66907
 Alpha virt. eigenvalues --    1.67895   1.69175   1.70157   1.72196   1.73366
 Alpha virt. eigenvalues --    1.73849   1.74624   1.76405   1.77180   1.79262
 Alpha virt. eigenvalues --    1.79880   1.80694   1.81489   1.82523   1.84263
 Alpha virt. eigenvalues --    1.84458   1.85349   1.87126   1.87836   1.87998
 Alpha virt. eigenvalues --    1.88499   1.89546   1.90904   1.92381   1.93601
 Alpha virt. eigenvalues --    1.94036   1.95860   1.96155   1.97213   1.98848
 Alpha virt. eigenvalues --    2.00599   2.01863   2.02360   2.03594   2.06143
 Alpha virt. eigenvalues --    2.07626   2.09885   2.10813   2.12176   2.14703
 Alpha virt. eigenvalues --    2.15841   2.20207   2.21972   2.22350   2.23996
 Alpha virt. eigenvalues --    2.25824   2.26915   2.26995   2.30720   2.32374
 Alpha virt. eigenvalues --    2.33740   2.37512   2.38164   2.41334   2.44881
 Alpha virt. eigenvalues --    2.47640   2.51066   2.53473   2.55113   2.56609
 Alpha virt. eigenvalues --    2.58139   2.58542   2.58719   2.59251   2.60417
 Alpha virt. eigenvalues --    2.61865   2.62243   2.63380   2.64291   2.65354
 Alpha virt. eigenvalues --    2.68471   2.69867   2.71221   2.73512   2.74720
 Alpha virt. eigenvalues --    2.76512   2.82169   2.82437   2.84515   2.85948
 Alpha virt. eigenvalues --    2.89734   2.91374   2.97809   2.99164   3.01046
 Alpha virt. eigenvalues --    3.02025   3.04091   3.04288   3.05830   3.06770
 Alpha virt. eigenvalues --    3.07562   3.09110   3.09331   3.11120   3.11607
 Alpha virt. eigenvalues --    3.14007   3.15465   3.16042   3.17719   3.20836
 Alpha virt. eigenvalues --    3.23043   3.23492   3.23584   3.25742   3.28951
 Alpha virt. eigenvalues --    3.30550   3.30828   3.30913   3.31413   3.32827
 Alpha virt. eigenvalues --    3.33047   3.35323   3.36487   3.38069   3.42874
 Alpha virt. eigenvalues --    3.44875   3.45222   3.45480   3.47879   3.53011
 Alpha virt. eigenvalues --    3.55132   3.65480   3.69059   3.70162   3.74596
 Alpha virt. eigenvalues --    3.77579   3.79964   3.81432   3.84784   3.85306
 Alpha virt. eigenvalues --    3.85396   3.86426   3.87521   3.88006   3.88235
 Alpha virt. eigenvalues --    3.89076   3.89582   3.89847   3.90407   3.91011
 Alpha virt. eigenvalues --    3.91129   3.91860   3.92019   3.92936   3.93545
 Alpha virt. eigenvalues --    3.93977   3.94408   3.97910   4.00520   4.02452
 Alpha virt. eigenvalues --    4.03792   4.05350   4.10010   4.12456   4.16589
 Alpha virt. eigenvalues --    4.20322   4.21000   4.22327   4.26925   4.27472
 Alpha virt. eigenvalues --    4.28056   4.28291   4.30781   4.52932   4.82277
 Alpha virt. eigenvalues --    5.07497   5.16672   5.23480   5.27969   5.31654
 Alpha virt. eigenvalues --    5.42664   5.44288   5.47638   5.50906   5.76171
 Alpha virt. eigenvalues --    5.84639   6.04407   6.06764   6.39547   6.41859
 Alpha virt. eigenvalues --    6.44259   6.45428   6.47453   6.49925   6.51111
 Alpha virt. eigenvalues --    6.56824   6.57744   6.59017   6.63310   6.66912
 Alpha virt. eigenvalues --    6.68362   6.70067   6.76102   8.13667   9.99674
 Alpha virt. eigenvalues --   17.50351  17.55071  17.61177  23.48155  23.61262
 Alpha virt. eigenvalues --   23.66939  23.76905  23.84314  23.85540  23.93502
 Alpha virt. eigenvalues --   23.93838  23.95898  24.00038  24.07197  24.10148
 Alpha virt. eigenvalues --   24.17668  25.96959  26.27638  26.75189  35.68566
 Alpha virt. eigenvalues --   50.06880  50.14048  50.18938  50.23369  66.91778
 Alpha virt. eigenvalues --   66.92089  66.98721  66.99824  67.06028 189.42036
 Alpha virt. eigenvalues --  216.09756
          Condensed to atoms (all electrons):
               1          2          3          4          5          6
     1  C   46.102854   0.122197  -0.941028  -0.203345  -0.389378  -1.135883
     2  N    0.122197   7.677190   0.239587  -0.029081  -0.253962  -0.468276
     3  C   -0.941028   0.239587  10.904496   0.527686   0.366479  -0.845886
     4  O   -0.203345  -0.029081   0.527686   8.244665  -0.200893  -0.193973
     5  O   -0.389378  -0.253962   0.366479  -0.200893   8.418529   0.447268
     6  C   -1.135883  -0.468276  -0.845886  -0.193973   0.447268   9.093085
     7  C    0.054339   0.050018   0.236227   0.038960  -0.162395  -1.106158
     8  C   -0.034104  -0.012792  -0.290731  -0.000047   0.027498   0.389414
     9  C  -12.672895  -0.265230  -1.966056  -0.104487  -0.160971  -0.094290
    10  C   -9.734964   0.147981  -1.032346  -0.013415  -0.009923  -0.070911
    11  C  -11.361684  -0.050061  -0.627922  -0.051267  -0.016444  -0.051966
    12  C  -10.456784   0.086496  -1.011202  -0.010765  -0.009275  -0.141583
    13  C    8.226552   0.102186   0.512204   0.359651   0.071529  -0.256022
    14  H   -0.066993   0.110444   0.066137   0.001293   0.027730   0.007290
    15  H    0.025414   0.000287   0.052121  -0.001069  -0.045802   0.363907
    16  H   -0.017652   0.008991   0.030757   0.000586  -0.050865   0.351653
    17  H    0.001084  -0.000798   0.009361  -0.000243   0.001768  -0.039987
    18  H   -0.001813  -0.001073  -0.005896  -0.000443   0.001046  -0.066158
    19  H   -0.000091  -0.000050  -0.003718  -0.000144  -0.000292  -0.056774
    20  H    0.000144   0.000023   0.007699   0.000026  -0.000797   0.091690
    21  H    0.000031  -0.000032   0.000651  -0.000042  -0.000360  -0.032316
    22  H    0.060083  -0.008973   0.004640  -0.000010   0.000047   0.000164
    23  Cl  -0.182238  -0.003460   0.003194  -0.001217   0.000655   0.002682
    24  H   -0.111835  -0.016363   0.103222  -0.030132   0.001559   0.007876
    25  S   -0.429211   0.011578  -0.124121  -0.001815  -0.000149  -0.004193
    26  H   -0.014863   0.000972   0.001616   0.000029   0.000003   0.000024
    27  F   -0.070843   0.001023   0.001919  -0.000008   0.000003   0.000044
    28  F    0.128872   0.000422   0.000648  -0.000005   0.000001   0.000000
    29  F   -0.336956  -0.000395  -0.007036   0.000000   0.000002  -0.000025
    30  F    0.001249  -0.000034  -0.001863   0.000001   0.000001  -0.000009
    31  F   -0.002714  -0.000066  -0.000135   0.000000  -0.000000  -0.000000
    32  O   -0.097297  -0.003916   0.003163  -0.000011   0.000392  -0.001375
    33  O    0.082893  -0.002494  -0.003703   0.000362   0.004770  -0.003051
    34  C   -0.283327  -0.000483   0.013718  -0.000479  -0.002556  -0.000624
    35  C   -0.156655  -0.013168   0.030752  -0.000035   0.000027   0.001893
    36  C    0.012090   0.002765  -0.004048  -0.000074  -0.000300   0.001884
    37  H    0.001579  -0.000031  -0.000104  -0.000000   0.000003  -0.000011
    38  H   -0.001788   0.000099   0.000138  -0.000000   0.000002  -0.000002
    39  H   -0.000433   0.000122   0.000080   0.000000  -0.000007   0.000053
    40  H    0.000042  -0.000030   0.000009   0.000000   0.000000  -0.000014
    41  H    0.000334   0.000105  -0.000109   0.000000  -0.000006   0.000023
               7          8          9         10         11         12
     1  C    0.054339  -0.034104 -12.672895  -9.734964 -11.361684 -10.456784
     2  N    0.050018  -0.012792  -0.265230   0.147981  -0.050061   0.086496
     3  C    0.236227  -0.290731  -1.966056  -1.032346  -0.627922  -1.011202
     4  O    0.038960  -0.000047  -0.104487  -0.013415  -0.051267  -0.010765
     5  O   -0.162395   0.027498  -0.160971  -0.009923  -0.016444  -0.009275
     6  C   -1.106158   0.389414  -0.094290  -0.070911  -0.051966  -0.141583
     7  C    6.582652  -0.227915   0.043506  -0.001966   0.003866   0.002321
     8  C   -0.227915   6.173770  -0.004465  -0.000668  -0.000403  -0.002099
     9  C    0.043506  -0.004465  40.586570  -4.784587   9.622328  -2.074280
    10  C   -0.001966  -0.000668  -4.784587  41.177348 -14.552158  -6.061242
    11  C    0.003866  -0.000403   9.622328 -14.552158  46.310570  -5.335004
    12  C    0.002321  -0.002099  -2.074280  -6.061242  -5.335004  31.717173
    13  C   -0.029981  -0.003916 -22.674537   4.123758 -19.406924  -0.027314
    14  H    0.000249  -0.000371  -0.030328   0.013286  -0.004075   0.003971
    15  H   -0.040408  -0.019843   0.000906   0.000114   0.000073  -0.001214
    16  H    0.001560  -0.022331  -0.000912  -0.000262   0.000248   0.002381
    17  H    0.417885  -0.053765  -0.000705  -0.000008  -0.000002   0.000007
    18  H    0.463559  -0.054794   0.000537   0.000012  -0.000000   0.000003
    19  H    0.028692   0.372362   0.000047   0.000000   0.000000   0.000001
    20  H   -0.147154   0.396922   0.000001   0.000001  -0.000000  -0.000002
    21  H   -0.002625   0.376301  -0.000025  -0.000001   0.000000   0.000000
    22  H   -0.000007   0.000001   0.293227  -0.114713  -0.009269  -0.012497
    23  Cl  -0.000246   0.000041   0.388322  -0.669304   1.251532  -1.358182
    24  H   -0.001200   0.000099  -0.002410  -0.031395   0.109377   0.025919
    25  S   -0.000019  -0.000022  -0.307590  -1.326575  -0.142337  -0.096030
    26  H   -0.000000   0.000000  -0.111510   0.059102   0.006647   0.196681
    27  F   -0.000001   0.000000  -0.003733  -0.077911   0.203429   0.075908
    28  F   -0.000000   0.000000   0.163267   0.135641  -0.265413  -0.158637
    29  F   -0.000000  -0.000000  -0.121545   0.235227   0.225754   0.091678
    30  F    0.000000   0.000000   0.011994   0.315848  -0.222350  -0.107063
    31  F    0.000000  -0.000000   0.067373  -0.010809   0.030210  -0.035486
    32  O    0.000071  -0.000020   0.086579   0.021717   0.008824   0.002403
    33  O    0.001532   0.000292  -0.107225  -0.018850  -0.006429   0.001587
    34  C   -0.000523  -0.000407   0.241885   0.085154   0.032568   0.014440
    35  C    0.000928   0.000060   0.101887   0.020635   0.015983  -0.000311
    36  C   -0.000609  -0.000084  -0.013176  -0.003165   0.000090   0.000735
    37  H    0.000002   0.000000  -0.001909  -0.000482   0.000001   0.000010
    38  H    0.000006   0.000000   0.002529   0.000334  -0.000025  -0.000029
    39  H    0.000035   0.000015   0.000351   0.000008  -0.000002  -0.000004
    40  H   -0.000003  -0.000001   0.000030   0.000016  -0.000001  -0.000000
    41  H    0.000005   0.000015  -0.000538  -0.000082   0.000005   0.000004
              13         14         15         16         17         18
     1  C    8.226552  -0.066993   0.025414  -0.017652   0.001084  -0.001813
     2  N    0.102186   0.110444   0.000287   0.008991  -0.000798  -0.001073
     3  C    0.512204   0.066137   0.052121   0.030757   0.009361  -0.005896
     4  O    0.359651   0.001293  -0.001069   0.000586  -0.000243  -0.000443
     5  O    0.071529   0.027730  -0.045802  -0.050865   0.001768   0.001046
     6  C   -0.256022   0.007290   0.363907   0.351653  -0.039987  -0.066158
     7  C   -0.029981   0.000249  -0.040408   0.001560   0.417885   0.463559
     8  C   -0.003916  -0.000371  -0.019843  -0.022331  -0.053765  -0.054794
     9  C  -22.674537  -0.030328   0.000906  -0.000912  -0.000705   0.000537
    10  C    4.123758   0.013286   0.000114  -0.000262  -0.000008   0.000012
    11  C  -19.406924  -0.004075   0.000073   0.000248  -0.000002  -0.000000
    12  C   -0.027314   0.003971  -0.001214   0.002381   0.000007   0.000003
    13  C   35.955904   0.011508  -0.012006   0.012699   0.000411  -0.000133
    14  H    0.011508   0.257916  -0.000028   0.000082  -0.000029   0.000006
    15  H   -0.012006  -0.000028   0.471809  -0.044656   0.005643  -0.007861
    16  H    0.012699   0.000082  -0.044656   0.483836  -0.010046   0.005795
    17  H    0.000411  -0.000029   0.005643  -0.010046   0.444314  -0.031067
    18  H   -0.000133   0.000006  -0.007861   0.005795  -0.031067   0.437140
    19  H   -0.000047   0.000000  -0.000822   0.004957  -0.008229   0.006107
    20  H    0.000004  -0.000000  -0.000141  -0.000238  -0.003504  -0.003362
    21  H    0.000005  -0.000000   0.004380  -0.000888   0.006127  -0.008028
    22  H    0.038745   0.003900  -0.000000   0.000000  -0.000000  -0.000000
    23  Cl  -0.383988  -0.000127  -0.000010   0.000030   0.000000   0.000000
    24  H    0.251150  -0.000303  -0.000021  -0.000106   0.000000  -0.000000
    25  S    0.030983   0.000829  -0.000001   0.000001   0.000000   0.000000
    26  H    0.124310  -0.000000   0.000000  -0.000000   0.000000   0.000000
    27  F   -0.033387   0.000015  -0.000000   0.000000  -0.000000   0.000000
    28  F    0.025412  -0.000002  -0.000000  -0.000000   0.000000   0.000000
    29  F   -0.051720   0.000081  -0.000000   0.000000  -0.000000   0.000000
    30  F    0.032464   0.000005  -0.000000   0.000000   0.000000   0.000000
    31  F   -0.008534  -0.000001  -0.000000   0.000000  -0.000000  -0.000000
    32  O   -0.036723   0.021252   0.000001  -0.000000   0.000001  -0.000001
    33  O    0.044421   0.047652   0.000029  -0.000015   0.000025  -0.000042
    34  C   -0.117458  -0.001862   0.000115  -0.000062   0.000073  -0.000004
    35  C   -0.057628   0.019606   0.000033  -0.000024   0.000006  -0.000127
    36  C    0.003374  -0.002619  -0.000007   0.000008  -0.000007   0.000116
    37  H    0.000129   0.000010  -0.000000   0.000000  -0.000000   0.000000
    38  H   -0.000103  -0.000027   0.000000   0.000000  -0.000000  -0.000000
    39  H   -0.000031  -0.000091   0.000000  -0.000000  -0.000000  -0.000002
    40  H    0.000001   0.000017   0.000000   0.000000   0.000000   0.000000
    41  H    0.000031  -0.000079   0.000000  -0.000000  -0.000000  -0.000002
              19         20         21         22         23         24
     1  C   -0.000091   0.000144   0.000031   0.060083  -0.182238  -0.111835
     2  N   -0.000050   0.000023  -0.000032  -0.008973  -0.003460  -0.016363
     3  C   -0.003718   0.007699   0.000651   0.004640   0.003194   0.103222
     4  O   -0.000144   0.000026  -0.000042  -0.000010  -0.001217  -0.030132
     5  O   -0.000292  -0.000797  -0.000360   0.000047   0.000655   0.001559
     6  C   -0.056774   0.091690  -0.032316   0.000164   0.002682   0.007876
     7  C    0.028692  -0.147154  -0.002625  -0.000007  -0.000246  -0.001200
     8  C    0.372362   0.396922   0.376301   0.000001   0.000041   0.000099
     9  C    0.000047   0.000001  -0.000025   0.293227   0.388322  -0.002410
    10  C    0.000000   0.000001  -0.000001  -0.114713  -0.669304  -0.031395
    11  C    0.000000  -0.000000   0.000000  -0.009269   1.251532   0.109377
    12  C    0.000001  -0.000002   0.000000  -0.012497  -1.358182   0.025919
    13  C   -0.000047   0.000004   0.000005   0.038745  -0.383988   0.251150
    14  H    0.000000  -0.000000  -0.000000   0.003900  -0.000127  -0.000303
    15  H   -0.000822  -0.000141   0.004380  -0.000000  -0.000010  -0.000021
    16  H    0.004957  -0.000238  -0.000888   0.000000   0.000030  -0.000106
    17  H   -0.008229  -0.003504   0.006127  -0.000000   0.000000   0.000000
    18  H    0.006107  -0.003362  -0.008028  -0.000000   0.000000  -0.000000
    19  H    0.465568  -0.024807  -0.036601  -0.000000  -0.000000  -0.000000
    20  H   -0.024807   0.438465  -0.024726   0.000000   0.000000   0.000000
    21  H   -0.036601  -0.024726   0.462333  -0.000000  -0.000000  -0.000000
    22  H   -0.000000   0.000000  -0.000000   0.318893   0.000319  -0.000000
    23  Cl  -0.000000   0.000000  -0.000000   0.000319  17.612832  -0.007302
    24  H   -0.000000   0.000000  -0.000000  -0.000000  -0.007302   0.376380
    25  S    0.000000   0.000000  -0.000000   0.035151  -0.016214   0.000909
    26  H   -0.000000   0.000000  -0.000000  -0.000039  -0.023473  -0.000297
    27  F    0.000000   0.000000  -0.000000   0.003113  -0.000199  -0.000001
    28  F    0.000000   0.000000  -0.000000  -0.000493  -0.001094   0.000001
    29  F    0.000000  -0.000000  -0.000000  -0.001112  -0.000343  -0.000007
    30  F    0.000000   0.000000  -0.000000  -0.000397  -0.001722  -0.000005
    31  F    0.000000  -0.000000   0.000000  -0.000958   0.000195   0.000000
    32  O   -0.000000  -0.000000   0.000000   0.000046  -0.000040  -0.000005
    33  O   -0.000000   0.000000   0.000001   0.001910   0.000008   0.000004
    34  C   -0.000001  -0.000000   0.000002   0.003970  -0.000076   0.000038
    35  C   -0.000001   0.000001  -0.000000   0.003170  -0.000060   0.000005
    36  C    0.000001  -0.000001   0.000000   0.000241   0.000002   0.000002
    37  H    0.000000  -0.000000  -0.000000   0.000028  -0.000000   0.000000
    38  H   -0.000000  -0.000000   0.000000  -0.000095  -0.000000  -0.000000
    39  H   -0.000000   0.000000  -0.000000  -0.000002   0.000000  -0.000000
    40  H    0.000000   0.000000   0.000000  -0.000000  -0.000000  -0.000000
    41  H   -0.000000   0.000000  -0.000000   0.000002  -0.000000   0.000000
              25         26         27         28         29         30
     1  C   -0.429211  -0.014863  -0.070843   0.128872  -0.336956   0.001249
     2  N    0.011578   0.000972   0.001023   0.000422  -0.000395  -0.000034
     3  C   -0.124121   0.001616   0.001919   0.000648  -0.007036  -0.001863
     4  O   -0.001815   0.000029  -0.000008  -0.000005   0.000000   0.000001
     5  O   -0.000149   0.000003   0.000003   0.000001   0.000002   0.000001
     6  C   -0.004193   0.000024   0.000044   0.000000  -0.000025  -0.000009
     7  C   -0.000019  -0.000000  -0.000001  -0.000000  -0.000000   0.000000
     8  C   -0.000022   0.000000   0.000000   0.000000  -0.000000   0.000000
     9  C   -0.307590  -0.111510  -0.003733   0.163267  -0.121545   0.011994
    10  C   -1.326575   0.059102  -0.077911   0.135641   0.235227   0.315848
    11  C   -0.142337   0.006647   0.203429  -0.265413   0.225754  -0.222350
    12  C   -0.096030   0.196681   0.075908  -0.158637   0.091678  -0.107063
    13  C    0.030983   0.124310  -0.033387   0.025412  -0.051720   0.032464
    14  H    0.000829  -0.000000   0.000015  -0.000002   0.000081   0.000005
    15  H   -0.000001   0.000000  -0.000000  -0.000000  -0.000000  -0.000000
    16  H    0.000001  -0.000000   0.000000  -0.000000   0.000000   0.000000
    17  H    0.000000   0.000000  -0.000000   0.000000  -0.000000   0.000000
    18  H    0.000000   0.000000   0.000000   0.000000   0.000000   0.000000
    19  H    0.000000  -0.000000   0.000000   0.000000   0.000000   0.000000
    20  H    0.000000   0.000000   0.000000   0.000000  -0.000000   0.000000
    21  H   -0.000000  -0.000000  -0.000000  -0.000000  -0.000000  -0.000000
    22  H    0.035151  -0.000039   0.003113  -0.000493  -0.001112  -0.000397
    23  Cl  -0.016214  -0.023473  -0.000199  -0.001094  -0.000343  -0.001722
    24  H    0.000909  -0.000297  -0.000001   0.000001  -0.000007  -0.000005
    25  S   17.585277   0.062253   0.008182   0.059274   0.085320   0.043030
    26  H    0.062253   0.391287   0.000162   0.000156   0.000383   0.001049
    27  F    0.008182   0.000162   8.943366  -0.012794  -0.023139  -0.031124
    28  F    0.059274   0.000156  -0.012794   8.991949  -0.026571  -0.011319
    29  F    0.085320   0.000383  -0.023139  -0.026571   8.921035  -0.014150
    30  F    0.043030   0.001049  -0.031124  -0.011319  -0.014150   9.006319
    31  F   -0.060320  -0.000800  -0.001712  -0.006793  -0.009122  -0.010316
    32  O    0.013380   0.000004  -0.000948  -0.000064   0.008500   0.000264
    33  O    0.000813   0.000000  -0.000192  -0.000000  -0.000155   0.000001
    34  C   -0.014680  -0.000006   0.000060  -0.000258   0.003041  -0.000073
    35  C   -0.004652  -0.000000   0.001988   0.000017  -0.000119  -0.000135
    36  C   -0.001234  -0.000000   0.000026   0.000000   0.000109  -0.000000
    37  H   -0.000041   0.000000  -0.000001  -0.000000  -0.000008   0.000000
    38  H    0.000120   0.000000  -0.000005  -0.000000  -0.000011   0.000000
    39  H    0.000002   0.000000  -0.000000  -0.000000  -0.000000   0.000000
    40  H    0.000002   0.000000   0.000000   0.000000  -0.000000  -0.000000
    41  H   -0.000003  -0.000000  -0.000000  -0.000000  -0.000000  -0.000000
              31         32         33         34         35         36
     1  C   -0.002714  -0.097297   0.082893  -0.283327  -0.156655   0.012090
     2  N   -0.000066  -0.003916  -0.002494  -0.000483  -0.013168   0.002765
     3  C   -0.000135   0.003163  -0.003703   0.013718   0.030752  -0.004048
     4  O    0.000000  -0.000011   0.000362  -0.000479  -0.000035  -0.000074
[...]
 29,-0.01500938,-0.03169590,-0.03505090,-0.11374259,-0.11448390,0.00242
 036,0.00338070,0.00685495,0.03754315,0.12087493,-0.00007754,0.00002432
 ,-0.00000732,0.00002308,-0.00007652,0.00006572,0.00000917,0.00007044,-
 0.00002513,-0.00001036,-0.00005782,0.00001274,-0.00000723,-0.00003796,
 0.00001606,0.00002002,0.00001198,-0.00000926,-0.00000015,0.00000471,-0
 .00001174,0.00000450,-0.00000359,0.00000226,0.00004721,-0.00001451,0.0
 0001088,-0.00003772,0.00000476,0.00001002,0.00001719,-0.00001855,0.000
 00113,-0.00000217,0.00002294,-0.00000403,0.00001152,-0.00001668,0.0000
 0265,0.00001919,0.00012236,-0.00013412,-0.00000095,-0.00000112,-0.0000
 0171,-0.00000043,-0.00000579,0.00000546,0.00000254,0.00000204,-0.00000
 744,0.00000750,0.00000152,0.00001362,-0.00000391,-0.00000452,0.0000052
 6,-0.00000020,0.00000181,-0.00000209,-0.00000195,-0.00000070,-0.000001
 96,-0.00001449,0.00002993,-0.00000938,0.00000372,-0.00001569,0.0000023
 3,-0.00000280,0.00000221,-0.00000300,-0.00013630,-0.00009099,-0.000118
 17,-0.00000090,-0.00000336,-0.00000186,0.00003521,0.00000148,0.0000318
 5,0.00002307,0.00000680,0.00000745,0.00001460,0.00005149,0.00004289,0.
 00003204,0.00000775,0.00002125,0.00003735,0.00002806,0.00001249,0.0011
 1315,0.00041033,0.00054490,0.00096834,0.00026432,-0.00088024,-0.000526
 15,0.00427000,0.00461782,-0.05837408,-0.11022319,-0.22233690,-0.001328
 72,-0.00202491,-0.00432062,0.06605524,0.11907972,0.24143255,-0.0000792
 1,0.00003681,0.00001187,0.00008137,-0.00005884,-0.00003543,-0.00014932
 ,0.00006592,0.00001619,0.00003051,-0.00004128,-0.00000158,0.00008346,-
 0.00007528,-0.00001310,-0.00002728,0.00002016,0.00000494,0.00000705,0.
 00001556,0.00000609,0.00001028,-0.00001197,-0.00000107,0.00002251,-0.0
 0000382,-0.00001094,0.00000200,0.00000102,-0.00000083,0.00001164,0.000
 00205,-0.00000400,-0.00001407,0.00000284,0.00000192,0.00001930,-0.0000
 2088,-0.00000124,-0.00001125,0.00007327,0.00005696,0.00000468,-0.00000
 968,-0.00000526,0.00000595,-0.00000502,0.00000350,0.00000463,0.0000064
 0,-0.00003466,0.00000950,0.00001356,0.00002824,-0.00000614,-0.00000379
 ,0.00000653,0.00000794,0.00000264,0.00000019,-0.00000873,-0.00000795,-
 0.00000547,0.00000488,-0.00010534,0.00000717,0.00000145,0.00000265,-0.
 00000112,-0.00000492,0.00000434,0.00000200,0.00005522,-0.00002012,0.00
 002422,-0.00000007,0.00000150,0.00000142,-0.00001518,0.00001122,-0.000
 00940,-0.00000443,0.00000027,-0.00000775,-0.00001388,0.00000812,0.0000
 0061,-0.00000745,0.00000447,-0.00000321,-0.00001663,-0.00000775,-0.000
 00122,0.00008811,0.00173820,-0.00020301,0.00107802,0.00007318,0.000524
 32,0.00108572,0.00052422,-0.00569760,-0.13568771,-0.05067801,0.1144284
 2,-0.01872926,-0.01011459,0.02421456,0.00490991,0.00367500,-0.00633676
 ,0.15067393,-0.00033722,0.00007253,0.00002318,-0.00000915,-0.00092614,
 0.00025000,0.00033843,0.00012143,-0.00002935,-0.00012520,-0.00017969,0
 .00001632,-0.00013431,-0.00001163,0.00001417,0.00008980,0.00001355,-0.
 00000566,-0.00000623,-0.00000887,0.00000492,-0.00000055,0.00000824,-0.
 00000099,0.00009872,0.00006043,0.00004205,-0.00005785,0.00001004,-0.00
 001090,0.00004625,-0.00003538,-0.00000383,-0.00002285,0.00003031,-0.00
 000557,0.00006924,-0.00006926,-0.00001518,0.00007886,0.00142965,-0.000
 52477,-0.00001317,-0.00000765,-0.00000020,-0.00001237,-0.00000565,0.00
 000192,0.00000325,-0.00000326,-0.00000104,0.00000220,0.00000004,-0.000
 00162,0.00000055,-0.00000069,-0.00000055,-0.00000642,0.00000087,0.0000
 0102,-0.00000086,-0.00000234,-0.00000013,-0.00005577,0.00003249,-0.000
 04096,0.00000990,-0.00002648,0.00000132,-0.00000730,0.00000768,0.00000
 368,-0.00005332,-0.00015490,0.00021078,-0.00000079,-0.00000368,0.00000
 226,-0.00001135,0.00008316,-0.00011273,0.00002916,0.00001463,-0.000040
 66,0.00001759,0.00002314,-0.00002201,0.00002118,0.00001357,-0.00001517
 ,0.00000559,0.00002269,-0.00002687,0.00136148,0.00125248,-0.00388698,0
 .00062790,-0.00776877,-0.00260257,-0.02072512,-0.00844343,0.02794339,-
 0.05078005,-0.07362033,0.06981218,0.00478047,0.00156819,-0.00561265,0.
 01058983,0.00584942,-0.01313420,0.05355938,0.08012376,0.00016663,-0.00
 003920,-0.00001722,-0.00001780,0.00031680,-0.00001784,-0.00012275,-0.0
 0010767,0.00001292,0.00004860,0.00010518,-0.00001377,0.00006082,0.0000
 3641,0.00000147,-0.00005710,-0.00001431,0.00000322,0.00000120,-0.00000
 301,-0.00000640,-0.00000173,-0.00000109,0.00000170,-0.00007203,-0.0000
 1157,-0.00000248,0.00006231,-0.00000954,0.00000099,-0.00003098,0.00003
 367,0.00000286,0.00000400,-0.00003431,-0.00000121,-0.00002772,0.000032
 87,0.00000595,-0.00002249,-0.00053345,0.00006389,0.00000646,0.00000560
 ,0.00000305,0.00000541,0.00000186,-0.00000326,-0.00000523,0.00000357,0
 .00000460,-0.00000412,0.00000069,-0.00000052,0.00000068,0.00000074,-0.
 00000206,0.00000336,-0.00000174,-0.00000089,0.00000237,0.00000311,0.00
 000241,0.00003416,-0.00007863,-0.00000670,-0.00000659,0.00002539,-0.00
 000006,0.00000415,-0.00000392,-0.00000146,0.00017213,0.00016810,-0.000
 10008,0.00000109,0.00000531,-0.00000117,-0.00002973,-0.00005646,0.0000
 4641,-0.00003894,-0.00001527,0.00002450,-0.00003581,-0.00003637,0.0000
 1116,-0.00003760,-0.00001532,0.00000286,-0.00004927,-0.00004619,0.0000
 1697,-0.00215616,0.00038932,0.00100644,-0.00064238,0.00119837,0.000015
 57,0.00457157,-0.00160310,-0.00342166,0.11419362,0.06702298,-0.1938018
 6,-0.00574615,-0.00347936,0.00727036,0.01525403,0.00972922,-0.02102889
 ,-0.12468603,-0.07259828,0.20800046,-0.00009821,0.00003891,0.00000629,
 0.00003186,-0.00007856,-0.00002202,-0.00002960,0.00007435,0.00001898,-
 0.00000439,-0.00004926,-0.00000316,-0.00001412,-0.00005654,-0.00002987
 ,0.00005842,0.00001272,0.00000498,-0.00000827,0.00000947,0.00002402,0.
 00000020,-0.00000173,-0.00000797,0.00001536,0.00004307,-0.00000978,-0.
 00001084,0.00000661,-0.00000597,0.00001553,-0.00000734,0.00000044,-0.0
 0001016,0.00000683,-0.00000152,0.00002081,-0.00001502,0.00000107,0.000
 01906,0.00014664,0.00001865,-0.00000763,-0.00000525,-0.00000352,-0.000
 00688,0.00000548,-0.00000078,0.00004122,0.00001498,0.00000436,-0.00000
 240,-0.00001551,-0.00001401,0.00000227,0.00000478,-0.00000279,-0.00000
 767,0.00000045,0.00000391,-0.00000300,-0.00000289,-0.00000061,-0.00001
 171,-0.00003456,0.00000543,0.00000254,-0.00000163,-0.00000076,-0.00000
 318,0.00000398,0.00000277,-0.00001082,-0.00012472,0.00009670,-0.000001
 05,-0.00000029,0.00000145,-0.00000517,0.00004925,-0.00004537,0.0000072
 2,0.00001718,-0.00001159,0.00000872,0.00002039,-0.00001238,0.00000063,
 0.00001828,-0.00001520,0.00000417,0.00001936,-0.00001242,0.00083978,0.
 00070101,-0.00031434,0.00023086,0.00134616,-0.00042686,-0.00147819,-0.
 00260588,0.00076284,-0.01984447,-0.01009603,0.02583983,-0.13625308,-0.
 04858262,0.11815958,0.00137380,-0.00061466,-0.00023177,-0.00588070,0.0
 0168490,-0.00230508,0.15255611,0.00010570,-0.00002642,-0.00000485,-0.0
 0003371,0.00017560,-0.00002466,0.00004055,-0.00012804,0.00001580,0.000
 01198,0.00010484,-0.00001515,0.00001002,0.00010749,0.00000079,-0.00006
 775,-0.00003012,0.00000847,0.00001738,-0.00001405,-0.00000838,-0.00001
 600,0.00002020,0.00000232,-0.00004242,-0.00000310,0.00000251,0.0000243
 4,-0.00000458,-0.00000050,-0.00001516,0.00001951,-0.00000468,0.0000042
 8,-0.00002019,0.00000620,-0.00001986,0.00002302,-0.00000472,-0.0000218
 2,-0.00030984,0.00004491,0.00000674,0.00001244,0.00000241,0.00000484,0
 .00001074,-0.00000636,-0.00000771,0.00003195,0.00004159,-0.00003177,-0
 .00000631,-0.00002994,0.00000952,0.00000668,-0.00000445,0.00001258,-0.
 00000382,0.00000120,0.00001207,0.00000441,-0.00000058,0.00002104,-0.00
 004921,0.00000212,-0.00000356,0.00001606,-0.00000124,0.00000380,-0.000
 00316,0.00000060,0.00006859,0.00000355,-0.00000093,0.00000018,0.000002
 32,0.00000031,-0.00001016,-0.00000158,0.00000586,-0.00001386,0.0000032
 6,0.00001003,-0.00001446,-0.00000383,-0.00000677,-0.00001773,0.0000032
 7,-0.00000921,-0.00001363,-0.00000757,-0.00000004,-0.00051381,0.000070
 91,0.00000601,0.00079034,-0.00162871,-0.00013653,0.00090195,0.00011206
 ,-0.00057430,0.00283649,0.00166656,-0.00490540,-0.05016930,-0.07400467
 ,0.06525896,-0.00054069,0.00010833,0.00009724,0.00137766,0.00023156,0.
 00008385,0.05310859,0.07709275,0.00010506,-0.00005276,-0.00001010,-0.0
 0015162,0.00001602,0.00002466,0.00029668,-0.00014155,-0.00001824,-0.00
 006202,0.00008334,-0.00000100,-0.00015203,0.00014628,-0.00000673,0.000
 05496,-0.00004220,-0.00000947,-0.00001260,-0.00002130,0.00005675,-0.00
 002612,0.00002672,-0.00001670,-0.00002921,-0.00002301,0.00000867,0.000
 00862,-0.00000328,0.00000275,-0.00002051,0.00000729,0.00000298,0.00001
 421,-0.00001008,-0.00000127,-0.00002098,0.00002607,0.00000090,0.000028
 04,-0.00003650,-0.00001246,-0.00000757,0.00001531,0.00000811,-0.000014
 56,0.00002016,-0.00000967,-0.00001761,-0.00003160,0.00006720,-0.000033
 28,-0.00003858,-0.00009264,0.00001941,0.00001503,-0.00001534,-0.000014
 68,-0.00000589,0.00000450,0.00001585,0.00001283,0.00000896,0.00001166,
 0.00002642,-0.00001066,-0.00000300,0.00000205,0.00000105,0.00000782,-0
 .00000588,-0.00000210,0.00001814,0.00007783,-0.00004830,0.00000056,0.0
 0000009,-0.00000100,0.00000279,-0.00003021,0.00002487,-0.00000749,-0.0
 0000816,0.00001232,-0.00000292,-0.00001831,0.00000275,-0.00000597,-0.0
 0001015,0.00000299,-0.00000431,-0.00001205,0.00000581,-0.00025069,-0.0
 0059487,-0.00008875,-0.00139575,-0.00027195,-0.00052770,0.00122295,0.0
 0173015,0.00014254,-0.00492473,-0.00343645,0.00689488,0.11972481,0.063
 68661,-0.20351082,0.00065807,-0.00037663,0.00082961,-0.00201459,0.0005
 6513,0.00099587,-0.12860831,-0.07125180,0.21826985,-0.00002095,0.00005
 328,-0.00000253,0.00011233,0.00021114,-0.00003775,-0.00027834,-0.00003
 608,0.00002848,0.00007609,0.00005361,-0.00001252,0.00012989,-0.0000574
 0,-0.00000257,-0.00004877,0.00000501,0.00000178,0.00000101,0.00001707,
 -0.00000435,0.00000956,-0.00001731,0.00000160,-0.00005537,0.00012227,0
 .00000560,0.00008130,0.00000768,-0.00000531,-0.00000663,0.00004456,-0.
 00000255,-0.00002713,-0.00004356,0.00000611,0.00002352,0.00000584,-0.0
 0000246,-0.00001812,-0.00037028,0.00005578,0.00000759,-0.00000002,-0.0
 0000228,0.00000747,-0.00000129,0.00000147,0.00000908,0.00000196,-0.000
 01927,0.00001555,0.00000355,0.00001840,-0.00000615,-0.00000152,0.00000
 249,0.00000102,0.00000113,0.00000009,-0.00000540,-0.00000170,-0.000000
 96,0.00001682,-0.00036871,-0.00000913,-0.00000318,0.00004339,-0.000001
 60,-0.00000392,0.00000682,-0.00000033,0.00025520,-0.00015933,-0.000049
 18,-0.00000097,0.00000849,-0.00000090,-0.00004647,0.00004218,-0.000000
 28,-0.00005001,0.00003375,0.00003822,-0.00005346,0.00004703,0.00002342
 ,-0.00005597,0.00003301,-0.00002183,-0.00006157,-0.00000952,0.00001036
 ,-0.00257106,0.00361544,-0.00069323,0.00185616,0.00074071,0.00014594,-
 0.00531338,-0.00568758,-0.00051529,-0.00429536,0.03500547,-0.00489421,
 -0.05522222,0.04189628,-0.00597430,0.00136610,-0.00068482,-0.00021318,
 0.00114671,-0.00042211,0.00085455,0.00331610,-0.01857996,0.00032027,0.
 05948097,-0.00017612,0.00002742,0.00001293,-0.00003678,-0.00042295,0.0
 0005829,0.00018445,0.00022344,-0.00005251,-0.00008275,-0.00019843,0.00
 003295,-0.00012740,-0.00008776,0.00002630,0.00012927,0.00003911,-0.000
 01872,-0.00001065,0.00000912,-0.00000985,0.00001414,-0.00000945,0.0000
 0358,0.00009831,-0.00002683,-0.00000652,-0.00007831,0.00000611,0.00000
 613,0.00002332,-0.00006787,0.00000171,0.00001253,0.00007932,-0.0000063
 8,0.00001642,-0.00004391,-0.00000028,0.00006925,0.00075968,-0.00011308
 ,-0.00001318,-0.00001128,-0.00000498,-0.00001196,-0.00001207,0.0000105
 6,0.00001722,-0.00000143,-0.00002172,0.00003001,0.00000206,0.00002258,
 -0.00000895,-0.00000617,0.00000552,-0.00001397,0.00000701,0.00000121,-
 0.00000739,-0.00000680,-0.00000290,-0.00006073,0.00027691,0.00000091,0
 .00000815,-0.00006519,0.00000297,-0.00000352,0.00000314,-0.00000030,-0
 .00031805,0.00013759,0.00002853,0.00000006,-0.00000733,0.00000023,0.00
 005819,-0.00003923,0.00000842,0.00006426,-0.00003436,-0.00004354,0.000
 06144,-0.00003480,-0.00001642,0.00007391,-0.00003231,0.00002900,0.0000
 7057,0.00001041,-0.00000740,0.00181132,-0.00094528,0.00031600,0.001566
 92,-0.00089914,0.00044166,-0.00162189,0.00149469,-0.00023074,-0.001205
 82,-0.00320487,0.00003740,0.04239146,-0.29733022,0.03748321,0.00041480
 ,0.00035484,0.00045650,0.00055230,0.00019843,-0.00031546,0.00112217,-0
 .00877943,0.00064538,-0.04722683,0.32338194,0.00001994,0.00000536,-0.0
 0000362,0.00002410,0.00009759,0.00001546,-0.00005059,-0.00004996,-0.00
 000313,0.00002077,0.00004545,-0.00000563,0.00002581,0.00002002,0.00001
 900,-0.00002484,-0.00000749,0.00000039,-0.00000075,-0.00000453,-0.0000
 1535,-0.00000392,0.00000550,0.00000622,-0.00002240,0.00002557,-0.00000
 167,0.00002293,0.00000112,-0.00000290,-0.00000442,0.00001575,-0.000000
 46,-0.00000636,-0.00001786,0.00000137,0.00000199,0.00000850,0.00000088
 ,-0.00001473,-0.00017778,-0.00001682,0.00000362,0.00000638,0.00000125,
 0.00000246,0.00000182,-0.00000102,-0.00001247,-0.00000198,0.00001793,0
 .00000129,-0.00000232,-0.00000927,0.00000088,0.00000138,-0.00000122,0.
 00000306,-0.00000159,0.00000043,0.00000485,0.00000227,0.,0.00001426,-0
 .00010898,-0.00000043,-0.00000149,0.00001637,-0.00000087,-0.00000004,0
 .00000071,-0.00000065,0.00008289,-0.00005792,0.00000893,-0.00000029,0.
 00000258,0.,-0.00001585,0.00001796,-0.00000681,-0.00001554,0.00001179,
 0.00000924,-0.00001571,0.00001187,0.00000094,-0.00001986,0.00001213,-0
 .00001100,-0.00001810,-0.00000051,-0.00000057,-0.00076107,0.00078691,-
 0.00014060,-0.00007892,0.00043968,0.00052013,-0.00083937,-0.00101185,0
 .00062841,-0.00029372,0.00688553,-0.00212272,-0.00610895,0.03736721,-0
 .05598311,0.00032411,0.00020949,-0.00011188,0.00005374,-0.00045775,0.0
 0023355,-0.00604787,0.02426953,-0.00277034,0.00806900,-0.04192892,0.05
 364118,-0.00001269,0.00000267,-0.00001254,-0.00005130,-0.00003828,0.00
 002839,0.00012245,-0.00001310,-0.00001790,-0.00003073,0.00000005,0.000
 00841,-0.00006599,0.00003925,-0.00000025,0.00004333,-0.00001153,-0.000
 01248,-0.00000387,-0.00001068,0.00005041,-0.00001019,0.00000889,-0.000
 01347,-0.00000296,0.00002900,0.00001319,-0.00000120,0.00000496,0.00001
 138,-0.00000287,-0.00000409,-0.00000069,0.00000252,0.00000670,0.000000
 33,0.00000201,0.00000388,0.00000235,0.00002958,0.00006725,-0.00002496,
 -0.00000322,0.00000086,0.00000127,-0.00001073,0.00000707,-0.00000257,0
 .00000039,-0.00000263,0.00000942,-0.00001420,-0.00001700,-0.00003313,0
 .00000803,0.00000671,-0.00000695,-0.00000550,-0.00000039,0.00000523,0.
 00000319,-0.00000032,0.00000265,-0.00000434,-0.00003416,-0.00001809,0.
 00000040,-0.00000492,0.00000103,0.00000138,0.00000036,-0.00000278,-0.0
 0003621,-0.00002994,-0.00012515,-0.00000055,0.00000039,-0.00000200,0.0
 0001832,-0.00001340,0.00004080,0.00000178,0.00000464,0.00001937,-0.000
 00002,0.00002758,0.00003546,0.00000852,0.00000365,0.00001386,0.0000089
 2,0.00000678,0.00001494,0.00036827,0.00039817,0.00039583,0.00092157,0.
 00041515,0.00038547,-0.00033764,-0.00182995,-0.00032844,-0.00943356,-0
 .01689496,-0.02877658,-0.06696280,-0.03658477,-0.05887202,-0.00631012,
 0.00180270,-0.00113687,0.00131145,-0.00063270,0.00064856,0.00514690,0.
 01076470,0.01527067,0.00023194,0.00221383,0.00568157,0.07506975,0.0001
 1184,-0.00002975,-0.00001293,-0.00000721,0.00022248,-0.00002726,-0.000
 05656,-0.00012063,0.00002702,0.00003298,0.00010159,-0.00001515,0.00005
 228,0.00006249,-0.00003300,-0.00006900,-0.00002127,0.00001346,0.000008
 08,-0.00000863,0.00001980,-0.00000721,0.00000424,-0.00000809,-0.000054
 28,0.00000177,0.00000706,0.00003552,-0.00000382,-0.00000232,-0.0000140
 9,0.00002958,0.00000121,-0.00000053,-0.00003593,0.00000156,-0.00001590
 ,0.00002386,0.00000154,-0.00003286,-0.00036148,0.00005169,0.00000748,0
 .00000458,0.00000273,0.00000663,0.00000702,-0.00000687,-0.00000227,0.0
 0000368,0.00000590,-0.00002407,0.00000340,-0.00001751,0.00000619,0.000
 00245,-0.00000205,0.00000731,-0.00000360,-0.00000299,0.00000267,0.0000
 0493,0.00000209,0.00002714,-0.00007927,-0.00000110,-0.00000441,0.00002
 864,-0.00000077,0.00000281,-0.00000284,-0.00000034,0.00012177,-0.00003
 328,-0.00003722,0.00000025,0.00000254,-0.00000071,-0.00002154,0.000002
 71,0.00000724,-0.00002744,0.00001218,0.00002258,-0.00002343,0.00001066
 ,0.00000954,-0.00002929,0.00000967,-0.00000872,-0.00002641,-0.00000596
 ,0.00000688,-0.00042791,0.00026014,-0.00019581,-0.00005401,-0.00159268
 ,-0.00008444,0.00049371,-0.00017012,0.00087319,0.00112047,0.00319001,0
 .00544316,-0.03767850,-0.11589444,-0.11344291,0.00133539,0.00036258,0.
 00075737,-0.00060842,0.00009986,-0.00015878,0.00383693,0.00519712,0.00
 932053,-0.00833168,-0.01474412,-0.02643902,0.04030758,0.12345962,-0.00
 011271,0.00004817,-0.00000322,0.00009690,-0.00007089,0.00003718,-0.000
 15271,0.00011068,-0.00003895,0.00002569,-0.00007373,0.00001891,0.00005
 247,-0.00010372,0.00006576,0.00000777,0.00003146,-0.00001716,-0.000009
 62,0.00000624,-0.00008583,0.00001610,-0.00000976,0.00002711,0.00003101
 ,0.00003363,0.00000539,-0.00001115,0.00000672,0.00000553,0.00001826,-0
 .00001004,0.00000023,-0.00001201,0.00001351,-0.00000127,0.00002329,-0.
 00002213,0.00000397,-0.00000357,0.00012380,-0.00007546,-0.00000069,0.0
 0000378,-0.00000153,0.00000502,-0.00002022,0.00001257,-0.00000063,0.00
 000175,-0.00000764,0.00004263,0.00002241,0.00004121,-0.00001509,-0.000
 01472,0.00001259,0.00000115,0.00000221,-0.00000906,-0.00000165,0.00000
 288,-0.00000275,-0.00001767,-0.00003509,-0.00001217,0.00000346,-0.0000
 0534,0.00000119,-0.00000621,0.00000511,-0.00000396,-0.00004488,-0.0000
 9505,-0.00005910,-0.00000098,-0.00000050,-0.00000179,0.00001080,0.0000
 1741,0.00000622,0.00000780,0.00001301,0.00000603,0.00000244,0.00003726
 ,0.00002767,0.00001418,0.00001072,0.00001125,0.00001026,0.00001602,0.0
 0000664,0.00055298,0.00073207,-0.00003839,0.00157749,0.00050140,0.0004
 8084,-0.00170799,-0.00239194,-0.00011583,-0.00171076,-0.00207450,-0.00
 497408,-0.05990216,-0.11169615,-0.23106766,-0.00128192,0.00042424,0.00
 132679,-0.00031863,0.00025832,0.00070034,-0.00681736,-0.01287023,-0.02
 021475,0.00288244,0.00314776,0.00610474,0.06674627,0.12392343,0.247828
 47\\-0.00000002,-0.00000411,0.00000085,-0.00000502,-0.00000121,0.00001
 269,0.00000306,0.00000539,-0.00000458,-0.00000665,0.00000303,0.0000110
 8,0.00000122,0.00000052,0.00000406,-0.00000123,0.00000231,0.00000014,-
 0.00000167,0.00000301,-0.00000002,-0.00000039,0.00000540,0.00000282,-0
 .00000148,-0.00000289,0.00000122,-0.00000432,-0.00000336,0.00000212,-0
 .00000191,-0.00000328,0.00000532,-0.00000023,0.00000059,0.00000687,-0.
 00000264,-0.00000621,0.00000723,-0.00000186,-0.00000225,-0.00000277,-0
 .00000091,0.00000203,0.00000746,0.00000030,0.00000806,0.00000628,0.000
 00084,0.00000622,-0.00000058,0.00000168,0.00000214,0.00000139,0.000000
 16,0.00000815,0.00000421,0.00000104,0.00000547,0.00000150,-0.00000054,
 0.00000406,0.00000537,-0.00000080,0.00000388,-0.00000270,-0.00000334,-
 0.00000126,0.00001252,0.00000495,0.00000371,0.00000829,-0.00000051,-0.
 00000592,-0.00001008,-0.00000159,-0.00000356,0.00000694,0.00000430,-0.
 00001044,0.00000104,-0.00000286,-0.00000409,0.00000477,0.00000061,0.00
 000349,0.00000267,-0.00000068,-0.00000112,-0.00000004,-0.00000363,-0.0
 0000753,-0.00000443,-0.00000865,-0.00000033,-0.00000583,0.00000661,0.0
 0000310,0.00000074,0.00000485,-0.00000096,-0.00001404,0.00000488,-0.00
 000379,-0.00001101,-0.00000013,0.00000063,-0.00000742,0.00000419,0.000
 00100,-0.00001072,0.00000303,-0.00000251,-0.00001051,0.00000294,-0.000
 00059,-0.00001062,0.00000360,-0.00000203,-0.00001379,0.00000281,-0.000
 00474,-0.00000842\\\@


 LIVE PURE, SPEAK TRUE, RIGHT WRONG, FOLLOW THE KING...
 ELSE, WHEREFORE BORN......
           IDYLLS OF THE KING, TENNYSON
 Job cpu time:       0 days 11 hours 11 minutes  6.7 seconds.
 Elapsed time:       0 days 11 hours 11 minutes  7.6 seconds.
 File lengths (MBytes):  RWF=   1742 Int=      0 D2E=      0 Chk=     45 Scr=      1
 Normal termination of Gaussian 16 at Tue Mar 23 01:31:14 2021.
