 Entering Gaussian System, Link 0=/apps/gaussian/g16c01/g16/g16
 Initial command:
 /apps/gaussian/g16c01/g16/l1.exe "/jobfs/19479078.gadi-pbs/Gau-1325340.inp" -scrdir="/jobfs/19479078.gadi-pbs/"
 Entering Link 1 = /apps/gaussian/g16c01/g16/l1.exe PID=   1325341.
  
 Copyright (c) 1988-2019, Gaussian, Inc.  All Rights Reserved.
  
 This is part of the Gaussian(R) 16 program.  It is based on
 the Gaussian(R) 09 system (copyright 2009, Gaussian, Inc.),
 the Gaussian(R) 03 system (copyright 2003, Gaussian, Inc.),
 the Gaussian(R) 98 system (copyright 1998, Gaussian, Inc.),
 the Gaussian(R) 94 system (copyright 1995, Gaussian, Inc.),
 the Gaussian 92(TM) system (copyright 1992, Gaussian, Inc.),
 the Gaussian 90(TM) system (copyright 1990, Gaussian, Inc.),
 the Gaussian 88(TM) system (copyright 1988, Gaussian, Inc.),
 the Gaussian 86(TM) system (copyright 1986, Carnegie Mellon
 University), and the Gaussian 82(TM) system (copyright 1983,
 Carnegie Mellon University). Gaussian is a federally registered
 trademark of Gaussian, Inc.
  
 This software contains proprietary and confidential information,
 including trade secrets, belonging to Gaussian, Inc.
  
 This software is provided under written license and may be
 used, copied, transmitted, or stored only in accord with that
 written license.
  
 The following legend is applicable only to US Government
 contracts under FAR:
  
                    RESTRICTED RIGHTS LEGEND
  
 Use, reproduction and disclosure by the US Government is
 subject to restrictions as set forth in subparagraphs (a)
 and (c) of the Commercial Computer Software - Restricted
 Rights clause in FAR 52.227-19.
  
 Gaussian, Inc.
 340 Quinnipiac St., Bldg. 40, Wallingford CT 06492
  
  
 ---------------------------------------------------------------
 Warning -- This program may not be used in any manner that
 competes with the business of Gaussian, Inc. or will provide
 assistance to any competitor of Gaussian, Inc.  The licensee
 of this program is prohibited from giving any competitor of
 Gaussian, Inc. access to this program.  By using this program,
 the user acknowledges that Gaussian, Inc. is engaged in the
 business of creating and licensing software in the field of
 computational chemistry and represents and warrants to the
 licensee that it is not a competitor of Gaussian, Inc. and that
 it will not use this program in any manner prohibited above.
 ---------------------------------------------------------------
  

 Cite this work as:
 Gaussian 16, Revision C.01,
 M. J. Frisch, G. W. Trucks, H. B. Schlegel, G. E. Scuseria, 
 M. A. Robb, J. R. Cheeseman, G. Scalmani, V. Barone, 
 G. A. Petersson, H. Nakatsuji, X. Li, M. Caricato, A. V. Marenich, 
 J. Bloino, B. G. Janesko, R. Gomperts, B. Mennucci, H. P. Hratchian, 
 J. V. Ortiz, A. F. Izmaylov, J. L. Sonnenberg, D. Williams-Young, 
 F. Ding, F. Lipparini, F. Egidi, J. Goings, B. Peng, A. Petrone, 
 T. Henderson, D. Ranasinghe, V. G. Zakrzewski, J. Gao, N. Rega, 
 G. Zheng, W. Liang, M. Hada, M. Ehara, K. Toyota, R. Fukuda, 
 J. Hasegawa, M. Ishida, T. Nakajima, Y. Honda, O. Kitao, H. Nakai, 
 T. Vreven, K. Throssell, J. A. Montgomery, Jr., J. E. Peralta, 
 F. Ogliaro, M. J. Bearpark, J. J. Heyd, E. N. Brothers, K. N. Kudin, 
 V. N. Staroverov, T. A. Keith, R. Kobayashi, J. Normand, 
 K. Raghavachari, A. P. Rendell, J. C. Burant, S. S. Iyengar, 
 J. Tomasi, M. Cossi, J. M. Millam, M. Klene, C. Adamo, R. Cammi, 
 J. W. Ochterski, R. L. Martin, K. Morokuma, O. Farkas, 
 J. B. Foresman, and D. J. Fox, Gaussian, Inc., Wallingford CT, 2019.
 
 ******************************************
 Gaussian 16:  ES64L-G16RevC.01  3-Jul-2019
                22-Mar-2021 
 ******************************************
 %NprocShared=32
 Will use up to   32 processors via shared memory.
 %Mem=10000MB
 %chk=CP22CA_carboxy_c2.M062X_6-311pGd_opt_GD3.chk
 ----------------------------------------------------------------------
 # M062X/6-311+G* SCF=Tight INT(grid=ultrafine) OPT=CalcFC IOP(2/17=4) 
 EmpiricalDispersion=GD3 MaxDisk=10000MB
 ----------------------------------------------------------------------
 1/10=4,18=20,19=15,26=4,38=1/1,3;
 2/9=110,12=2,17=4,18=5,40=1/2;
 3/5=4,6=6,7=11,11=2,25=1,30=1,71=2,74=-55,75=-5,124=31,140=1/1,2,3;
 4//1;
 5/5=2,32=2,38=5/2;
 8/6=4,10=90,11=11/1;
 11/6=1,8=1,9=11,15=111,16=1/1,2,10;
 10/6=1,13=1/2;
 6/7=2,8=2,9=2,10=2,28=1/1;
 7/10=1,25=1/1,2,3,16;
 1/10=4,18=20,19=15,26=4/3(2);
 2/9=110,17=4/2;
 99//99;
 2/9=110,17=4/2;
 3/5=4,6=6,7=11,11=2,25=1,30=1,71=1,74=-55,75=-5,124=31/1,2,3;
 4/5=5,16=3,69=1/1;
 5/5=2,32=2,38=5/2;
 7//1,2,3,16;
 1/18=20,19=15,26=4/3(-5);
 2/9=110,17=4/2;
 6/7=2,8=2,9=2,10=2,19=2,28=1/1;
 99/9=1/99;
 ----------------------------------------
 CP22CA_carboxy_c2.M062X_6-311pGd_opt_GD3
 ----------------------------------------
 Symbolic Z-matrix:
 Charge = -1 Multiplicity = 1
 C                    -5.96997   1.2401    0.28809 
 N                    -4.67838   0.58155   0.22322 
 C                    -3.46733   1.22125   0.14221 
 O                    -3.39243   2.43868   0.14406 
 O                    -2.31727   0.50384   0.04587 
 C                    -1.08089   1.13131   0.02825 
 C                     0.04036   0.12534  -0.19196 
 C                     1.39833   0.82694  -0.17631 
 C                    -7.1829    0.62443   0.71814 
 C                    -8.40154   1.32961   0.75454 
 C                    -8.41455   2.67404   0.36139 
 C                    -7.2406    3.29839  -0.05896 
 C                    -6.037     2.58699  -0.09433 
 H                    -4.66133  -0.587     0.24069 
 H                    -0.9267    1.66029   0.99604 
 H                    -1.05116   1.8798   -0.79716 
 H                    -0.10399  -0.37216  -1.17538 
 H                     0.01566  -0.64101   0.61099 
 H                     1.44924   1.59861  -0.97504 
 H                     2.20554   0.08528  -0.34686 
 H                     1.56746   1.31712   0.80694 
 H                    -7.245    -0.3945    1.03451 
 Cl                   -7.279     4.98271  -0.54576 
 H                    -5.04781   3.13102  -0.45301 
 S                    -9.94279   0.50719   1.29989 
 H                    -9.33715   3.23978   0.38052 
 F                    -9.13482  -0.15589   2.657 
 F                    -10.36075   1.87077   2.248 
 F                    -9.56168  -0.87601   0.36393 
 F                    -10.78195   1.15382  -0.04539 
 F                    -11.3847  -0.26272   1.80733 
 O                    -6.71605  -2.77971   0.59903 
 O                    -4.48526  -2.66176   0.49587 
 C                    -5.49624  -3.35631   0.62456 
 C                    -5.46817  -4.86158   0.81828 
 C                    -4.10368  -5.54938   0.85724 
 H                    -6.05386  -5.32078  -0.00697 
 H                    -5.98603  -5.08844   1.77493 
 H                    -3.5586   -5.41971  -0.09985 
 H                    -4.26979  -6.6417    1.0089 
 H                    -3.48996  -5.17993   1.70392 
 
 Add virtual bond connecting atoms O33        and H14        Dist= 3.96D+00.

 GradGradGradGradGradGradGradGradGradGradGradGradGradGradGradGradGradGrad
 Berny optimization.
 Initialization pass.
                           ----------------------------
                           !    Initial Parameters    !
                           ! (Angstroms and Degrees)  !
 --------------------------                            --------------------------
 ! Name  Definition              Value          Derivative Info.                !
 --------------------------------------------------------------------------------
 ! R1    R(1,2)                  1.4512         calculate D2E/DX2 analytically  !
 ! R2    R(1,9)                  1.4266         calculate D2E/DX2 analytically  !
 ! R3    R(1,13)                 1.4017         calculate D2E/DX2 analytically  !
 ! R4    R(2,3)                  1.372          calculate D2E/DX2 analytically  !
 ! R5    R(2,14)                 1.1688         calculate D2E/DX2 analytically  !
 ! R6    R(3,4)                  1.2197         calculate D2E/DX2 analytically  !
 ! R7    R(3,5)                  1.3589         calculate D2E/DX2 analytically  !
 ! R8    R(5,6)                  1.3866         calculate D2E/DX2 analytically  !
 ! R9    R(6,7)                  1.5224         calculate D2E/DX2 analytically  !
 ! R10   R(6,15)                 1.1136         calculate D2E/DX2 analytically  !
 ! R11   R(6,16)                 1.1146         calculate D2E/DX2 analytically  !
 ! R12   R(7,8)                  1.5286         calculate D2E/DX2 analytically  !
 ! R13   R(7,17)                 1.1115         calculate D2E/DX2 analytically  !
 ! R14   R(7,18)                 1.1102         calculate D2E/DX2 analytically  !
 ! R15   R(8,19)                 1.1118         calculate D2E/DX2 analytically  !
 ! R16   R(8,20)                 1.1094         calculate D2E/DX2 analytically  !
 ! R17   R(8,21)                 1.1116         calculate D2E/DX2 analytically  !
 ! R18   R(9,10)                 1.4084         calculate D2E/DX2 analytically  !
 ! R19   R(9,22)                 1.0687         calculate D2E/DX2 analytically  !
 ! R20   R(10,11)                1.4008         calculate D2E/DX2 analytically  !
 ! R21   R(10,25)                1.8301         calculate D2E/DX2 analytically  !
 ! R22   R(11,12)                1.3945         calculate D2E/DX2 analytically  !
 ! R23   R(11,26)                1.0824         calculate D2E/DX2 analytically  !
 ! R24   R(12,13)                1.3986         calculate D2E/DX2 analytically  !
 ! R25   R(12,23)                1.7537         calculate D2E/DX2 analytically  !
 ! R26   R(13,24)                1.1845         calculate D2E/DX2 analytically  !
 ! R27   R(14,33)                2.0978         calculate D2E/DX2 analytically  !
 ! R28   R(25,27)                1.713          calculate D2E/DX2 analytically  !
 ! R29   R(25,28)                1.7126         calculate D2E/DX2 analytically  !
 ! R30   R(25,29)                1.713          calculate D2E/DX2 analytically  !
 ! R31   R(25,30)                1.7123         calculate D2E/DX2 analytically  !
 ! R32   R(25,31)                1.7115         calculate D2E/DX2 analytically  !
 ! R33   R(32,34)                1.3495         calculate D2E/DX2 analytically  !
 ! R34   R(33,34)                1.2333         calculate D2E/DX2 analytically  !
 ! R35   R(34,35)                1.5179         calculate D2E/DX2 analytically  !
 ! R36   R(35,36)                1.5285         calculate D2E/DX2 analytically  !
 ! R37   R(35,37)                1.1113         calculate D2E/DX2 analytically  !
 ! R38   R(35,38)                1.1112         calculate D2E/DX2 analytically  !
 ! R39   R(36,39)                1.109          calculate D2E/DX2 analytically  !
 ! R40   R(36,40)                1.1152         calculate D2E/DX2 analytically  !
 ! R41   R(36,41)                1.1091         calculate D2E/DX2 analytically  !
 ! A1    A(2,1,9)              125.0526         calculate D2E/DX2 analytically  !
 ! A2    A(2,1,13)             117.8005         calculate D2E/DX2 analytically  !
 ! A3    A(9,1,13)             117.1463         calculate D2E/DX2 analytically  !
 ! A4    A(1,2,3)              125.2146         calculate D2E/DX2 analytically  !
 ! A5    A(1,2,14)             117.7749         calculate D2E/DX2 analytically  !
 ! A6    A(3,2,14)             117.0105         calculate D2E/DX2 analytically  !
 ! A7    A(2,3,4)              121.2975         calculate D2E/DX2 analytically  !
 ! A8    A(2,3,5)              120.3358         calculate D2E/DX2 analytically  !
 ! A9    A(4,3,5)              118.3644         calculate D2E/DX2 analytically  !
 ! A10   A(3,5,6)              121.1064         calculate D2E/DX2 analytically  !
 ! A11   A(5,6,7)              111.0715         calculate D2E/DX2 analytically  !
 ! A12   A(5,6,15)             109.1086         calculate D2E/DX2 analytically  !
 ! A13   A(5,6,16)             109.6982         calculate D2E/DX2 analytically  !
 ! A14   A(7,6,15)             109.7307         calculate D2E/DX2 analytically  !
 ! A15   A(7,6,16)             108.4794         calculate D2E/DX2 analytically  !
 ! A16   A(15,6,16)            108.7156         calculate D2E/DX2 analytically  !
 ! A17   A(6,7,8)              110.4585         calculate D2E/DX2 analytically  !
 ! A18   A(6,7,17)             109.1528         calculate D2E/DX2 analytically  !
 ! A19   A(6,7,18)             109.5794         calculate D2E/DX2 analytically  !
 ! A20   A(8,7,17)             109.2608         calculate D2E/DX2 analytically  !
 ! A21   A(8,7,18)             109.2189         calculate D2E/DX2 analytically  !
 ! A22   A(17,7,18)            109.1497         calculate D2E/DX2 analytically  !
 ! A23   A(7,8,19)             110.6038         calculate D2E/DX2 analytically  !
 ! A24   A(7,8,20)             109.7541         calculate D2E/DX2 analytically  !
 ! A25   A(7,8,21)             110.2808         calculate D2E/DX2 analytically  !
 ! A26   A(19,8,20)            108.6784         calculate D2E/DX2 analytically  !
 ! A27   A(19,8,21)            108.8104         calculate D2E/DX2 analytically  !
 ! A28   A(20,8,21)            108.6675         calculate D2E/DX2 analytically  !
 ! A29   A(1,9,10)             121.8276         calculate D2E/DX2 analytically  !
 ! A30   A(1,9,22)             123.3738         calculate D2E/DX2 analytically  !
 ! A31   A(10,9,22)            114.7986         calculate D2E/DX2 analytically  !
 ! A32   A(9,10,11)            118.7716         calculate D2E/DX2 analytically  !
 ! A33   A(9,10,25)            120.7561         calculate D2E/DX2 analytically  !
 ! A34   A(11,10,25)           120.472          calculate D2E/DX2 analytically  !
 ! A35   A(10,11,12)           120.43           calculate D2E/DX2 analytically  !
 ! A36   A(10,11,26)           120.3042         calculate D2E/DX2 analytically  !
 ! A37   A(12,11,26)           119.2658         calculate D2E/DX2 analytically  !
 ! A38   A(11,12,13)           120.2891         calculate D2E/DX2 analytically  !
 ! A39   A(11,12,23)           119.6864         calculate D2E/DX2 analytically  !
 ! A40   A(13,12,23)           120.0245         calculate D2E/DX2 analytically  !
 ! A41   A(1,13,12)            121.5347         calculate D2E/DX2 analytically  !
 ! A42   A(1,13,24)            118.9461         calculate D2E/DX2 analytically  !
 ! A43   A(12,13,24)           119.519          calculate D2E/DX2 analytically  !
 ! A44   A(10,25,27)            90.7338         calculate D2E/DX2 analytically  !
 ! A45   A(10,25,28)            90.7275         calculate D2E/DX2 analytically  !
 ! A46   A(10,25,29)            90.7267         calculate D2E/DX2 analytically  !
 ! A47   A(10,25,30)            90.5102         calculate D2E/DX2 analytically  !
 ! A48   A(27,25,28)            89.1244         calculate D2E/DX2 analytically  !
 ! A49   A(27,25,29)            90.8807         calculate D2E/DX2 analytically  !
 ! A50   A(27,25,31)            89.3327         calculate D2E/DX2 analytically  !
 ! A51   A(28,25,30)            90.8403         calculate D2E/DX2 analytically  !
 ! A52   A(28,25,31)            89.3366         calculate D2E/DX2 analytically  !
 ! A53   A(29,25,30)            89.123          calculate D2E/DX2 analytically  !
 ! A54   A(29,25,31)            89.2091         calculate D2E/DX2 analytically  !
 ! A55   A(30,25,31)            89.4233         calculate D2E/DX2 analytically  !
 ! A56   A(14,33,34)           120.0575         calculate D2E/DX2 analytically  !
 ! A57   A(32,34,33)           119.8923         calculate D2E/DX2 analytically  !
 ! A58   A(32,34,35)           116.2854         calculate D2E/DX2 analytically  !
 ! A59   A(33,34,35)           123.8222         calculate D2E/DX2 analytically  !
 ! A60   A(34,35,36)           117.7735         calculate D2E/DX2 analytically  !
 ! A61   A(34,35,37)           107.7732         calculate D2E/DX2 analytically  !
 ! A62   A(34,35,38)           107.6799         calculate D2E/DX2 analytically  !
 ! A63   A(36,35,37)           107.6662         calculate D2E/DX2 analytically  !
 ! A64   A(36,35,38)           107.5901         calculate D2E/DX2 analytically  !
 ! A65   A(37,35,38)           108.0194         calculate D2E/DX2 analytically  !
 ! A66   A(35,36,39)           111.3544         calculate D2E/DX2 analytically  !
 ! A67   A(35,36,40)           108.1335         calculate D2E/DX2 analytically  !
 ! A68   A(35,36,41)           111.318          calculate D2E/DX2 analytically  !
 ! A69   A(39,36,40)           107.7632         calculate D2E/DX2 analytically  !
 ! A70   A(39,36,41)           110.3592         calculate D2E/DX2 analytically  !
 ! A71   A(40,36,41)           107.7509         calculate D2E/DX2 analytically  !
 ! A72   L(2,14,33,7,-1)       176.5297         calculate D2E/DX2 analytically  !
 ! A73   L(10,25,31,27,-1)     180.0665         calculate D2E/DX2 analytically  !
 ! A74   L(27,25,30,10,-1)     181.244          calculate D2E/DX2 analytically  !
 ! A75   L(28,25,29,10,-1)     181.4542         calculate D2E/DX2 analytically  !
 ! A76   L(2,14,33,7,-2)       173.5151         calculate D2E/DX2 analytically  !
 ! A77   L(10,25,31,27,-2)     180.0632         calculate D2E/DX2 analytically  !
 ! A78   L(27,25,30,10,-2)     180.0195         calculate D2E/DX2 analytically  !
 ! A79   L(28,25,29,10,-2)     180.0238         calculate D2E/DX2 analytically  !
 ! D1    D(9,1,2,3)           -162.6287         calculate D2E/DX2 analytically  !
 ! D2    D(9,1,2,14)            17.3877         calculate D2E/DX2 analytically  !
 ! D3    D(13,1,2,3)            17.0734         calculate D2E/DX2 analytically  !
 ! D4    D(13,1,2,14)         -162.9102         calculate D2E/DX2 analytically  !
 ! D5    D(2,1,9,10)           179.988          calculate D2E/DX2 analytically  !
 ! D6    D(2,1,9,22)            -0.0596         calculate D2E/DX2 analytically  !
 ! D7    D(13,1,9,10)            0.2841         calculate D2E/DX2 analytically  !
 ! D8    D(13,1,9,22)         -179.7635         calculate D2E/DX2 analytically  !
 ! D9    D(2,1,13,12)         -179.8353         calculate D2E/DX2 analytically  !
 ! D10   D(2,1,13,24)            0.0464         calculate D2E/DX2 analytically  !
 ! D11   D(9,1,13,12)           -0.1094         calculate D2E/DX2 analytically  !
 ! D12   D(9,1,13,24)          179.7724         calculate D2E/DX2 analytically  !
 ! D13   D(1,2,3,4)              1.4143         calculate D2E/DX2 analytically  !
 ! D14   D(1,2,3,5)           -178.0158         calculate D2E/DX2 analytically  !
 ! D15   D(14,2,3,4)          -178.6019         calculate D2E/DX2 analytically  !
 ! D16   D(14,2,3,5)             1.9679         calculate D2E/DX2 analytically  !
 ! D17   D(1,2,33,34)            1.6575         calculate D2E/DX2 analytically  !
 ! D18   D(3,2,33,34)          177.4326         calculate D2E/DX2 analytically  !
 ! D19   D(2,3,5,6)           -176.8484         calculate D2E/DX2 analytically  !
 ! D20   D(4,3,5,6)              3.705          calculate D2E/DX2 analytically  !
 ! D21   D(3,5,6,7)           -175.6749         calculate D2E/DX2 analytically  !
 ! D22   D(3,5,6,15)            63.2357         calculate D2E/DX2 analytically  !
 ! D23   D(3,5,6,16)           -55.7587         calculate D2E/DX2 analytically  !
 ! D24   D(5,6,7,8)           -178.6792         calculate D2E/DX2 analytically  !
 ! D25   D(5,6,7,17)            61.1702         calculate D2E/DX2 analytically  !
 ! D26   D(5,6,7,18)           -58.3087         calculate D2E/DX2 analytically  !
 ! D27   D(15,6,7,8)           -57.9562         calculate D2E/DX2 analytically  !
 ! D28   D(15,6,7,17)         -178.1068         calculate D2E/DX2 analytically  !
 ! D29   D(15,6,7,18)           62.4143         calculate D2E/DX2 analytically  !
 ! D30   D(16,6,7,8)            60.6821         calculate D2E/DX2 analytically  !
 ! D31   D(16,6,7,17)          -59.4685         calculate D2E/DX2 analytically  !
 ! D32   D(16,6,7,18)         -178.9474         calculate D2E/DX2 analytically  !
 ! D33   D(6,7,8,19)           -59.5842         calculate D2E/DX2 analytically  !
 ! D34   D(6,7,8,20)          -179.4879         calculate D2E/DX2 analytically  !
 ! D35   D(6,7,8,21)            60.8244         calculate D2E/DX2 analytically  !
 ! D36   D(17,7,8,19)           60.5016         calculate D2E/DX2 analytically  !
 ! D37   D(17,7,8,20)          -59.4022         calculate D2E/DX2 analytically  !
 ! D38   D(17,7,8,21)         -179.0898         calculate D2E/DX2 analytically  !
 ! D39   D(18,7,8,19)          179.8296         calculate D2E/DX2 analytically  !
 ! D40   D(18,7,8,20)           59.9259         calculate D2E/DX2 analytically  !
 ! D41   D(18,7,8,21)          -59.7618         calculate D2E/DX2 analytically  !
 ! D42   D(1,9,10,11)           -0.2663         calculate D2E/DX2 analytically  !
 ! D43   D(1,9,10,25)          179.5514         calculate D2E/DX2 analytically  !
 ! D44   D(22,9,10,11)         179.7775         calculate D2E/DX2 analytically  !
 ! D45   D(22,9,10,25)          -0.4048         calculate D2E/DX2 analytically  !
 ! D46   D(9,10,11,12)           0.0686         calculate D2E/DX2 analytically  !
 ! D47   D(9,10,11,26)        -179.945          calculate D2E/DX2 analytically  !
 ! D48   D(25,10,11,12)       -179.7496         calculate D2E/DX2 analytically  !
 ! D49   D(25,10,11,26)          0.2369         calculate D2E/DX2 analytically  !
 ! D50   D(9,10,25,27)          46.8196         calculate D2E/DX2 analytically  !
 ! D51   D(9,10,25,28)         135.9532         calculate D2E/DX2 analytically  !
 ! D52   D(9,10,25,29)         -44.0706         calculate D2E/DX2 analytically  !
 ! D53   D(9,10,25,30)        -133.1999         calculate D2E/DX2 analytically  !
 ! D54   D(11,10,25,27)       -133.3659         calculate D2E/DX2 analytically  !
 ! D55   D(11,10,25,28)        -44.2322         calculate D2E/DX2 analytically  !
 ! D56   D(11,10,25,29)        135.744          calculate D2E/DX2 analytically  !
 ! D57   D(11,10,25,30)         46.6146         calculate D2E/DX2 analytically  !
 ! D58   D(10,11,12,13)          0.1011         calculate D2E/DX2 analytically  !
 ! D59   D(10,11,12,23)       -179.9543         calculate D2E/DX2 analytically  !
 ! D60   D(26,11,12,13)       -179.8855         calculate D2E/DX2 analytically  !
 ! D61   D(26,11,12,23)          0.0591         calculate D2E/DX2 analytically  !
 ! D62   D(11,12,13,1)          -0.0788         calculate D2E/DX2 analytically  !
 ! D63   D(11,12,13,24)       -179.9599         calculate D2E/DX2 analytically  !
 ! D64   D(23,12,13,1)         179.9767         calculate D2E/DX2 analytically  !
 ! D65   D(23,12,13,24)          0.0957         calculate D2E/DX2 analytically  !
 ! D66   D(14,33,34,32)          0.0952         calculate D2E/DX2 analytically  !
 ! D67   D(14,33,34,35)       -179.795          calculate D2E/DX2 analytically  !
 ! D68   D(32,34,35,36)       -179.796          calculate D2E/DX2 analytically  !
 ! D69   D(32,34,35,37)         58.2668         calculate D2E/DX2 analytically  !
 ! D70   D(32,34,35,38)        -58.0364         calculate D2E/DX2 analytically  !
 ! D71   D(33,34,35,36)          0.0978         calculate D2E/DX2 analytically  !
 ! D72   D(33,34,35,37)       -121.8394         calculate D2E/DX2 analytically  !
 ! D73   D(33,34,35,38)        121.8573         calculate D2E/DX2 analytically  !
 ! D74   D(34,35,36,39)        -62.0155         calculate D2E/DX2 analytically  !
 ! D75   D(34,35,36,40)        179.7724         calculate D2E/DX2 analytically  !
 ! D76   D(34,35,36,41)         61.5964         calculate D2E/DX2 analytically  !
 ! D77   D(37,35,36,39)         59.9765         calculate D2E/DX2 analytically  !
 ! D78   D(37,35,36,40)        -58.2355         calculate D2E/DX2 analytically  !
 ! D79   D(37,35,36,41)       -176.4115         calculate D2E/DX2 analytically  !
 ! D80   D(38,35,36,39)        176.1789         calculate D2E/DX2 analytically  !
 ! D81   D(38,35,36,40)         57.9668         calculate D2E/DX2 analytically  !
 ! D82   D(38,35,36,41)        -60.2091         calculate D2E/DX2 analytically  !
 --------------------------------------------------------------------------------
 Trust Radius=3.00D-01 FncErr=1.00D-07 GrdErr=1.00D-06 EigMax=2.50D+02 EigMin=1.00D-04
 Number of steps in this run=    212 maximum allowed number of steps=    246.
 GradGradGradGradGradGradGradGradGradGradGradGradGradGradGradGradGradGrad

                          Input orientation:                          
 ---------------------------------------------------------------------
 Center     Atomic      Atomic             Coordinates (Angstroms)
 Number     Number       Type             X           Y           Z
 ---------------------------------------------------------------------
      1          6           0       -5.969970    1.240100    0.288090
      2          7           0       -4.678380    0.581550    0.223220
      3          6           0       -3.467330    1.221250    0.142210
      4          8           0       -3.392430    2.438680    0.144060
      5          8           0       -2.317270    0.503840    0.045870
      6          6           0       -1.080890    1.131310    0.028250
      7          6           0        0.040360    0.125340   -0.191960
      8          6           0        1.398330    0.826940   -0.176310
      9          6           0       -7.182900    0.624430    0.718140
     10          6           0       -8.401540    1.329610    0.754540
     11          6           0       -8.414550    2.674040    0.361390
     12          6           0       -7.240600    3.298390   -0.058960
     13          6           0       -6.037000    2.586990   -0.094330
     14          1           0       -4.661330   -0.587000    0.240690
     15          1           0       -0.926700    1.660290    0.996040
     16          1           0       -1.051160    1.879800   -0.797160
     17          1           0       -0.103990   -0.372160   -1.175380
     18          1           0        0.015660   -0.641010    0.610990
     19          1           0        1.449240    1.598610   -0.975040
     20          1           0        2.205540    0.085280   -0.346860
     21          1           0        1.567460    1.317120    0.806940
     22          1           0       -7.245000   -0.394500    1.034510
     23         17           0       -7.279000    4.982710   -0.545760
     24          1           0       -5.047810    3.131020   -0.453010
     25         16           0       -9.942790    0.507190    1.299890
     26          1           0       -9.337150    3.239780    0.380520
     27          9           0       -9.134820   -0.155890    2.657000
     28          9           0      -10.360750    1.870770    2.248000
     29          9           0       -9.561680   -0.876010    0.363930
     30          9           0      -10.781950    1.153820   -0.045390
     31          9           0      -11.384700   -0.262720    1.807330
     32          8           0       -6.716050   -2.779710    0.599030
     33          8           0       -4.485260   -2.661760    0.495870
     34          6           0       -5.496240   -3.356310    0.624560
     35          6           0       -5.468170   -4.861580    0.818280
     36          6           0       -4.103680   -5.549380    0.857240
     37          1           0       -6.053860   -5.320780   -0.006970
     38          1           0       -5.986030   -5.088440    1.774930
     39          1           0       -3.558600   -5.419710   -0.099850
     40          1           0       -4.269790   -6.641700    1.008900
     41          1           0       -3.489960   -5.179930    1.703920
 ---------------------------------------------------------------------
                    Distance matrix (angstroms):
                    1          2          3          4          5
     1  C    0.000000
     2  N    1.451241   0.000000
     3  C    2.506959   1.372013   0.000000
     4  O    2.846235   2.260280   1.219733   0.000000
     5  O    3.734028   2.369036   1.358895   2.215675   0.000000
     6  C    4.897189   3.644473   2.390852   2.658166   1.386602
     7  C    6.131656   4.758887   3.690065   4.153131   2.399634
     8  C    7.394472   6.094772   4.891992   5.064753   3.736234
     9  C    1.426601   2.553313   3.807013   4.241313   4.913333
    10  C    2.477523   3.834555   4.973240   5.166614   6.180813
    11  C    2.835053   4.284457   5.160777   5.032327   6.479672
    12  C    2.443666   3.745106   4.311908   3.948257   5.662127
    13  C    1.401731   2.443046   2.919658   2.659432   4.265626
    14  H    2.247906   1.168805   2.169125   3.282405   2.592779
    15  H    5.110022   3.979451   2.715986   2.722423   2.043009
    16  H    5.077566   3.985392   2.674693   2.584528   2.051097
    17  H    6.257064   4.877570   3.948044   4.522785   2.675338
    18  H    6.282564   4.866110   3.977309   4.617098   2.659437
    19  H    7.534501   6.325975   5.056017   5.039828   4.053070
    20  H    8.281047   6.925289   5.806124   6.092353   4.559083
    21  H    7.555659   6.316036   5.079387   5.128140   4.041260
    22  H    2.203352   2.863285   4.204478   4.864371   5.105580
    23  Cl   4.051666   5.169600   5.399140   4.696101   6.710370
    24  H    2.230513   2.663374   2.549397   1.891061   3.821885
    25  S    4.164636   5.373896   6.616773   6.926313   7.727945
    26  H    3.917290   5.366104   6.211766   6.003113   7.541623
    27  F    4.192469   5.130980   6.351466   6.783930   7.330227
    28  F    4.849530   6.168562   7.237090   7.301135   8.450766
    29  F    4.169419   5.098127   6.448935   7.006794   7.381506
    30  F    4.824293   6.136221   7.317336   7.502784   8.490089
    31  F    5.821156   6.942400   8.225542   8.598861   9.268692
    32  O    4.100267   3.948595   5.174026   6.203631   5.516969
    33  O    4.179958   3.260474   4.029767   5.228053   3.863121
    34  C    4.632992   4.041870   5.030228   6.183753   5.034033
    35  C    6.145194   5.532226   6.439041   7.619519   6.269970
    36  C    7.064277   6.190361   6.837956   8.051311   6.363258
    37  H    6.568047   6.064852   7.036373   8.204586   6.920339
    38  H    6.500875   6.022171   6.987261   8.126748   6.908187
    39  H    7.093537   6.113379   6.645997   7.863930   6.053972
    40  H    8.095242   7.277333   7.951168   9.163570   7.469840
    41  H    7.026508   6.066256   6.588972   7.777268   6.035692
                    6          7          8          9         10
     6  C    0.000000
     7  C    1.522389   0.000000
     8  C    2.506196   1.528584   0.000000
     9  C    6.161769   7.297456   8.630096   0.000000
    10  C    7.359262   8.579732   9.856805   1.408434   0.000000
    11  C    7.501571   8.848026   9.999676   2.417671   1.400796
    12  C    6.530380   7.943445   8.986264   2.785189   2.426038
    13  C    5.166919   6.557710   7.641245   2.413470   2.809383
    14  H    3.977093   4.774987   6.236393   2.837928   4.233982
    15  H    1.113648   2.168553   2.733979   6.347462   7.486047
    16  H    1.114640   2.153094   2.737512   6.439746   7.532501
    17  H    2.159509   1.111512   2.166321   7.395240   8.687344
    18  H    2.164053   1.110239   2.164831   7.309725   8.645994
    19  H    2.761615   2.183731   1.111772   8.850408  10.005082
    20  H    3.469223   2.171083   1.109385   9.464022  10.736461
    21  H    2.766702   2.179490   1.111603   8.778183   9.969146
    22  H    6.429378   7.406142   8.812784   1.068721   2.094880
    23  Cl   7.319791   8.791601   9.628238   4.538864   4.036832
    24  H    4.468434   5.915381   6.851136   3.494738   3.993840
    25  S    8.974401  10.101223  11.441259   2.822972   1.830091
    26  H    8.528515   9.897735  11.017368   3.405119   2.159631
    27  F    8.569306   9.611430  10.951751   2.859732   2.522650
    28  F    9.570261  10.825111  12.051673   3.740664   2.522257
    29  F    8.721572   9.670103  11.104671   2.834674   2.522550
    30  F    9.701366  10.872058  12.185369   3.717041   2.517368
    31  F   10.548789  11.605160  12.981835   4.430406   3.541627
    32  O    6.883088   7.396895   8.913599   3.438067   4.444274
    33  O    5.118182   5.359316   6.873099   4.257430   5.597785
    34  C    6.323736   6.591095   8.104077   4.324335   5.515026
    35  C    7.469076   7.498924   8.972028   5.748620   6.851245
    36  C    7.379438   7.104670   8.485152   6.900498   8.111883
    37  H    8.146234   8.175204   9.662208   6.094755   7.093602
    38  H    8.111509   8.207895   9.660633   5.931795   6.933055
    39  H    7.005092   6.611246   7.974813   7.094807   8.350890
    40  H    8.458749   8.112477   9.450550   7.833735   8.982084
    41  H    6.960118   6.648565   7.969513   6.949832   8.209693
                   11         12         13         14         15
    11  C    0.000000
    12  C    1.394513   0.000000
    13  C    2.422396   1.398569   0.000000
    14  H    4.973491   4.673187   3.475474   0.000000
    15  H    7.582768   6.607702   5.306868   4.423610   0.000000
    16  H    7.496170   6.392691   5.084554   4.493947   1.810868
    17  H    8.983674   8.102502   6.717577   4.777108   3.085899
    18  H    9.062025   8.283780   6.895807   4.691937   2.516404
    19  H   10.011840   8.901785   7.602390   6.602572   3.087726
    20  H   10.953977   9.981810   8.617528   6.924672   3.754326
    21  H   10.083664   9.069572   7.762259   6.537900   2.524749
    22  H    3.352145   3.851381   3.409227   2.709715   6.644137
    23  Cl   2.728067   1.753677   2.736024   6.204222   7.332621
    24  H    3.493854   2.234192   1.184532   3.801876   4.609375
    25  S    2.812746   4.115714   4.639463   5.496633   9.094605
    26  H    1.082413   2.142919   3.397441   6.043765   8.579588
    27  F    3.714447   4.785035   4.968873   5.102600   8.569162
    28  F    2.827054   4.134670   4.969335   6.523290   9.519086
    29  F    3.730787   4.794983   4.962433   4.910412   9.021932
    30  F    2.842731   4.140112   4.956906   6.369795   9.923056
    31  F    4.420078   5.773916   6.350988   6.911094  10.664236
    32  O    5.717059   6.136074   5.453744   3.026262   7.306695
    33  O    6.627833   6.589622   5.505053   2.097796   5.620822
    34  C    6.704544   6.913394   6.010993   2.917792   6.795952
    35  C    8.104040   8.396200   7.525797   4.388238   7.949298
    36  C    9.298070   9.432005   8.416872   5.031533   7.879836
    37  H    8.344201   8.700641   7.908271   4.940562   8.719469
    38  H    8.255416   8.676175   7.899934   4.936769   8.470469
    39  H    9.449962   9.463829   8.381512   4.968608   7.632449
    40  H   10.216717  10.429354   9.460913   6.115786   8.949830
    41  H    9.366900   9.436999   8.369359   4.960661   7.338938
                   16         17         18         19         20
    16  H    0.000000
    17  H    2.472146   0.000000
    18  H    3.078226   1.810446   0.000000
    19  H    2.522441   2.517259   3.096214   0.000000
    20  H    3.745553   2.495922   2.498109   1.804652   0.000000
    21  H    3.122005   3.094674   2.506143   1.807945   1.804392
    22  H    6.847708   7.475168   7.277178   9.143336   9.563006
    23  Cl   6.962560   8.975067   9.283122   9.371157  10.676183
    24  H    4.202047   6.102085   6.403049   6.695704   7.867585
    25  S    9.238115  10.183428  10.048068  11.668113  12.266691
    26  H    8.479039  10.035845  10.128608  10.994416  11.988063
    27  F    9.023348   9.812737   9.388971  11.326620  11.733930
    28  F    9.794976  11.043160  10.800867  12.244914  12.955034
    29  F    9.020619   9.595376   9.583408  11.364724  11.827796
    30  F    9.786750  10.845475  10.965429  12.274530  13.034859
    31  F   10.869950  11.668888  11.469200  13.263338  13.764311
    32  O    7.466683   7.257008   7.063292   9.397837   9.417943
    33  O    5.838727   5.218321   4.935075   7.452021   7.281705
    34  C    7.014048   6.420381   6.144435   8.680417   8.491502
    35  C    8.219844   7.273514   6.923046   9.633307   9.204064
    36  C    8.200465   6.850742   6.412620   9.235038   8.544326
    37  H    8.803395   7.826556   7.689031  10.252396   9.877181
    38  H    8.917677   8.096050   7.560071  10.371220   9.918225
    39  H    7.749603   6.210383   6.009709   8.666097   7.974412
    40  H    9.286409   7.837863   7.384558  10.224775   9.435054
    41  H    7.876734   6.547504   5.838293   8.804608   8.022896
                   21         22         23         24         25
    21  H    0.000000
    22  H    8.980027   0.000000
    23  Cl   9.670895   5.604712   0.000000
    24  H    6.974203   4.412443   2.900960   0.000000
    25  S   11.549236   2.856841   5.525620   5.823914   0.000000
    26  H   11.081019   4.244147   2.851628   4.370931   2.946029
    27  F   10.960441   2.502165   6.333005   6.097507   1.712962
    28  F   12.027692   4.038800   5.194848   6.091881   1.712587
    29  F   11.351821   2.459377   6.353170   6.090870   1.713041
    30  F   12.379865   4.009176   5.213581   6.079131   1.712337
    31  F   13.086448   4.213281   7.064584   7.535435   1.711538
    32  O    9.243581   2.481664   7.866551   6.231095   4.659052
    33  O    7.250081   3.612031   8.205358   5.896875   6.361865
    34  C    8.471722   3.463891   8.607388   6.591487   5.929124
    35  C    9.363576   4.812347  10.101968   8.103983   7.005559
    36  C    8.905795   6.039214  11.089454   8.829353   8.424558
    37  H   10.139462   5.174140  10.390051   8.523146   7.127194
    38  H    9.951051   4.915923  10.415634   8.567584   6.869693
    39  H    8.513732   6.334750  11.056697   8.686625   8.822998
    40  H    9.872036   6.919540  12.107816   9.912041   9.130949
    41  H    8.282133   6.119540  11.076874   8.726462   8.610783
                   26         27         28         29         30
    26  H    0.000000
    27  F    4.093150   0.000000
    28  F    2.531685   2.403651   0.000000
    29  F    4.121943   2.441097   3.425352   0.000000
    30  F    2.572951   3.425097   2.439480   2.403500   0.000000
    31  F    4.300669   2.407345   2.407165   2.404772   2.408831
    32  O    6.569031   4.119481   6.134322   3.431757   5.693811
    33  O    7.640832   5.706862   7.624642   5.382969   7.382406
    34  C    7.636789   5.254785   7.322662   4.769446   6.980604
    35  C    8.988475   6.242494   8.444287   5.731320   8.072622
    36  C   10.240401   7.592183   9.805293   7.202326   9.505100
    37  H    9.176782   6.577624   8.680587   5.674359   8.017279
    38  H    9.084802   5.918021   8.233625   5.702698   8.079618
    39  H   10.421572   8.148758  10.243668   7.543028   9.766834
    40  H   11.122798   8.273481  10.540271   7.852596  10.212242
    41  H   10.335983   7.616678   9.859825   7.562082   9.815783
                   31         32         33         34         35
    31  F    0.000000
    32  O    5.439809   0.000000
    33  O    7.421428   2.236287   0.000000
    34  C    6.755976   1.349465   1.233305   0.000000
    35  C    7.558641   2.437100   2.430899   1.517944   0.000000
    36  C    9.047911   3.816048   2.935054   2.608241   1.528535
    37  H    7.569248   2.694952   3.127897   2.137501   1.111276
    38  H    7.241151   2.691822   3.126832   2.136240   1.111226
    39  H    9.564503   4.174629   2.969826   2.921787   2.191102
    40  H    9.589099   4.589896   4.018650   3.527844   2.154363
    41  H    9.301428   4.170071   2.964994   2.918179   2.190667
                   36         37         38         39         40
    36  C    0.000000
    37  H    2.145302   0.000000
    38  H    2.144263   1.798263   0.000000
    39  H    1.109030   2.498947   3.084956   0.000000
    40  H    1.115238   2.441255   2.438216   1.796769   0.000000
    41  H    1.109059   3.085542   2.498755   1.820932   1.796652
                   41
    41  H    0.000000
 Stoichiometry    C13H16ClF5NO4S(1-)
 Framework group  C1[X(C13H16ClF5NO4S)]
 Deg. of freedom   117
 Full point group                 C1      NOp   1
 Largest Abelian subgroup         C1      NOp   1
 Largest concise Abelian subgroup C1      NOp   1
                         Standard orientation:                         
 ---------------------------------------------------------------------
 Center     Atomic      Atomic             Coordinates (Angstroms)
 Number     Number       Type             X           Y           Z
 ---------------------------------------------------------------------
      1          6           0       -0.188228   -0.915600   -0.093964
      2          7           0       -1.576520   -0.493655   -0.067306
      3          6           0       -2.652901   -1.325382    0.111733
      4          8           0       -2.505402   -2.522610    0.292396
      5          8           0       -3.917202   -0.828288    0.079531
      6          6           0       -5.013293   -1.642030    0.322582
      7          6           0       -6.315865   -0.879185    0.124994
      8          6           0       -7.513498   -1.779431    0.427982
      9          6           0        0.934245   -0.050952    0.072253
     10          6           0        2.256468   -0.534667    0.034372
     11          6           0        2.467674   -1.904728   -0.167001
     12          6           0        1.385957   -2.769968   -0.327980
     13          6           0        0.077417   -2.277599   -0.292060
     14          1           0       -1.802775    0.644208   -0.209362
     15          1           0       -4.957474   -2.026719    1.366186
     16          1           0       -5.001165   -2.508107   -0.378978
     17          1           0       -6.377383   -0.529247   -0.928199
     18          1           0       -6.338708   -0.000135    0.802771
     19          1           0       -7.514812   -2.667222   -0.241243
     20          1           0       -8.455779   -1.215188    0.271542
     21          1           0       -7.477531   -2.126276    1.483476
     22          1           0        0.846569    1.001995    0.232815
     23         17           0        1.672804   -4.481903   -0.577734
     24          1           0       -0.831320   -3.024854   -0.429621
     25         16           0        3.675389    0.602893    0.238951
     26          1           0        3.473501   -2.303317   -0.199536
     27          9           0        2.921250    1.335663    1.591194
     28          9           0        4.438962   -0.505077    1.298343
     29          9           0        2.945648    1.737877   -0.816415
     30          9           0        4.458369   -0.106917   -1.108347
     31          9           0        5.002449    1.667175    0.427570
     32          8           0       -0.151805    3.169046   -0.449679
     33          8           0       -2.321279    2.676881   -0.221347
     34          6           0       -1.444807    3.537312   -0.333138
     35          6           0       -1.722649    5.029543   -0.347411
     36          6           0       -3.175575    5.484842   -0.212769
     37          1           0       -1.328047    5.438944   -1.302196
     38          1           0       -1.148511    5.487710    0.486418
     39          1           0       -3.793952    5.116835   -1.056647
     40          1           0       -3.193775    6.599636   -0.238437
     41          1           0       -3.611359    5.161736    0.754551
 ---------------------------------------------------------------------
 Rotational constants (GHZ):           0.1846739           0.1018564           0.0684655
 Standard basis: 6-311+G(d) (5D, 7F)
 There are   639 symmetry adapted cartesian basis functions of A   symmetry.
 There are   614 symmetry adapted basis functions of A   symmetry.
   614 basis functions,  1011 primitive gaussians,   639 cartesian basis functions
   106 alpha electrons      106 beta electrons
       nuclear repulsion energy      2686.6739413931 Hartrees.
 NAtoms=   41 NActive=   41 NUniq=   41 SFac= 1.00D+00 NAtFMM=   60 NAOKFM=F Big=F
 Integral buffers will be    131072 words long.
 Raffenetti 2 integral format.
 Two-electron integral symmetry is turned on.
 Nuclear repulsion after empirical dispersion term =     2686.6714875656 Hartrees.
 One-electron integrals computed using PRISM.
 NBasis=   614 RedAO= T EigKep=  1.03D-06  NBF=   614
 NBsUse=   612 1.00D-06 EigRej=  6.35D-07 NBFU=   612
 ExpMin= 4.05D-02 ExpMax= 1.06D+05 ExpMxC= 3.62D+03 IAcc=3 IRadAn=         5 AccDes= 0.00D+00
 Harris functional with IExCor= 1009 and IRadAn=       5 diagonalized for initial guess.
 HarFok:  IExCor= 1009 AccDes= 0.00D+00 IRadAn=         5 IDoV= 1 UseB2=F ITyADJ=14
 ICtDFT=  3500011 ScaDFX=  1.000000  1.000000  1.000000  1.000000
 FoFCou: FMM=F IPFlag=           0 FMFlag=      100000 FMFlg1=           0
         NFxFlg=           0 DoJE=T BraDBF=F KetDBF=T FulRan=T
         wScrn=  0.000000 ICntrl=       500 IOpCl=  0 I1Cent=   200000004 NGrid=           0
         NMat0=    1 NMatS0=      1 NMatT0=    0 NMatD0=    1 NMtDS0=    0 NMtDT0=    0
 Petite list used in FoFCou.
 Requested convergence on RMS density matrix=1.00D-08 within 128 cycles.
 Requested convergence on MAX density matrix=1.00D-06.
 Requested convergence on             energy=1.00D-06.
 No special actions if energy rises.
 SCF Done:  E(RM062X) =  -2218.04922624     A.U. after   18 cycles
            NFock= 18  Conv=0.79D-08     -V/T= 2.0034
 DoSCS=F DFT=T ScalE2(SS,OS)=  1.000000  1.000000
 Range of M.O.s used for correlation:     1   612
 NBasis=   614 NAE=   106 NBE=   106 NFC=     0 NFV=     0
 NROrb=    612 NOA=   106 NOB=   106 NVA=   506 NVB=   506

 **** Warning!!: The largest alpha MO coefficient is  0.13603338D+03

 Symmetrizing basis deriv contribution to polar:
 IMax=3 JMax=2 DiffMx= 0.00D+00
 G2DrvN: will do    42 centers at a time, making    1 passes.
 Calling FoFCou, ICntrl=  3107 FMM=F I1Cent=   0 AccDes= 0.00D+00.
 End of G2Drv F.D. properties file   721 does not exist.
 End of G2Drv F.D. properties file   722 does not exist.
 End of G2Drv F.D. properties file   788 does not exist.
          IDoAtm=11111111111111111111111111111111111111111
          Differentiating once with respect to nuclear coordinates.
 CalDSu exits because no D1Ps are significant.
          There are   126 degrees of freedom in the 1st order CPHF.  IDoFFX=6 NUNeed=     0.
    120 vectors produced by pass  0 Test12= 5.36D-14 1.00D-09 XBig12= 7.28D-01 1.26D-01.
 AX will form    64 AO Fock derivatives at one time.
    120 vectors produced by pass  1 Test12= 5.36D-14 1.00D-09 XBig12= 3.88D-02 4.69D-02.
    120 vectors produced by pass  2 Test12= 5.36D-14 1.00D-09 XBig12= 1.31D-03 5.65D-03.
    120 vectors produced by pass  3 Test12= 5.36D-14 1.00D-09 XBig12= 1.46D-05 5.77D-04.
    120 vectors produced by pass  4 Test12= 5.36D-14 1.00D-09 XBig12= 1.57D-07 4.90D-05.
    120 vectors produced by pass  5 Test12= 5.36D-14 1.00D-09 XBig12= 1.11D-09 3.51D-06.
    107 vectors produced by pass  6 Test12= 5.36D-14 1.00D-09 XBig12= 6.03D-12 1.88D-07.
     44 vectors produced by pass  7 Test12= 5.36D-14 1.00D-09 XBig12= 2.39D-14 1.11D-08.
 InvSVY:  IOpt=1 It=  1 EMax= 8.88D-16
 Solved reduced A of dimension   871 with   126 vectors.
 End of Minotr F.D. properties file   721 does not exist.
 End of Minotr F.D. properties file   722 does not exist.
 End of Minotr F.D. properties file   788 does not exist.

 **********************************************************************

            Population analysis using the SCF Density.

 **********************************************************************

 Orbital symmetries:
       Occupied  (A) (A) (A) (A) (A) (A) (A) (A) (A) (A) (A) (A)
                 (A) (A) (A) (A) (A) (A) (A) (A) (A) (A) (A) (A)
                 (A) (A) (A) (A) (A) (A) (A) (A) (A) (A) (A) (A)
                 (A) (A) (A) (A) (A) (A) (A) (A) (A) (A) (A) (A)
                 (A) (A) (A) (A) (A) (A) (A) (A) (A) (A) (A) (A)
                 (A) (A) (A) (A) (A) (A) (A) (A) (A) (A) (A) (A)
                 (A) (A) (A) (A) (A) (A) (A) (A) (A) (A) (A) (A)
                 (A) (A) (A) (A) (A) (A) (A) (A) (A) (A) (A) (A)
                 (A) (A) (A) (A) (A) (A) (A) (A) (A) (A)
       Virtual   (A) (A) (A) (A) (A) (A) (A) (A) (A) (A) (A) (A)
                 (A) (A) (A) (A) (A) (A) (A) (A) (A) (A) (A) (A)
                 (A) (A) (A) (A) (A) (A) (A) (A) (A) (A) (A) (A)
                 (A) (A) (A) (A) (A) (A) (A) (A) (A) (A) (A) (A)
                 (A) (A) (A) (A) (A) (A) (A) (A) (A) (A) (A) (A)
                 (A) (A) (A) (A) (A) (A) (A) (A) (A) (A) (A) (A)
                 (A) (A) (A) (A) (A) (A) (A) (A) (A) (A) (A) (A)
                 (A) (A) (A) (A) (A) (A) (A) (A) (A) (A) (A) (A)
                 (A) (A) (A) (A) (A) (A) (A) (A) (A) (A) (A) (A)
                 (A) (A) (A) (A) (A) (A) (A) (A) (A) (A) (A) (A)
                 (A) (A) (A) (A) (A) (A) (A) (A) (A) (A) (A) (A)
                 (A) (A) (A) (A) (A) (A) (A) (A) (A) (A) (A) (A)
                 (A) (A) (A) (A) (A) (A) (A) (A) (A) (A) (A) (A)
                 (A) (A) (A) (A) (A) (A) (A) (A) (A) (A) (A) (A)
                 (A) (A) (A) (A) (A) (A) (A) (A) (A) (A) (A) (A)
                 (A) (A) (A) (A) (A) (A) (A) (A) (A) (A) (A) (A)
                 (A) (A) (A) (A) (A) (A) (A) (A) (A) (A) (A) (A)
                 (A) (A) (A) (A) (A) (A) (A) (A) (A) (A) (A) (A)
                 (A) (A) (A) (A) (A) (A) (A) (A) (A) (A) (A) (A)
                 (A) (A) (A) (A) (A) (A) (A) (A) (A) (A) (A) (A)
                 (A) (A) (A) (A) (A) (A) (A) (A) (A) (A) (A) (A)
                 (A) (A) (A) (A) (A) (A) (A) (A) (A) (A) (A) (A)
                 (A) (A) (A) (A) (A) (A) (A) (A) (A) (A) (A) (A)
                 (A) (A) (A) (A) (A) (A) (A) (A) (A) (A) (A) (A)
                 (A) (A) (A) (A) (A) (A) (A) (A) (A) (A) (A) (A)
                 (A) (A) (A) (A) (A) (A) (A) (A) (A) (A) (A) (A)
                 (A) (A) (A) (A) (A) (A) (A) (A) (A) (A) (A) (A)
                 (A) (A) (A) (A) (A) (A) (A) (A) (A) (A) (A) (A)
                 (A) (A) (A) (A) (A) (A) (A) (A) (A) (A) (A) (A)
                 (A) (A) (A) (A) (A) (A) (A) (A) (A) (A) (A) (A)
                 (A) (A) (A) (A) (A) (A) (A) (A) (A) (A) (A) (A)
                 (A) (A) (A) (A) (A) (A) (A) (A) (A) (A) (A) (A)
                 (A) (A) (A) (A) (A) (A) (A) (A) (A) (A) (A) (A)
                 (A) (A) (A) (A) (A) (A) (A) (A) (A) (A) (A) (A)
                 (A) (A) (A) (A) (A) (A) (A) (A) (A) (A) (A) (A)
                 (A) (A) (A) (A) (A) (A) (A) (A) (A) (A) (A) (A)
                 (A) (A) (A) (A) (A) (A) (A) (A) (A) (A) (A) (A)
                 (A) (A) (A) (A) (A) (A) (A) (A) (A) (A) (A) (A)
                 (A) (A) (A) (A) (A) (A) (A) (A) (A) (A) (A) (A)
                 (A) (A) (A) (A) (A) (A) (A) (A) (A) (A) (A) (A)
                 (A) (A) (A) (A) (A) (A) (A) (A) (A) (A) (A) (A)
                 (A) (A) (A) (A) (A) (A) (A) (A) (A) (A) (A) (A)
                 (A) (A)
 The electronic state is 1-A.
 Alpha  occ. eigenvalues -- -102.60640 -90.19939 -25.21182 -25.19886 -25.19695
 Alpha  occ. eigenvalues --  -25.18962 -25.18442 -19.57919 -19.50804 -19.42654
 Alpha  occ. eigenvalues --  -19.39009 -14.70494 -10.61841 -10.53958 -10.53689
 Alpha  occ. eigenvalues --  -10.53105 -10.52108 -10.49438 -10.48585 -10.48240
 Alpha  occ. eigenvalues --  -10.48037 -10.47403 -10.47135 -10.41703 -10.41130
 Alpha  occ. eigenvalues --   -9.74878  -8.52117  -7.47392  -7.46716  -7.46711
 Alpha  occ. eigenvalues --   -6.44464  -6.44444  -6.44076  -1.35513  -1.28069
 Alpha  occ. eigenvalues --   -1.27892  -1.26949  -1.24687  -1.15707  -1.05635
 Alpha  occ. eigenvalues --   -0.99475  -0.95005  -0.91983  -0.88504  -0.86167
 Alpha  occ. eigenvalues --   -0.84216  -0.82232  -0.77525  -0.75658  -0.73841
 Alpha  occ. eigenvalues --   -0.72167  -0.65490  -0.64150  -0.61928  -0.61755
 Alpha  occ. eigenvalues --   -0.60368  -0.59704  -0.58789  -0.56866  -0.53569
 Alpha  occ. eigenvalues --   -0.52074  -0.51120  -0.51063  -0.50565  -0.50045
 Alpha  occ. eigenvalues --   -0.49142  -0.46912  -0.46736  -0.45553  -0.45419
 Alpha  occ. eigenvalues --   -0.45281  -0.45200  -0.45122  -0.44884  -0.44352
 Alpha  occ. eigenvalues --   -0.44100  -0.43617  -0.42568  -0.42126  -0.41882
 Alpha  occ. eigenvalues --   -0.40611  -0.40316  -0.39364  -0.38813  -0.37725
 Alpha  occ. eigenvalues --   -0.37332  -0.36358  -0.36247  -0.35031  -0.34271
 Alpha  occ. eigenvalues --   -0.34150  -0.33106  -0.32060  -0.31821  -0.31213
 Alpha  occ. eigenvalues --   -0.30966  -0.29319  -0.28354  -0.28195  -0.26946
 Alpha  occ. eigenvalues --   -0.26206  -0.23316  -0.20187  -0.17126  -0.14809
 Alpha  occ. eigenvalues --   -0.13868
 Alpha virt. eigenvalues --   -0.01189   0.06803   0.07755   0.08587   0.08958
 Alpha virt. eigenvalues --    0.10046   0.10387   0.10570   0.11030   0.11258
 Alpha virt. eigenvalues --    0.12119   0.12437   0.12792   0.12996   0.13222
 Alpha virt. eigenvalues --    0.13410   0.13564   0.14070   0.14321   0.14756
 Alpha virt. eigenvalues --    0.14952   0.15284   0.15482   0.16044   0.16186
 Alpha virt. eigenvalues --    0.16613   0.16940   0.17540   0.17778   0.18225
 Alpha virt. eigenvalues --    0.18611   0.18772   0.19116   0.19656   0.20000
 Alpha virt. eigenvalues --    0.20144   0.20502   0.20906   0.21248   0.21599
 Alpha virt. eigenvalues --    0.22128   0.22298   0.23192   0.23274   0.23745
 Alpha virt. eigenvalues --    0.24455   0.24585   0.24803   0.25683   0.25916
 Alpha virt. eigenvalues --    0.26062   0.26311   0.26982   0.27286   0.27563
 Alpha virt. eigenvalues --    0.27869   0.27974   0.28469   0.28732   0.28958
 Alpha virt. eigenvalues --    0.29366   0.30160   0.30345   0.30613   0.31010
 Alpha virt. eigenvalues --    0.31174   0.31710   0.32186   0.32480   0.32970
 Alpha virt. eigenvalues --    0.33347   0.33427   0.33888   0.34286   0.34453
 Alpha virt. eigenvalues --    0.34647   0.34945   0.35671   0.35821   0.36220
 Alpha virt. eigenvalues --    0.36359   0.36581   0.37148   0.37377   0.37527
 Alpha virt. eigenvalues --    0.38091   0.38295   0.38718   0.39045   0.39172
 Alpha virt. eigenvalues --    0.39447   0.39678   0.39965   0.40381   0.40696
 Alpha virt. eigenvalues --    0.41170   0.41340   0.41674   0.42449   0.42643
 Alpha virt. eigenvalues --    0.42962   0.43749   0.43982   0.44171   0.44256
 Alpha virt. eigenvalues --    0.44931   0.45107   0.45524   0.45937   0.46711
 Alpha virt. eigenvalues --    0.46975   0.47108   0.47522   0.47938   0.48659
 Alpha virt. eigenvalues --    0.48999   0.49624   0.50343   0.50908   0.51154
 Alpha virt. eigenvalues --    0.51976   0.52537   0.52940   0.53436   0.53733
 Alpha virt. eigenvalues --    0.54611   0.54766   0.54959   0.55188   0.55555
 Alpha virt. eigenvalues --    0.56410   0.56498   0.56828   0.57552   0.57631
 Alpha virt. eigenvalues --    0.57882   0.58986   0.59504   0.59895   0.60880
 Alpha virt. eigenvalues --    0.61406   0.61677   0.62450   0.62543   0.63777
 Alpha virt. eigenvalues --    0.64415   0.65264   0.65618   0.66309   0.66764
 Alpha virt. eigenvalues --    0.67096   0.67393   0.67945   0.68562   0.68958
 Alpha virt. eigenvalues --    0.69331   0.70365   0.70784   0.71771   0.72234
 Alpha virt. eigenvalues --    0.73248   0.73469   0.74049   0.74713   0.75091
 Alpha virt. eigenvalues --    0.75689   0.75932   0.76294   0.76703   0.77708
 Alpha virt. eigenvalues --    0.77818   0.78305   0.78523   0.78613   0.79998
 Alpha virt. eigenvalues --    0.80600   0.81472   0.81782   0.82169   0.82618
 Alpha virt. eigenvalues --    0.83462   0.83595   0.83903   0.84619   0.85429
 Alpha virt. eigenvalues --    0.85964   0.86245   0.86905   0.87556   0.87884
 Alpha virt. eigenvalues --    0.88772   0.89083   0.90500   0.90810   0.92886
 Alpha virt. eigenvalues --    0.94945   0.96172   0.96726   0.97025   0.98079
 Alpha virt. eigenvalues --    0.98679   0.99136   1.00748   1.01657   1.01998
 Alpha virt. eigenvalues --    1.02611   1.02846   1.04692   1.05250   1.05792
 Alpha virt. eigenvalues --    1.06567   1.08568   1.09919   1.10542   1.11771
 Alpha virt. eigenvalues --    1.12216   1.13573   1.14570   1.15665   1.16465
 Alpha virt. eigenvalues --    1.17041   1.17999   1.19375   1.20065   1.22193
 Alpha virt. eigenvalues --    1.22393   1.22806   1.24362   1.24896   1.28417
 Alpha virt. eigenvalues --    1.29603   1.29721   1.30476   1.32316   1.32581
 Alpha virt. eigenvalues --    1.33425   1.34308   1.34762   1.35585   1.36324
 Alpha virt. eigenvalues --    1.38507   1.39731   1.40612   1.41440   1.42081
 Alpha virt. eigenvalues --    1.42721   1.44010   1.44964   1.46707   1.47092
 Alpha virt. eigenvalues --    1.47390   1.47972   1.48538   1.49480   1.51240
 Alpha virt. eigenvalues --    1.51855   1.52691   1.53979   1.54953   1.56624
 Alpha virt. eigenvalues --    1.58301   1.58788   1.59225   1.60120   1.61161
 Alpha virt. eigenvalues --    1.61497   1.62560   1.63803   1.64749   1.65101
 Alpha virt. eigenvalues --    1.65782   1.66010   1.67054   1.67982   1.68091
 Alpha virt. eigenvalues --    1.68896   1.70532   1.71281   1.71556   1.72183
 Alpha virt. eigenvalues --    1.73217   1.73244   1.75273   1.75598   1.78863
 Alpha virt. eigenvalues --    1.79000   1.79692   1.80769   1.82299   1.84286
 Alpha virt. eigenvalues --    1.85232   1.85582   1.85945   1.86340   1.89106
 Alpha virt. eigenvalues --    1.90236   1.90723   1.91437   1.92791   1.93086
 Alpha virt. eigenvalues --    1.93595   1.94710   1.95699   1.97444   1.98444
 Alpha virt. eigenvalues --    1.99022   2.01138   2.01731   2.02259   2.04015
 Alpha virt. eigenvalues --    2.05868   2.07315   2.07563   2.07936   2.11254
 Alpha virt. eigenvalues --    2.13250   2.15119   2.16126   2.16742   2.18770
 Alpha virt. eigenvalues --    2.20884   2.25234   2.26581   2.27489   2.28867
 Alpha virt. eigenvalues --    2.30855   2.32141   2.32334   2.36770   2.37321
 Alpha virt. eigenvalues --    2.38296   2.42603   2.43150   2.46336   2.49908
 Alpha virt. eigenvalues --    2.52477   2.55963   2.56935   2.58303   2.61242
 Alpha virt. eigenvalues --    2.61716   2.62168   2.63788   2.64197   2.65224
 Alpha virt. eigenvalues --    2.65550   2.66859   2.68513   2.69246   2.69592
 Alpha virt. eigenvalues --    2.72320   2.74715   2.75903   2.79126   2.79867
 Alpha virt. eigenvalues --    2.81455   2.87374   2.87700   2.90519   2.90912
 Alpha virt. eigenvalues --    2.94781   2.96291   3.02326   3.04251   3.05506
 Alpha virt. eigenvalues --    3.07034   3.09090   3.10220   3.10726   3.11825
 Alpha virt. eigenvalues --    3.13621   3.14013   3.15257   3.15757   3.17992
 Alpha virt. eigenvalues --    3.18241   3.20773   3.21943   3.22598   3.24155
 Alpha virt. eigenvalues --    3.26814   3.27435   3.28863   3.30756   3.33825
 Alpha virt. eigenvalues --    3.34332   3.35434   3.36256   3.36702   3.37699
 Alpha virt. eigenvalues --    3.38991   3.39852   3.41036   3.43026   3.48083
 Alpha virt. eigenvalues --    3.50093   3.51407   3.51849   3.52675   3.59470
 Alpha virt. eigenvalues --    3.59975   3.70570   3.74795   3.75276   3.78772
 Alpha virt. eigenvalues --    3.82176   3.86257   3.86520   3.90087   3.90650
 Alpha virt. eigenvalues --    3.90776   3.91867   3.92870   3.93302   3.93493
 Alpha virt. eigenvalues --    3.94581   3.94937   3.95237   3.95569   3.96351
 Alpha virt. eigenvalues --    3.96617   3.97271   3.97437   3.98362   3.98932
 Alpha virt. eigenvalues --    3.99322   3.99799   4.03293   4.05802   4.07681
 Alpha virt. eigenvalues --    4.08127   4.10265   4.15236   4.17537   4.21978
 Alpha virt. eigenvalues --    4.24469   4.26321   4.27078   4.32798   4.32921
 Alpha virt. eigenvalues --    4.33459   4.33735   4.37294   4.58119   4.87288
 Alpha virt. eigenvalues --    5.12515   5.21254   5.28329   5.34465   5.38267
 Alpha virt. eigenvalues --    5.47547   5.50847   5.54090   5.55492   5.82660
 Alpha virt. eigenvalues --    5.89379   6.09096   6.13287   6.44886   6.47235
 Alpha virt. eigenvalues --    6.49606   6.50762   6.52814   6.55299   6.56504
 Alpha virt. eigenvalues --    6.62212   6.63101   6.64386   6.68766   6.72232
 Alpha virt. eigenvalues --    6.73761   6.75497   6.81557   8.19010  10.04253
 Alpha virt. eigenvalues --   17.55693  17.60414  17.66517  23.53118  23.64411
 Alpha virt. eigenvalues --   23.72335  23.80313  23.87773  23.91161  23.98350
 Alpha virt. eigenvalues --   23.98875  24.00889  24.06424  24.12226  24.15143
 Alpha virt. eigenvalues --   24.22624  26.01528  26.32198  26.79761  35.73715
 Alpha virt. eigenvalues --   50.11485  50.20571  50.23789  50.29873  66.97143
 Alpha virt. eigenvalues --   66.97442  67.04115  67.05187  67.11424 189.47376
 Alpha virt. eigenvalues --  216.14353
          Condensed to atoms (all electrons):
               1          2          3          4          5          6
     1  C   47.263626   0.125101  -0.966700  -0.211146  -0.398486  -1.156486
     2  N    0.125101   7.682563   0.234248  -0.025509  -0.256151  -0.470888
     3  C   -0.966700   0.234248  11.039532   0.516886   0.376722  -0.876435
     4  O   -0.211146  -0.025509   0.516886   8.246952  -0.202870  -0.197628
     5  O   -0.398486  -0.256151   0.376722  -0.202870   8.414356   0.455518
     6  C   -1.156486  -0.470888  -0.876435  -0.197628   0.455518   9.170747
     7  C    0.057455   0.052966   0.254811   0.041859  -0.171660  -1.148289
     8  C   -0.034807  -0.012579  -0.297998   0.000372   0.027785   0.397950
     9  C  -12.986018  -0.268205  -1.997727  -0.116860  -0.164011  -0.107784
    10  C  -10.047571   0.161419  -1.033662  -0.015654  -0.007756  -0.072164
    11  C  -11.654348  -0.056474  -0.651730  -0.052588  -0.017537  -0.054481
    12  C  -10.626496   0.085745  -1.041056  -0.010379  -0.010004  -0.144902
    13  C    8.356244   0.101885   0.532979   0.383854   0.073225  -0.245966
    14  H   -0.076682   0.094608   0.065071   0.001403   0.025603   0.003393
    15  H    0.028984  -0.000758   0.052310  -0.001609  -0.045605   0.372221
    16  H   -0.022007   0.010616   0.038767  -0.000563  -0.051463   0.337136
    17  H    0.001238  -0.001039   0.006915  -0.000212   0.001292  -0.030700
    18  H   -0.001953  -0.001018  -0.003027  -0.000484   0.000364  -0.070849
    19  H   -0.000087  -0.000048  -0.003436  -0.000154  -0.000354  -0.057994
    20  H    0.000150   0.000023   0.007848   0.000026  -0.000843   0.093918
    21  H    0.000023  -0.000040  -0.000183  -0.000038  -0.000436  -0.030635
    22  H    0.047802  -0.008302   0.004412   0.000017   0.000041   0.000133
    23  Cl  -0.197178  -0.003810   0.002532  -0.001164   0.000643   0.002636
    24  H   -0.112468  -0.017267   0.108374  -0.032023   0.001807   0.008745
    25  S   -0.525834   0.012756  -0.127168  -0.001878  -0.000117  -0.004313
    26  H   -0.018540   0.001054   0.001684   0.000030   0.000003   0.000026
    27  F   -0.080276   0.001153   0.002090  -0.000008   0.000003   0.000048
    28  F    0.128857   0.000433   0.000664  -0.000005   0.000001   0.000000
    29  F   -0.340255  -0.000354  -0.006916   0.000000   0.000003  -0.000021
    30  F    0.000698  -0.000046  -0.001885   0.000001   0.000001  -0.000009
    31  F   -0.002588  -0.000070  -0.000145   0.000000  -0.000000  -0.000000
    32  O   -0.088393  -0.005686   0.002147  -0.000002   0.000443  -0.001526
    33  O    0.097378  -0.001840  -0.003789   0.000341   0.004758  -0.002509
    34  C   -0.287890  -0.001678   0.012678  -0.000514  -0.002569  -0.001247
    35  C   -0.176193  -0.015329   0.032284  -0.000017   0.000091   0.001417
    36  C    0.016979   0.003357  -0.004799  -0.000082  -0.000300   0.002187
    37  H    0.001462  -0.000043  -0.000149  -0.000000   0.000003  -0.000015
    38  H   -0.001864   0.000105   0.000207  -0.000000   0.000002   0.000003
    39  H   -0.000312   0.000112   0.000112   0.000000  -0.000006   0.000088
    40  H    0.000049  -0.000034   0.000006   0.000000   0.000000  -0.000016
    41  H    0.000147   0.000145  -0.000131   0.000000  -0.000009   0.000010
               7          8          9         10         11         12
     1  C    0.057455  -0.034807 -12.986018 -10.047571 -11.654348 -10.626496
     2  N    0.052966  -0.012579  -0.268205   0.161419  -0.056474   0.085745
     3  C    0.254811  -0.297998  -1.997727  -1.033662  -0.651730  -1.041056
     4  O    0.041859   0.000372  -0.116860  -0.015654  -0.052588  -0.010379
     5  O   -0.171660   0.027785  -0.164011  -0.007756  -0.017537  -0.010004
     6  C   -1.148289   0.397950  -0.107784  -0.072164  -0.054481  -0.144902
     7  C    6.628656  -0.251112   0.046688  -0.001600   0.003776   0.001776
     8  C   -0.251112   6.180319  -0.004703  -0.000730  -0.000398  -0.002173
     9  C    0.046688  -0.004703  41.713497  -4.918930  10.089923  -2.344636
    10  C   -0.001600  -0.000730  -4.918930  42.396249 -15.124464  -6.371623
    11  C    0.003776  -0.000398  10.089923 -15.124464  48.092184  -5.939014
    12  C    0.001776  -0.002173  -2.344636  -6.371623  -5.939014  32.881550
    13  C   -0.031223  -0.004097 -23.495311   4.213372 -20.261119   0.208853
    14  H    0.000757  -0.000490  -0.017026   0.023679  -0.005623   0.003477
    15  H   -0.047275  -0.021018   0.000810   0.000090   0.000084  -0.001592
    16  H    0.010660  -0.026971  -0.000829  -0.000248   0.000261   0.003060
    17  H    0.413198  -0.055784  -0.000812  -0.000013  -0.000003  -0.000017
    18  H    0.470381  -0.059287   0.000640   0.000020   0.000000   0.000019
    19  H    0.031217   0.371313   0.000052   0.000000   0.000000   0.000002
    20  H   -0.154067   0.401897   0.000000   0.000001  -0.000000  -0.000002
    21  H   -0.003397   0.376793  -0.000031  -0.000001   0.000000  -0.000001
    22  H   -0.000006   0.000000   0.296669  -0.110873  -0.004578  -0.010045
    23  Cl  -0.000253   0.000040   0.391736  -0.672637   1.334094  -1.412998
    24  H   -0.001271   0.000112   0.000482  -0.032812   0.113540   0.025279
    25  S   -0.000009  -0.000024  -0.318774  -1.363036  -0.109119  -0.064671
    26  H   -0.000000   0.000000  -0.122005   0.076341  -0.032665   0.215880
    27  F   -0.000001   0.000000  -0.009557  -0.077907   0.212413   0.081424
    28  F   -0.000000   0.000000   0.165800   0.145771  -0.266826  -0.163926
    29  F   -0.000000   0.000000  -0.132318   0.238505   0.228102   0.096443
    30  F    0.000000   0.000000   0.010015   0.335944  -0.229453  -0.111880
    31  F    0.000000  -0.000000   0.069754  -0.010631   0.031458  -0.037026
    32  O    0.000081  -0.000020   0.074587   0.027251   0.005409   0.002236
    33  O    0.001563   0.000336  -0.120217  -0.026104  -0.005977   0.001981
    34  C   -0.000587  -0.000437   0.254544   0.085807   0.032707   0.014416
    35  C    0.001155   0.000038   0.113750   0.029321   0.016531  -0.000576
    36  C   -0.000740  -0.000065  -0.017181  -0.005139   0.000120   0.000841
    37  H    0.000002   0.000000  -0.002084  -0.000444   0.000016   0.000019
    38  H    0.000007   0.000000   0.002825   0.000331  -0.000040  -0.000039
    39  H    0.000036   0.000018   0.000192  -0.000016  -0.000003  -0.000006
    40  H   -0.000003  -0.000001   0.000043   0.000020  -0.000001  -0.000000
    41  H    0.000008   0.000016  -0.000404  -0.000066   0.000008   0.000006
              13         14         15         16         17         18
     1  C    8.356244  -0.076682   0.028984  -0.022007   0.001238  -0.001953
     2  N    0.101885   0.094608  -0.000758   0.010616  -0.001039  -0.001018
     3  C    0.532979   0.065071   0.052310   0.038767   0.006915  -0.003027
     4  O    0.383854   0.001403  -0.001609  -0.000563  -0.000212  -0.000484
     5  O    0.073225   0.025603  -0.045605  -0.051463   0.001292   0.000364
     6  C   -0.245966   0.003393   0.372221   0.337136  -0.030700  -0.070849
     7  C   -0.031223   0.000757  -0.047275   0.010660   0.413198   0.470381
     8  C   -0.004097  -0.000490  -0.021018  -0.026971  -0.055784  -0.059287
     9  C  -23.495311  -0.017026   0.000810  -0.000829  -0.000812   0.000640
    10  C    4.213372   0.023679   0.000090  -0.000248  -0.000013   0.000020
    11  C  -20.261119  -0.005623   0.000084   0.000261  -0.000003   0.000000
    12  C    0.208853   0.003477  -0.001592   0.003060  -0.000017   0.000019
    13  C   37.183377   0.007046  -0.015140   0.016914   0.000176   0.000068
    14  H    0.007046   0.260201  -0.000023   0.000087  -0.000030  -0.000003
    15  H   -0.015140  -0.000023   0.485446  -0.046877   0.005889  -0.008083
    16  H    0.016914   0.000087  -0.046877   0.496741  -0.010610   0.005984
    17  H    0.000176  -0.000030   0.005889  -0.010610   0.449882  -0.030363
    18  H    0.000068  -0.000003  -0.008083   0.005984  -0.030363   0.438950
    19  H   -0.000031   0.000000  -0.000926   0.005340  -0.008509   0.006313
    20  H    0.000003  -0.000000  -0.000164  -0.000262  -0.003692  -0.003528
    21  H   -0.000008  -0.000000   0.004649  -0.001025   0.006392  -0.008222
    22  H    0.033112   0.004289  -0.000000   0.000000  -0.000000  -0.000000
    23  Cl  -0.398583  -0.000143  -0.000012   0.000035   0.000000   0.000000
    24  H    0.243508  -0.000363  -0.000044  -0.000077  -0.000000  -0.000000
    25  S    0.004544   0.001326  -0.000002   0.000002  -0.000000   0.000000
    26  H    0.138385   0.000000   0.000000  -0.000000   0.000000   0.000000
    27  F   -0.035028   0.000019  -0.000000   0.000000  -0.000000   0.000000
    28  F    0.024600  -0.000002  -0.000000   0.000000   0.000000   0.000000
    29  F   -0.051652   0.000101  -0.000000   0.000000  -0.000000   0.000000
    30  F    0.033130   0.000006  -0.000000   0.000000  -0.000000   0.000000
    31  F   -0.008938  -0.000002  -0.000000   0.000000  -0.000000  -0.000000
    32  O   -0.033940   0.022187   0.000001  -0.000000   0.000001  -0.000001
    33  O    0.048289   0.050191   0.000029  -0.000018   0.000027  -0.000044
    34  C   -0.121550  -0.001541   0.000140  -0.000077   0.000090  -0.000034
    35  C   -0.062964   0.022559   0.000039  -0.000028   0.000006  -0.000134
    36  C    0.004495  -0.003162  -0.000008   0.000009  -0.000003   0.000117
    37  H    0.000153   0.000010  -0.000000   0.000000  -0.000000   0.000000
    38  H   -0.000139  -0.000031   0.000000   0.000000  -0.000000  -0.000000
    39  H   -0.000029  -0.000099   0.000000  -0.000000  -0.000000  -0.000002
    40  H    0.000000   0.000019   0.000000  -0.000000   0.000000   0.000000
    41  H    0.000028  -0.000097   0.000000  -0.000000  -0.000000  -0.000002
              19         20         21         22         23         24
     1  C   -0.000087   0.000150   0.000023   0.047802  -0.197178  -0.112468
     2  N   -0.000048   0.000023  -0.000040  -0.008302  -0.003810  -0.017267
     3  C   -0.003436   0.007848  -0.000183   0.004412   0.002532   0.108374
     4  O   -0.000154   0.000026  -0.000038   0.000017  -0.001164  -0.032023
     5  O   -0.000354  -0.000843  -0.000436   0.000041   0.000643   0.001807
     6  C   -0.057994   0.093918  -0.030635   0.000133   0.002636   0.008745
     7  C    0.031217  -0.154067  -0.003397  -0.000006  -0.000253  -0.001271
     8  C    0.371313   0.401897   0.376793   0.000000   0.000040   0.000112
     9  C    0.000052   0.000000  -0.000031   0.296669   0.391736   0.000482
    10  C    0.000000   0.000001  -0.000001  -0.110873  -0.672637  -0.032812
    11  C    0.000000  -0.000000   0.000000  -0.004578   1.334094   0.113540
    12  C    0.000002  -0.000002  -0.000001  -0.010045  -1.412998   0.025279
    13  C   -0.000031   0.000003  -0.000008   0.033112  -0.398583   0.243508
    14  H    0.000000  -0.000000  -0.000000   0.004289  -0.000143  -0.000363
    15  H   -0.000926  -0.000164   0.004649  -0.000000  -0.000012  -0.000044
    16  H    0.005340  -0.000262  -0.001025   0.000000   0.000035  -0.000077
    17  H   -0.008509  -0.003692   0.006392  -0.000000   0.000000  -0.000000
    18  H    0.006313  -0.003528  -0.008222  -0.000000   0.000000  -0.000000
    19  H    0.475907  -0.026128  -0.037829  -0.000000  -0.000000  -0.000000
    20  H   -0.026128   0.451189  -0.025953   0.000000   0.000000   0.000000
    21  H   -0.037829  -0.025953   0.472535  -0.000000  -0.000000  -0.000000
    22  H   -0.000000   0.000000  -0.000000   0.307550   0.000322  -0.000002
    23  Cl  -0.000000   0.000000  -0.000000   0.000322  17.628507  -0.007444
    24  H   -0.000000   0.000000  -0.000000  -0.000002  -0.007444   0.383181
    25  S    0.000000   0.000000  -0.000000   0.034905  -0.016463   0.000963
    26  H   -0.000000   0.000000   0.000000  -0.000041  -0.026201  -0.000318
    27  F    0.000000   0.000000  -0.000000   0.002781  -0.000191  -0.000001
    28  F    0.000000   0.000000  -0.000000  -0.000572  -0.001086   0.000001
    29  F    0.000000  -0.000000  -0.000000  -0.000675  -0.000342  -0.000007
    30  F    0.000000   0.000000  -0.000000  -0.000366  -0.001737  -0.000005
    31  F    0.000000  -0.000000  -0.000000  -0.000939   0.000203   0.000000
    32  O   -0.000000  -0.000000   0.000000   0.003846  -0.000044  -0.000006
    33  O   -0.000000   0.000000   0.000001   0.001809   0.000009   0.000006
    34  C   -0.000001  -0.000000   0.000002   0.003797  -0.000081   0.000042
    35  C   -0.000001   0.000001  -0.000000   0.003781  -0.000065   0.000005
    36  C    0.000001  -0.000002   0.000000   0.000208   0.000003   0.000003
    37  H    0.000000  -0.000000  -0.000000   0.000024  -0.000000   0.000000
    38  H   -0.000000  -0.000000   0.000000  -0.000092  -0.000000  -0.000000
    39  H   -0.000000   0.000000  -0.000000  -0.000002   0.000000  -0.000000
    40  H    0.000000   0.000000   0.000000  -0.000000   0.000000  -0.000000
    41  H   -0.000000   0.000000  -0.000000   0.000002  -0.000000   0.000000
              25         26         27         28         29         30
     1  C   -0.525834  -0.018540  -0.080276   0.128857  -0.340255   0.000698
     2  N    0.012756   0.001054   0.001153   0.000433  -0.000354  -0.000046
     3  C   -0.127168   0.001684   0.002090   0.000664  -0.006916  -0.001885
     4  O   -0.001878   0.000030  -0.000008  -0.000005   0.000000   0.000001
     5  O   -0.000117   0.000003   0.000003   0.000001   0.000003   0.000001
     6  C   -0.004313   0.000026   0.000048   0.000000  -0.000021  -0.000009
     7  C   -0.000009  -0.000000  -0.000001  -0.000000  -0.000000   0.000000
     8  C   -0.000024   0.000000   0.000000   0.000000   0.000000   0.000000
     9  C   -0.318774  -0.122005  -0.009557   0.165800  -0.132318   0.010015
    10  C   -1.363036   0.076341  -0.077907   0.145771   0.238505   0.335944
    11  C   -0.109119  -0.032665   0.212413  -0.266826   0.228102  -0.229453
    12  C   -0.064671   0.215880   0.081424  -0.163926   0.096443  -0.111880
    13  C    0.004544   0.138385  -0.035028   0.024600  -0.051652   0.033130
    14  H    0.001326   0.000000   0.000019  -0.000002   0.000101   0.000006
    15  H   -0.000002   0.000000  -0.000000  -0.000000  -0.000000  -0.000000
    16  H    0.000002  -0.000000   0.000000   0.000000   0.000000   0.000000
    17  H   -0.000000   0.000000  -0.000000   0.000000  -0.000000  -0.000000
    18  H    0.000000   0.000000   0.000000   0.000000   0.000000   0.000000
    19  H    0.000000  -0.000000   0.000000   0.000000   0.000000   0.000000
    20  H    0.000000   0.000000   0.000000   0.000000  -0.000000   0.000000
    21  H   -0.000000   0.000000  -0.000000  -0.000000  -0.000000  -0.000000
    22  H    0.034905  -0.000041   0.002781  -0.000572  -0.000675  -0.000366
    23  Cl  -0.016463  -0.026201  -0.000191  -0.001086  -0.000342  -0.001737
    24  H    0.000963  -0.000318  -0.000001   0.000001  -0.000007  -0.000005
    25  S   17.718835   0.066509   0.007071   0.049949   0.093463   0.030976
    26  H    0.066509   0.411961   0.000199   0.000089   0.000430   0.001057
    27  F    0.007071   0.000199   8.941211  -0.012957  -0.023109  -0.032403
    28  F    0.049949   0.000089  -0.012957   8.997651  -0.027374  -0.011631
    29  F    0.093463   0.000430  -0.023109  -0.027374   8.902843  -0.014545
    30  F    0.030976   0.001057  -0.032403  -0.011631  -0.014545   9.013209
    31  F   -0.067914  -0.000838  -0.000737  -0.006094  -0.009597  -0.009729
    32  O    0.015377   0.000005  -0.000943  -0.000062   0.008338   0.000265
    33  O    0.000334   0.000000  -0.000201  -0.000000  -0.000163   0.000001
    34  C   -0.015771  -0.000008  -0.000029  -0.000263   0.002953  -0.000054
    35  C   -0.003524  -0.000000   0.002022   0.000017   0.000052  -0.000135
    36  C   -0.001424  -0.000000   0.000021   0.000000   0.000111  -0.000000
    37  H   -0.000050  -0.000000  -0.000001  -0.000000  -0.000008   0.000000
    38  H    0.000140   0.000000  -0.000006  -0.000000  -0.000012   0.000000
    39  H    0.000001   0.000000  -0.000000  -0.000000  -0.000000   0.000000
    40  H    0.000003   0.000000   0.000000   0.000000  -0.000000  -0.000000
    41  H   -0.000003  -0.000000  -0.000000  -0.000000  -0.000000  -0.000000
              31         32         33         34         35         36
     1  C   -0.002588  -0.088393   0.097378  -0.287890  -0.176193   0.016979
     2  N   -0.000070  -0.005686  -0.001840  -0.001678  -0.015329   0.003357
     3  C   -0.000145   0.002147  -0.003789   0.012678   0.032284  -0.004799
     4  O    0.000000  -0.000002   0.000341  -0.000514  -0.000017  -0.000082
     5  O   -0.000000   0.000443   0.004758  -0.002569   0.000091  -0.000300
     6  C   -0.000000  -0.001526  -0.002509  -0.001247   0.001417   0.002187
     7  C    0.000000   0.000081   0.001563  -0.000587   0.001155  -0.000740
     8  C   -0.000000  -0.000020   0.000336  -0.000437   0.000038  -0.000065
     9  C    0.069754   0.074587  -0.120217   0.254544   0.113750  -0.017181
    10  C   -0.010631   0.027251  -0.026104   0.085807   0.029321  -0.005139
    11  C    0.031458   0.005409  -0.005977   0.032707   0.016531   0.000120
    12  C   -0.037026   0.002236   0.001981   0.014416  -0.000576   0.000841
    13  C   -0.008938  -0.033940   0.048289  -0.121550  -0.062964   0.004495
    14  H   -0.000002   0.022187   0.050191  -0.001541   0.022559  -0.003162
    15  H   -0.000000   0.000001   0.000029   0.000140   0.000039  -0.000008
    16  H    0.000000  -0.000000  -0.000018  -0.000077  -0.000028   0.000009
    17  H   -0.000000   0.000001   0.000027   0.000090   0.000006  -0.000003
    18  H   -0.000000  -0.000001  -0.000044  -0.000034  -0.000134   0.000117
    19  H    0.000000  -0.000000  -0.000000  -0.000001  -0.000001   0.000001
    20  H   -0.000000  -0.000000   0.000000  -0.000000   0.000001  -0.000002
    21  H   -0.000000   0.000000   0.000001   0.000002  -0.000000   0.000000
    22  H   -0.000939   0.003846   0.001809   0.003797   0.003781   0.000208
    23  Cl   0.000203  -0.000044   0.000009  -0.000081  -0.000065   0.000003
    24  H    0.000000  -0.000006   0.000006   0.000042   0.000005   0.000003
    25  S   -0.067914   0.015377   0.000334  -0.015771  -0.003524  -0.001424
    26  H   -0.000838   0.000005   0.000000  -0.000008  -0.000000  -0.000000
    27  F   -0.000737  -0.000943  -0.000201  -0.000029   0.002022   0.000021
    28  F   -0.006094  -0.000062  -0.000000  -0.000263   0.000017   0.000000
    29  F   -0.009597   0.008338  -0.000163   0.002953   0.000052   0.000111
    30  F   -0.009729   0.000265   0.000001  -0.000054  -0.000135  -0.000000
    31  F    9.045268  -0.000059  -0.000000  -0.000576   0.000169  -0.000001
    32  O   -0.000059   8.535105  -0.199313   0.379009  -0.228119   0.031047
    33  O   -0.000000  -0.199313   8.453199   0.297691  -0.216887   0.065711
    34  C   -0.000576   0.379009   0.297691   6.176913  -1.084667   0.265022
    35  C    0.000169  -0.228119  -0.216887  -1.084667   7.699190  -0.591194
    36  C   -0.000001   0.031047   0.065711   0.265022  -0.591194   6.124833
    37  H   -0.000000  -0.005773  -0.000232  -0.074644   0.475041  -0.064824
    38  H   -0.000000  -0.005111   0.000370  -0.021036   0.417229  -0.065566
[...]
 14098,-0.00717287,0.00422728,-0.00472082,-0.01432576,-0.03316463,-0.01
 587480,-0.11041957,-0.11619621,0.00146976,0.00346921,0.00766518,0.0184
 5698,0.11945665,-0.00010845,0.00004064,-0.00000170,0.00001924,-0.00011
 050,0.00005760,0.00002349,0.00008715,-0.00003410,-0.00001620,-0.000075
 36,0.00002011,-0.00001041,-0.00004534,0.00002928,0.00003214,0.00001314
 ,-0.00001397,-0.00000279,0.00000708,-0.00002105,0.00000597,-0.00000295
 ,0.00000424,0.00005183,0.00000325,0.00000022,-0.00003591,0.00000785,0.
 00001448,0.00001802,-0.00002218,-0.00000045,-0.00000553,0.00003255,-0.
 00000004,0.00001732,-0.00002478,0.00000164,0.00004390,0.00018069,-0.00
 012716,-0.00000352,-0.00000077,-0.00000172,-0.00000232,-0.00000828,0.0
 0000752,0.00000256,0.00000161,-0.00000542,0.00001234,0.00000390,0.0000
 1427,-0.00000434,-0.00000646,0.00000638,-0.00000257,0.00000319,-0.0000
 0319,-0.00000147,-0.00000038,-0.00000137,-0.00001754,-0.00000586,0.000
 00060,0.00000523,-0.00002205,0.00000019,-0.00000409,0.00000395,-0.0000
 0298,-0.00016401,-0.00006659,-0.00015771,-0.00000104,-0.00000251,-0.00
 000170,0.00004358,-0.00001251,0.00004896,0.00002754,0.00000332,0.00000
 807,0.00001905,0.00004855,0.00005394,0.00003901,0.00000443,0.00002840,
 0.00004435,0.00002763,0.00001897,0.00121562,0.00048215,0.00105522,0.00
 130078,0.00049839,-0.00012768,-0.00190462,0.00427756,0.00422307,-0.031
 80528,-0.11390783,-0.24037749,-0.00123877,-0.00443297,-0.00874774,0.03
 735676,0.12259169,0.26163963,-0.00014154,0.00005736,0.00001873,0.00014
 506,-0.00014761,-0.00001204,-0.00021090,0.00008718,0.00002311,0.000044
 74,-0.00005574,-0.00000199,0.00012750,-0.00010535,-0.00001206,-0.00004
 046,0.00002269,0.00000733,0.00000598,0.00002385,-0.00000852,0.00001227
 ,-0.00001393,0.00000198,0.00003717,0.00002222,-0.00001308,-0.00000557,
 0.00000450,0.00000408,0.00002350,-0.00000209,-0.00000850,-0.00002151,0
 .00000640,0.00000533,0.00003371,-0.00003405,-0.00000289,-0.00004069,0.
 00020098,-0.00000177,0.00000466,-0.00000821,-0.00000568,0.00000704,-0.
 00000749,0.00000511,0.00000136,0.00000633,-0.00003415,0.00001756,0.000
 02035,0.00003209,-0.00000779,-0.00000652,0.00000926,0.00000925,0.00000
 366,-0.00000206,-0.00000895,-0.00000788,-0.00000561,0.00000724,-0.0001
 2047,-0.00001145,0.00000347,0.00000233,-0.00000181,-0.00000834,0.00000
 693,0.00000306,0.00001477,-0.00009191,0.00004186,-0.00000070,0.0000001
 3,0.00000169,-0.00001322,0.00003268,-0.00002651,0.00000600,0.00000975,
 -0.00001210,-0.00000145,0.00001916,0.00000485,0.00000003,0.00001406,-0
 .00000576,-0.00000538,0.00000746,-0.00000522,0.00004981,0.00107315,0.0
 0003072,0.00088875,-0.00028950,0.00063209,0.00166880,0.00063720,-0.004
 78784,-0.17332328,-0.05968073,0.11687944,-0.02149500,-0.00961853,0.019
 51130,0.00289704,0.00209973,-0.00245026,0.19219604,-0.00030001,0.00008
 672,0.00002480,0.00001664,-0.00075151,0.00032805,0.00025731,0.00011360
 ,-0.00003871,-0.00009889,-0.00015138,0.00001530,-0.00009445,-0.0000057
 1,0.00002121,0.00008209,0.00001274,-0.00001205,-0.00000546,-0.00000522
 ,0.00000151,0.00000003,0.00000604,-0.00000017,0.00010651,-0.00001678,0
 .00001662,-0.00009281,0.00000283,-0.00001619,0.00006302,-0.00003712,-0
 .00000445,-0.00002309,0.00003420,-0.00000650,0.00004889,-0.00006485,-0
 .00002150,0.00012537,0.00110175,-0.00069026,-0.00001078,-0.00000519,-0
 .00000058,-0.00001015,-0.00000454,0.00000432,0.00000466,-0.00000285,-0
 .00000033,0.00000398,-0.00000288,-0.00000119,0.00000016,-0.00000134,0.
 00000013,-0.00000701,0.00000188,0.00000106,-0.00000054,-0.00000209,-0.
 00000023,-0.00006001,0.00011428,0.00001332,0.00001045,-0.00002324,0.00
 000030,-0.00000679,0.00000479,0.00000334,-0.00003285,-0.00032847,0.000
 31018,-0.00000122,-0.00000825,0.00000177,-0.00004613,0.00017948,-0.000
 16427,0.00003019,0.00004297,-0.00004710,0.00002625,0.00005350,-0.00003
 737,0.00002810,0.00002669,-0.00001987,-0.00000326,0.00004107,-0.000038
 46,0.00283933,0.00070860,-0.00382167,0.00176121,-0.00632710,-0.0032063
 9,-0.02585350,-0.00864612,0.02472686,-0.06182188,-0.07329123,0.0599034
 1,0.00577443,0.00180504,-0.00501931,0.01254771,0.00564391,-0.01117345,
 0.06425380,0.07916033,0.00015993,-0.00003580,-0.00001415,-0.00002979,0
 .00031449,-0.00003795,-0.00012445,-0.00010541,0.00002797,0.00004732,0.
 00009976,-0.00001853,0.00006302,0.00002582,-0.00000166,-0.00006332,-0.
 00001048,0.00000742,0.00000012,-0.00000439,-0.00001051,-0.00000078,-0.
 00000213,0.00000354,-0.00008329,0.00000816,0.00000873,0.00008136,-0.00
 000605,-0.00000115,-0.00003886,0.00004220,0.00000417,0.00000108,-0.000
 04192,-0.00000195,-0.00002190,0.00003140,0.00000211,-0.00001203,-0.000
 49611,0.00008564,0.00000764,0.00000534,0.00000306,0.00000666,0.0000000
 9,-0.00000420,-0.00000711,0.00000406,0.00000214,0.00000021,0.00000667,
 0.00000440,-0.00000067,0.00000025,-0.00000129,0.00000541,-0.00000275,-
 0.00000168,0.00000175,0.00000329,0.00000187,0.00005817,-0.00013103,-0.
 00003038,-0.00000800,0.00002996,0.00000180,0.00000448,-0.00000276,-0.0
 0000131,0.00020627,0.00024971,-0.00007128,0.00000177,0.00000783,-0.000
 00008,-0.00002815,-0.00008520,0.00004554,-0.00004616,-0.00002702,0.000
 02232,-0.00003728,-0.00006332,-0.00000745,-0.00004897,-0.00002444,-0.0
 0000373,-0.00005984,-0.00006235,0.00001296,-0.00237035,0.00074267,0.00
 086787,-0.00042655,0.00080737,-0.00024952,0.00471848,-0.00103747,-0.00
 331651,0.11731887,0.05626183,-0.15400706,-0.01066404,-0.00506792,0.009
 50760,0.01975103,0.01028175,-0.01912407,-0.12672191,-0.06144115,0.1649
 7078,-0.00014751,0.00006565,0.00001650,0.00014250,-0.00004609,-0.00004
 058,-0.00022062,0.00012045,0.00003967,0.00004310,-0.00006284,-0.000006
 04,0.00009357,-0.00012417,-0.00003296,0.00002079,0.00002015,-0.0000003
 5,-0.00001631,0.00001945,0.00004244,0.00001225,-0.00001870,-0.00001177
 ,0.00001956,0.00004109,-0.00001307,-0.00001480,0.00001121,-0.00000536,
 0.00002952,-0.00000635,-0.00000097,-0.00002094,0.00000567,0.00000075,0
 .00003133,-0.00002947,-0.00000044,-0.00001913,0.00008899,0.00001975,-0
 .00000286,-0.00001106,-0.00000687,-0.00000159,0.00000198,0.00000372,-0
 .00000459,-0.00002903,-0.00001663,0.00003044,0.00001249,0.00000425,-0.
 00000391,0.00000044,0.00000254,-0.00000156,0.00000422,0.00000397,-0.00
 001084,-0.00000896,-0.00000295,-0.00000406,-0.00005547,0.00000365,0.00
 000424,0.00000509,-0.00000076,-0.00000806,0.00000705,0.00000332,0.0000
 0373,-0.00022755,0.00008832,-0.00000186,-0.00000075,0.00000077,-0.0000
 1666,0.00008483,-0.00005707,0.00000703,0.00003230,-0.00000806,0.000006
 66,0.00004765,0.00000162,0.00000118,0.00003226,-0.00001385,-0.00000115
 ,0.00003073,-0.00001157,0.00075772,0.00075262,-0.00009312,0.00215057,0
 .00085393,-0.00019686,-0.00154942,-0.00294077,0.00017868,-0.02287897,-
 0.00942227,0.02072042,-0.17576963,-0.06037048,0.12057519,0.00115889,-0
 .00061779,-0.00023146,-0.00501562,0.00159168,-0.00335868,0.19429757,0.
 00015875,-0.00004451,-0.00001997,-0.00006919,0.00025462,-0.00003977,0.
 00005886,-0.00019280,0.00001824,0.00001728,0.00015353,-0.00002307,0.00
 000195,0.00013524,-0.00002429,-0.00013027,-0.00004856,0.00002347,0.000
 00080,-0.00004448,0.00002680,-0.00001499,0.00001627,-0.00000695,-0.000
 06160,-0.00000858,0.00001383,0.00003765,-0.00001032,-0.00000174,-0.000
 02236,0.00003395,-0.00000167,0.00000700,-0.00004526,0.00000375,-0.0000
 2662,0.00003863,0.00000078,0.00000037,-0.00042587,0.00010954,0.0000156
 6,0.00001138,0.00000470,0.00001097,0.00001457,-0.00001363,-0.00005921,
 -0.00002712,0.00003864,-0.00004444,-0.00001081,-0.00001956,0.00001172,
 0.00000841,-0.00000715,0.00002212,-0.00000684,0.00000029,0.00000983,0.
 00000392,0.00000073,0.00003075,-0.00005802,-0.00000721,-0.00000674,0.0
 0003256,0.00000050,0.00000620,-0.00000554,-0.00000082,0.00012670,0.000
 00927,-0.00002098,0.00000080,0.00000237,0.00000019,-0.00001611,-0.0000
 1010,0.00001119,-0.00002848,0.00000512,0.00001982,-0.00002171,-0.00000
 382,0.00000120,-0.00003311,0.00000717,-0.00001402,-0.00002782,-0.00001
 261,0.00000349,-0.00052735,0.00001363,-0.00016105,-0.00049682,-0.00018
 310,0.00013712,0.00140451,0.00039711,-0.00036832,0.00390150,0.00179926
 ,-0.00447878,-0.06210112,-0.07624690,0.05755844,-0.00058297,0.00005969
 ,-0.00002283,0.00149054,0.00022188,0.00027399,0.06692069,0.07828136,0.
 00009991,-0.00005791,-0.00001061,-0.00018649,-0.00004202,0.00003053,0.
 00036661,-0.00010718,-0.00002976,-0.00008928,0.00004906,0.00000695,-0.
 00022568,0.00013975,-0.00002464,0.00009586,-0.00003547,-0.00001945,0.0
 0000265,-0.00002357,0.00011351,-0.00002635,0.00002337,-0.00003305,-0.0
 0001841,-0.00002187,0.00000075,0.00000195,-0.00000467,0.00000336,-0.00
 002136,0.00000126,0.00000315,0.00001783,-0.00000423,-0.00000209,-0.000
 02068,0.00002652,0.00000013,0.00002800,0.00006805,-0.00001803,-0.00000
 921,0.00000340,0.00000630,-0.00001959,0.00002189,-0.00000951,0.0000222
 4,-0.00000016,0.00002388,-0.00006039,-0.00006500,-0.00007934,0.0000205
 0,0.00001864,-0.00001895,-0.00001671,-0.00000569,0.00001096,0.00000884
 ,0.00000623,0.00000798,-0.00000166,0.00004594,0.00000403,-0.00000281,-
 0.00000437,0.00000118,0.00000915,-0.00000646,-0.00000248,0.00000055,0.
 00009469,-0.00004395,0.00000071,-0.00000010,-0.00000103,0.00000845,-0.
 00003685,0.00002847,-0.00000509,-0.00001185,0.00001023,-0.00000091,-0.
 00002334,-0.00000317,-0.00000301,-0.00001249,0.00000529,0.00000058,-0.
 00001162,0.00000447,-0.00002051,-0.00057042,-0.00024903,-0.00125641,-0
 .00014630,-0.00003474,0.00082299,0.00131208,0.00059896,-0.00994081,-0.
 00505297,0.00938451,0.12184801,0.05625363,-0.15987928,0.00073636,-0.00
 049647,0.00084946,-0.00307475,0.00081550,0.00010419,-0.12991863,-0.063
 15925,0.17113128,-0.00004626,0.00005547,-0.00000127,0.00014557,0.00018
 137,-0.00005237,-0.00034651,-0.00000395,0.00005261,0.00009130,0.000035
 31,-0.00001735,0.00017539,-0.00009437,-0.00000660,-0.00005981,0.000011
 30,0.00000437,0.00000087,0.00002831,-0.00001065,0.00001342,-0.00002238
 ,0.00000296,-0.00006253,0.00009660,0.00004104,0.00007510,0.00001332,-0
 .00000300,-0.00000268,0.00004287,-0.00000175,-0.00003165,-0.00004279,0
 .00000431,0.00002746,-0.00000505,-0.00000331,-0.00001826,-0.00031508,0
 .00005138,0.00000851,-0.00000120,-0.00000350,0.00000902,-0.00000325,0.
 00000239,0.00000666,0.00000227,-0.00002501,0.00002939,0.00001637,0.000
 02276,-0.00000883,-0.00000303,0.00000517,0.00000248,0.00000210,-0.0000
 0038,-0.00000773,-0.00000307,-0.00000193,0.00005789,-0.00031494,-0.000
 08062,-0.00000260,0.00004350,0.00000164,-0.00000554,0.00000753,0.00000
 047,0.00022538,-0.00012042,-0.00009376,-0.00000105,0.00000831,-0.00000
 121,-0.00003655,0.00001833,0.00001322,-0.00004625,0.00002492,0.0000396
 6,-0.00004441,0.00004499,0.00003923,-0.00004933,0.00002868,-0.00001389
 ,-0.00005995,-0.00001135,0.00001553,-0.00199364,0.00334633,-0.00125375
 ,0.00179115,0.00061862,0.00038130,-0.00509304,-0.00526449,-0.00162409,
 -0.00320725,0.03327291,-0.00424484,-0.05298872,0.03485125,-0.00472781,
 0.00123804,-0.00074096,-0.00010570,0.00091562,-0.00034169,0.00101452,0
 .00404166,-0.02247034,0.00116542,0.05646799,-0.00023646,0.00004764,0.0
 0002953,-0.00002981,-0.00056591,0.00011082,0.00026215,0.00027941,-0.00
 009012,-0.00011334,-0.00025234,0.00005179,-0.00015979,-0.00008386,0.00
 005135,0.00017971,0.00004486,-0.00003447,-0.00001316,0.00001816,-0.000
 01462,0.00001799,-0.00001054,0.00000464,0.00013099,-0.00001545,-0.0000
 3410,-0.00009916,0.00000952,0.00001262,0.00003053,-0.00009088,-0.00000
 696,0.00001353,0.00011788,0.00000029,0.00002336,-0.00005824,-0.0000037
 4,0.00006259,0.00098420,-0.00021566,-0.00002017,-0.00001473,-0.0000070
 4,-0.00001773,-0.00001543,0.00001715,0.00001850,-0.00000154,-0.0000233
 2,0.00004217,0.00000686,0.00002122,-0.00001017,-0.00000886,0.00000738,
 -0.00002155,0.00001260,0.00000276,-0.00000827,-0.00001006,-0.00000343,
 -0.00010017,0.00029600,0.00004835,0.00001288,-0.00009473,-0.00000367,-
 0.00000543,0.00000467,0.00000110,-0.00042601,0.00013189,0.00007263,-0.
 00000057,-0.00000815,0.00000065,0.00007489,-0.00002825,-0.00000205,0.0
 0008956,-0.00003612,-0.00006237,0.00007444,-0.00003667,-0.00003028,0.0
 0009955,-0.00003808,0.00003441,0.00010219,0.00002191,-0.00001431,0.001
 73072,-0.00092391,0.00086793,0.00153955,-0.00092040,0.00085581,-0.0014
 8293,0.00125988,-0.00085904,-0.00110932,-0.00352038,-0.00021805,0.0347
 6285,-0.29604508,0.04050061,0.00039698,0.00030344,0.00058731,0.0006663
 4,0.00016117,-0.00025669,0.00111940,-0.00939779,0.00068932,-0.03923313
 ,0.32304366,0.00001810,0.00000612,-0.00000532,0.00002033,0.00009965,0.
 00000475,-0.00006406,-0.00007365,0.00000444,0.00002651,0.00006124,-0.0
 0000987,0.00004377,0.00002761,0.00001052,-0.00004175,-0.00001325,0.000
 00488,-0.00000020,-0.00000841,-0.00001487,-0.00000543,0.00000655,0.000
 00621,-0.00003860,0.00003739,0.00001883,0.00003519,0.00000450,-0.00000
 318,-0.00000585,0.00002352,0.00000016,-0.00001001,-0.00002909,0.000000
 74,0.00000504,0.00000967,-0.00000119,0.00001292,-0.00017841,0.00000009
 ,0.00000624,0.00000842,0.00000172,0.00000403,0.00000377,-0.00000270,-0
 .00001197,-0.00000096,0.00002035,-0.00000978,-0.00001077,-0.00001018,0
 .00000193,0.00000269,-0.00000199,0.00000556,-0.00000329,0.00000020,0.0
 0000584,0.00000349,-0.00000016,0.00003281,-0.00014859,-0.00002865,-0.0
 0000240,0.00002588,0.00000081,-0.00000030,0.00000150,-0.00000099,0.000
 11833,-0.00006911,-0.00002093,-0.00000043,0.00000357,-0.00000042,-0.00
 002048,0.00001651,-0.00000135,-0.00002357,0.00001427,0.00001781,-0.000
 02221,0.00001962,0.00001312,-0.00002795,0.00001633,-0.00001172,-0.0000
 2856,-0.00000332,0.00000366,-0.00087606,0.00139042,-0.00051385,0.00040
 521,0.00029632,0.00083457,-0.00214584,-0.00227428,0.00003071,-0.000810
 48,0.01284647,-0.00287607,-0.00465738,0.04060931,-0.05683841,0.0005085
 1,0.00005062,-0.00014432,0.00020672,-0.00056032,0.00039762,-0.00493079
 ,0.02084411,-0.00337406,0.00771226,-0.04556180,0.05517456,0.00000041,-
 0.00000726,-0.00000971,-0.00007050,-0.00007922,0.00002408,0.00015478,-
 0.00001628,-0.00001457,-0.00004059,-0.00000561,0.00000706,-0.00008650,
 0.00004684,-0.00002068,0.00003621,-0.00000840,-0.00001021,0.00000725,-
 0.00001242,0.00007953,-0.00000962,0.00000736,-0.00001993,-0.00000974,0
 .00002748,0.00001185,0.00000415,0.00000631,0.00001188,-0.00000784,-0.0
 0000334,-0.00000173,0.00000424,0.00000469,0.00000095,0.00000059,0.0000
 0595,0.00000037,0.00003785,0.00014102,-0.00002499,-0.00000183,-0.00000
 692,0.00000073,-0.00001007,0.00000743,-0.00000423,0.00000127,0.0000020
 6,-0.00001239,-0.00001479,-0.00000571,-0.00002346,0.00000813,0.0000073
 5,-0.00000809,-0.00000183,0.00000021,0.00000729,-0.00000141,-0.0000053
 7,0.00000166,0.00000280,-0.00003094,-0.00002374,0.00000010,-0.00000560
 ,0.00000074,0.00000247,-0.00000048,-0.00000135,-0.00003498,0.00000490,
 -0.00013677,-0.00000027,0.00000093,-0.00000147,0.00002191,-0.00002977,
 0.00004973,-0.00000088,-0.00000126,0.00001862,-0.00000221,0.00002123,0
 .00003614,0.00000672,0.00000083,0.00001489,0.00000957,0.00000349,0.000
 01773,0.00042286,0.00034886,0.00055146,0.00044602,0.00068147,0.0009044
 7,-0.00040667,-0.00143631,-0.00078714,-0.00446297,-0.01617493,-0.02908
 305,-0.05054405,-0.01700228,-0.02843063,-0.00578625,0.00180937,-0.0021
 6245,0.00122300,-0.00076129,0.00070408,0.00285777,0.01250660,0.0196621
 3,-0.00121033,0.00163631,0.00456479,0.05745523,0.00014579,-0.00003739,
 -0.00001888,-0.00001043,0.00029902,-0.00005497,-0.00011251,-0.00012754
 ,0.00005123,0.00005160,0.00011510,-0.00002340,0.00007106,0.00003626,-0
 .00004326,-0.00009404,-0.00001927,0.00001802,0.00001183,-0.00000359,0.
 00002133,-0.00000455,0.00000042,-0.00000796,-0.00005975,-0.00001005,0.
 00001417,0.00004114,-0.00000862,-0.00000639,-0.00001860,0.00003634,0.0
 0000511,0.00000128,-0.00004618,-0.00000042,-0.00002126,0.00002960,0.00
 000097,-0.00002490,-0.00046944,0.00012515,0.00000978,0.00000414,0.0000
 0241,0.00001030,0.00000694,-0.00000878,-0.00000308,0.00000247,-0.00000
 191,-0.00002002,0.00000894,-0.00000981,0.00000490,0.00000256,-0.000001
 21,0.00000992,-0.00000466,-0.00000349,0.00000055,0.00000469,0.00000146
 ,0.00003544,-0.00007699,-0.00001247,-0.00000648,0.00003624,0.00000219,
 0.00000345,-0.00000339,-0.00000048,0.00015519,-0.00000011,-0.00005913,
 0.00000042,0.00000323,-0.00000074,-0.00002307,-0.00001138,0.00001751,-
 0.00003576,0.00000806,0.00002988,-0.00002825,0.00000266,0.00001277,-0.
 00003703,0.00000717,-0.00000820,-0.00003582,-0.00001347,0.00000960,-0.
 00052513,0.00013788,-0.00031347,0.00029207,-0.00064121,-0.00002136,0.0
 0053125,0.00009992,0.00104182,0.00001866,0.00332329,0.00558290,-0.0177
 4914,-0.11405928,-0.11792649,0.00132871,0.00019128,0.00103759,-0.00057
 876,0.00015241,-0.00029226,0.00210170,0.00528306,0.01033090,-0.0037591
 7,-0.01456633,-0.02749432,0.01832271,0.12030723,-0.00012895,0.00005128
 ,0.00000193,0.00007246,-0.00013408,0.00004823,-0.00007989,0.00008331,-
 0.00004789,0.00000795,-0.00006375,0.00002117,0.00004506,-0.00005919,0.
 00007563,0.00002654,0.00001646,-0.00001712,-0.00001848,0.00000469,-0.0
 0010086,0.00001150,-0.00000347,0.00002972,0.00002470,0.00004483,0.0000
 0957,-0.00001157,0.00001140,0.00000960,0.00001870,-0.00001181,-0.00000
 229,-0.00001343,0.00001643,0.00000059,0.00002634,-0.00002348,0.0000027
 3,0.00003338,0.00022124,-0.00008865,-0.00000294,0.00001076,0.00000001,
 0.00000045,-0.00001534,0.00001230,-0.00000295,-0.00000339,0.00002254,0
 .00003387,0.00000406,0.00001783,-0.00001072,-0.00001140,0.00001004,-0.
 00000523,0.00000180,-0.00000830,0.00000425,0.00000712,-0.00000096,-0.0
 0000925,-0.00005320,-0.00002394,0.00000476,-0.00000705,0.00000071,-0.0
 0000619,0.00000589,-0.00000330,-0.00005937,-0.00011673,-0.00007762,-0.
 00000151,-0.00000039,-0.00000176,0.00001325,0.00002208,0.00000887,0.00
 001082,0.00001588,0.00000862,0.00000513,0.00004625,0.00003755,0.000018
 36,0.00001296,0.00001298,0.00001366,0.00002025,0.00000945,0.00074170,0
 .00093953,0.00038053,0.00190502,0.00067522,0.00170224,-0.00184370,-0.0
 0312923,-0.00095212,-0.00170045,-0.00486400,-0.01047554,-0.02954672,-0
 .11536208,-0.24930543,-0.00242603,0.00073468,0.00081162,-0.00021282,0.
 00013383,0.00082271,-0.00274670,-0.01069980,-0.01849638,0.00170254,0.0
 0347405,0.00731448,0.03410643,0.12800437,0.26823054\\0.00000487,0.0000
 0187,0.00000298,-0.00000163,0.00001183,-0.00000142,-0.00000614,0.00000
 231,0.00000582,0.00000440,-0.00000198,0.00000304,-0.00000092,-0.000001
 97,-0.00000008,0.00000172,-0.00000119,0.00000114,0.00000109,0.00000065
 ,0.00000069,-0.00000026,-0.00000056,0.00000084,0.00000107,0.00000114,0
 .00000534,0.00000023,-0.00000065,0.00000164,0.00000094,0.00000207,0.00
 000298,-0.00000009,0.00000006,0.00000397,-0.00000325,-0.00000006,0.000
 00115,0.00000130,-0.00000810,-0.00000171,0.00000034,-0.00000077,0.0000
 0286,0.00000025,0.00000135,0.00000203,-0.00000015,0.00000075,-0.000001
 41,-0.00000030,-0.00000146,-0.00000002,0.00000021,0.00000092,0.0000010
 3,0.00000018,-0.00000062,-0.00000023,0.00000021,-0.00000107,0.00000191
 ,-0.00000128,-0.00000482,-0.00000250,0.00000115,0.00000027,0.00000630,
 0.00000394,0.00000265,0.00000437,0.00000283,0.00000094,0.00000644,0.00
 000125,0.00000067,0.00000376,-0.00000310,0.00000377,-0.00000331,0.0000
 0085,-0.00000121,0.00000087,0.00000273,-0.00000200,-0.00000617,-0.0000
 0063,0.00000222,0.00000088,-0.00000305,0.00000026,0.,0.00000892,0.0000
 0016,0.00000197,-0.00000229,0.00000312,-0.00000020,-0.00000848,-0.0000
 0298,-0.00000967,-0.00000097,-0.00000034,-0.00000441,0.00000026,-0.000
 00224,-0.00000586,-0.00000093,0.00000075,-0.00000518,-0.00000197,-0.00
 000011,-0.00000539,-0.00000061,-0.00000100,-0.00000407,-0.00000128,-0.
 00000219,-0.00000619,-0.00000139,-0.00000249,-0.00000420\\\@


 CHEMISTRY BEGAN BY SAYING IT WOULD CHANGE THE BASER
 METALS INTO GOLD.  BY NOT DOING THAT IT HAS DONE MUCH
 GREATER THINGS.  --  RALPH WALDO EMERSON
 Job cpu time:       0 days  9 hours 54 minutes  9.6 seconds.
 Elapsed time:       0 days  9 hours 54 minutes 11.2 seconds.
 File lengths (MBytes):  RWF=   1582 Int=      0 D2E=      0 Chk=     36 Scr=      1
 Normal termination of Gaussian 16 at Tue Mar 23 02:03:01 2021.
