 Entering Gaussian System, Link 0=/apps/gaussian/g16c01/g16/g16
 Initial command:
 /apps/gaussian/g16c01/g16/l1.exe "/jobfs/19908503.gadi-pbs/Gau-1952417.inp" -scrdir="/jobfs/19908503.gadi-pbs/"
 Entering Link 1 = /apps/gaussian/g16c01/g16/l1.exe PID=   1952418.
  
 Copyright (c) 1988-2019, Gaussian, Inc.  All Rights Reserved.
  
 This is part of the Gaussian(R) 16 program.  It is based on
 the Gaussian(R) 09 system (copyright 2009, Gaussian, Inc.),
 the Gaussian(R) 03 system (copyright 2003, Gaussian, Inc.),
 the Gaussian(R) 98 system (copyright 1998, Gaussian, Inc.),
 the Gaussian(R) 94 system (copyright 1995, Gaussian, Inc.),
 the Gaussian 92(TM) system (copyright 1992, Gaussian, Inc.),
 the Gaussian 90(TM) system (copyright 1990, Gaussian, Inc.),
 the Gaussian 88(TM) system (copyright 1988, Gaussian, Inc.),
 the Gaussian 86(TM) system (copyright 1986, Carnegie Mellon
 University), and the Gaussian 82(TM) system (copyright 1983,
 Carnegie Mellon University). Gaussian is a federally registered
 trademark of Gaussian, Inc.
  
 This software contains proprietary and confidential information,
 including trade secrets, belonging to Gaussian, Inc.
  
 This software is provided under written license and may be
 used, copied, transmitted, or stored only in accord with that
 written license.
  
 The following legend is applicable only to US Government
 contracts under FAR:
  
                    RESTRICTED RIGHTS LEGEND
  
 Use, reproduction and disclosure by the US Government is
 subject to restrictions as set forth in subparagraphs (a)
 and (c) of the Commercial Computer Software - Restricted
 Rights clause in FAR 52.227-19.
  
 Gaussian, Inc.
 340 Quinnipiac St., Bldg. 40, Wallingford CT 06492
  
  
 ---------------------------------------------------------------
 Warning -- This program may not be used in any manner that
 competes with the business of Gaussian, Inc. or will provide
 assistance to any competitor of Gaussian, Inc.  The licensee
 of this program is prohibited from giving any competitor of
 Gaussian, Inc. access to this program.  By using this program,
 the user acknowledges that Gaussian, Inc. is engaged in the
 business of creating and licensing software in the field of
 computational chemistry and represents and warrants to the
 licensee that it is not a competitor of Gaussian, Inc. and that
 it will not use this program in any manner prohibited above.
 ---------------------------------------------------------------
  

 Cite this work as:
 Gaussian 16, Revision C.01,
 M. J. Frisch, G. W. Trucks, H. B. Schlegel, G. E. Scuseria, 
 M. A. Robb, J. R. Cheeseman, G. Scalmani, V. Barone, 
 G. A. Petersson, H. Nakatsuji, X. Li, M. Caricato, A. V. Marenich, 
 J. Bloino, B. G. Janesko, R. Gomperts, B. Mennucci, H. P. Hratchian, 
 J. V. Ortiz, A. F. Izmaylov, J. L. Sonnenberg, D. Williams-Young, 
 F. Ding, F. Lipparini, F. Egidi, J. Goings, B. Peng, A. Petrone, 
 T. Henderson, D. Ranasinghe, V. G. Zakrzewski, J. Gao, N. Rega, 
 G. Zheng, W. Liang, M. Hada, M. Ehara, K. Toyota, R. Fukuda, 
 J. Hasegawa, M. Ishida, T. Nakajima, Y. Honda, O. Kitao, H. Nakai, 
 T. Vreven, K. Throssell, J. A. Montgomery, Jr., J. E. Peralta, 
 F. Ogliaro, M. J. Bearpark, J. J. Heyd, E. N. Brothers, K. N. Kudin, 
 V. N. Staroverov, T. A. Keith, R. Kobayashi, J. Normand, 
 K. Raghavachari, A. P. Rendell, J. C. Burant, S. S. Iyengar, 
 J. Tomasi, M. Cossi, J. M. Millam, M. Klene, C. Adamo, R. Cammi, 
 J. W. Ochterski, R. L. Martin, K. Morokuma, O. Farkas, 
 J. B. Foresman, and D. J. Fox, Gaussian, Inc., Wallingford CT, 2019.
 
 ******************************************
 Gaussian 16:  ES64L-G16RevC.01  3-Jul-2019
                 1-Apr-2021 
 ******************************************
 %NprocShared=32
 Will use up to   32 processors via shared memory.
 %Mem=1194000MB
 %chk=CP22CA_carboxy_c2.DSDPBEP86_AUG-cc-PVTZ.chk
 ----------------------------------------------------------------------
 # DSDPBEP86/AUG-cc-PVTZ SCF=Tight INT(grid=ultrafine) MaxDisk=1400000M
 B
 ----------------------------------------------------------------------
 1/38=1,172=1/1;
 2/12=2,17=6,18=5,40=1/2;
 3/5=16,6=1,7=10,11=9,25=1,30=1,74=-77,75=-5/1,2,3;
 4//1;
 5/5=2,32=2,38=5/2;
 8/10=1/1;
 9/16=-3/6;
 6/7=2,8=2,9=2,10=2/1;
 99/5=1,9=1/99;
 ---------------------------------------
 CP22CA_carboxy_c2.DSDPBEP86_AUG-cc-PVTZ
 ---------------------------------------
 Symbolic Z-matrix:
 Charge = -1 Multiplicity = 1
 C                    -5.92805   1.35197   0.42888 
 N                    -4.71736   0.68386   0.30245 
 C                    -3.52528   1.27332   0.03703 
 O                    -3.2993    2.45246  -0.15221 
 O                    -2.55616   0.33426  -0.00045 
 C                    -1.24257   0.81305  -0.2503 
 C                    -0.32004  -0.38932  -0.24969 
 C                     1.12727   0.02191  -0.5035 
 C                    -7.08101   0.54791   0.52962 
 C                    -8.29806   1.17274   0.68869 
 C                    -8.46689   2.55287   0.74328 
 C                    -7.31426   3.30586   0.6257 
 C                    -6.05341   2.74675   0.47295 
 H                    -4.71005  -0.36874   0.49943 
 H                    -0.96074   1.53418   0.52362 
 H                    -1.21739   1.33741  -1.21074 
 H                    -0.66052  -1.09303  -1.01376 
 H                    -0.41397  -0.90282   0.71061 
 H                     1.23359   0.52321  -1.46958 
 H                     1.79112  -0.84475  -0.50539 
 H                     1.48441   0.71131   0.26658 
 H                    -6.99091  -0.53933   0.44753 
 Cl                   -7.45147   5.05294   0.68016 
 H                    -5.18268   3.37783   0.38595 
 S                    -9.77568   0.13699   0.8281 
 H                    -9.4354    3.01536   0.86525 
 F                    -9.09793  -0.85533   1.89382 
 F                    -10.37131   1.03237   2.05423 
 F                    -9.34282  -0.82028  -0.37978 
 F                    -10.61603   1.06761  -0.21296 
 F                    -11.12122  -0.75758   0.96226 
 O                    -6.60074  -2.46128   0.05795 
 O                    -4.62563  -1.88469   0.94212 
 C                    -5.50935  -2.71901   0.59294 
 C                    -5.20251  -4.20154   0.86933 
 C                    -3.80908  -4.46755   1.42303 
 H                    -5.36888  -4.74289  -0.06692 
 H                    -5.97401  -4.56098   1.5582 
 H                    -3.0436   -4.11257   0.73025 
 H                    -3.64681  -5.53533   1.60307 
 H                    -3.65799  -3.9289    2.35961 
 
                          Input orientation:                          
 ---------------------------------------------------------------------
 Center     Atomic      Atomic             Coordinates (Angstroms)
 Number     Number       Type             X           Y           Z
 ---------------------------------------------------------------------
      1          6           0       -5.928045    1.351970    0.428883
      2          7           0       -4.717364    0.683856    0.302447
      3          6           0       -3.525276    1.273325    0.037028
      4          8           0       -3.299304    2.452460   -0.152209
      5          8           0       -2.556157    0.334262   -0.000452
      6          6           0       -1.242575    0.813048   -0.250302
      7          6           0       -0.320037   -0.389323   -0.249689
      8          6           0        1.127269    0.021909   -0.503501
      9          6           0       -7.081013    0.547907    0.529619
     10          6           0       -8.298063    1.172738    0.688692
     11          6           0       -8.466894    2.552868    0.743281
     12          6           0       -7.314259    3.305863    0.625701
     13          6           0       -6.053409    2.746751    0.472950
     14          1           0       -4.710052   -0.368738    0.499433
     15          1           0       -0.960743    1.534182    0.523615
     16          1           0       -1.217393    1.337409   -1.210736
     17          1           0       -0.660518   -1.093027   -1.013755
     18          1           0       -0.413971   -0.902822    0.710606
     19          1           0        1.233592    0.523215   -1.469580
     20          1           0        1.791118   -0.844751   -0.505386
     21          1           0        1.484412    0.711313    0.266584
     22          1           0       -6.990907   -0.539329    0.447530
     23         17           0       -7.451466    5.052944    0.680159
     24          1           0       -5.182681    3.377827    0.385949
     25         16           0       -9.775682    0.136992    0.828100
     26          1           0       -9.435399    3.015356    0.865245
     27          9           0       -9.097927   -0.855331    1.893818
     28          9           0      -10.371312    1.032375    2.054228
     29          9           0       -9.342821   -0.820279   -0.379776
     30          9           0      -10.616027    1.067611   -0.212962
     31          9           0      -11.121223   -0.757576    0.962265
     32          8           0       -6.600744   -2.461276    0.057954
     33          8           0       -4.625630   -1.884693    0.942119
     34          6           0       -5.509350   -2.719010    0.592941
     35          6           0       -5.202509   -4.201541    0.869329
     36          6           0       -3.809081   -4.467548    1.423027
     37          1           0       -5.368883   -4.742887   -0.066922
     38          1           0       -5.974013   -4.560977    1.558197
     39          1           0       -3.043600   -4.112573    0.730250
     40          1           0       -3.646811   -5.535332    1.603070
     41          1           0       -3.657992   -3.928896    2.359611
 ---------------------------------------------------------------------
                    Distance matrix (angstroms):
                    1          2          3          4          5
     1  C    0.000000
     2  N    1.388564   0.000000
     3  C    2.435782   1.356095   0.000000
     4  O    2.908441   2.312048   1.215415   0.000000
     5  O    3.548195   2.210153   1.349976   2.249902   0.000000
     6  C    4.765014   3.520849   2.346303   2.632000   1.420268
     7  C    5.911203   4.559940   3.622177   4.118406   2.363457
     8  C    7.239879   5.936957   4.848132   5.062166   3.730717
     9  C    1.409255   2.378429   3.662259   4.288769   4.560805
    10  C    2.390944   3.634501   4.818120   5.228040   5.843582
    11  C    2.826085   4.212661   5.153214   5.245567   6.357056
    12  C    2.403752   3.704494   4.339832   4.177716   5.644645
    13  C    1.401097   2.463661   2.958458   2.839459   4.274925
    14  H    2.109341   1.070893   2.076989   3.220870   2.320206
    15  H    4.971545   3.858000   2.623288   2.601699   2.063928
    16  H    4.987866   3.868675   2.624375   2.588082   2.064796
    17  H    5.983816   4.620357   3.861425   4.502880   2.580191
    18  H    5.963931   4.604708   3.856105   4.508605   2.573897
    19  H    7.455202   6.211261   5.047708   5.099470   4.068936
    20  H    8.079847   6.734209   5.748435   6.075256   4.532531
    21  H    7.441861   6.201940   5.046338   5.107926   4.066900
    22  H    2.169570   2.585774   3.932534   4.789407   4.542120
    23  Cl   4.010133   5.167873   5.487633   4.969488   6.833246
    24  H    2.159052   2.735136   2.701419   2.166339   4.038715
    25  S    4.054609   5.114876   6.401923   6.947365   7.269591
    26  H    3.906251   5.292682   6.216926   6.245296   7.433818
    27  F    4.131145   4.908247   6.247662   6.982244   6.913619
    28  F    4.741994   5.929362   7.141104   7.543097   8.110839
    29  F    4.127141   4.911487   6.196833   6.876534   6.894611
    30  F    4.740253   5.933560   7.098138   7.446874   8.095953
    31  F    5.630611   6.597158   7.917009   8.528118   8.687881
    32  O    3.889853   3.674066   4.837994   5.923553   4.917024
    33  O    3.526426   2.648592   3.464541   4.665575   3.177250
    34  C    4.095741   3.505870   4.492697   5.673064   4.289048
    35  C    5.617995   4.942047   5.786189   6.995817   5.322894
    36  C    6.272569   5.349547   5.912627   7.115318   5.162702
    37  H    6.140502   5.478180   6.293210   7.487553   5.804592
    38  H    6.020000   5.537540   6.507637   7.698562   6.170452
    39  H    6.186443   5.098062   5.451647   6.629010   4.532754
    40  H    7.349672   6.443292   6.987494   8.185755   6.181662
    41  H    6.063695   5.160589   5.698693   6.867285   4.995843
                    6          7          8          9         10
     6  C    0.000000
     7  C    1.515512   0.000000
     8  C    2.511209   1.525852   0.000000
     9  C    5.896265   6.869973   8.289747   0.000000
    10  C    7.126781   8.183490   9.569881   1.377290   0.000000
    11  C    7.496997   8.718587  10.000409   2.446668   1.391489
    12  C    6.621696   7.958634   9.127915   2.769468   2.349907
    13  C    5.235115   6.574856   7.742115   2.427776   2.750007
    14  H    3.739267   4.453520   5.935722   2.542166   3.909705
    15  H    1.094719   2.169879   2.775199   6.199232   7.348072
    16  H    1.094541   2.170360   2.779956   6.167187   7.332860
    17  H    2.134192   1.093126   2.167861   6.804221   8.146417
    18  H    2.134044   1.093010   2.169010   6.825455   8.152751
    19  H    2.775255   2.175918   1.093581   8.551612   9.794512
    20  H    3.466506   2.174804   1.091696   9.040213  10.357976
    21  H    2.777405   2.175770   1.093554   8.571020   9.802444
    22  H    5.946361   6.708884   8.192937   1.094047   2.167484
    23  Cl   7.575804   9.018879  10.015341   4.522749   3.971499
    24  H    4.744190   6.183912   7.201997   3.410682   3.828796
    25  S    8.627510   9.531415  10.984568   2.742113   1.809851
    26  H    8.556691   9.794118  11.063640   3.426964   2.172543
    27  F    8.311876   9.047825  10.539037   2.810348   2.491019
    28  F    9.417686  10.409486  11.822875   3.658580   2.486514
    29  F    8.264292   9.034007  10.504636   2.795480   2.491036
    30  F    9.376982  10.398626  11.793341   3.649362   2.489374
    31  F   10.075955  10.875204  12.360486   4.267876   3.430916
    32  O    6.286987   6.620795   8.136561   3.083555   4.060145
    33  O    4.488289   4.711122   6.230633   3.480892   4.785277
    34  C    5.602844   5.750342   7.263576   3.625863   4.788715
    35  C    6.486968   6.294739   7.732288   5.118734   6.204672
    36  C    6.105054   5.621684   6.945091   6.054627   7.245898
    37  H    6.923039   6.669166   8.068078   5.592830   6.644220
    38  H    7.384939   7.255246   8.699520   5.327675   6.247618
    39  H    5.335440   4.716001   6.001019   6.169362   7.452894
    40  H    7.036851   6.401683   7.623150   7.067662   8.213918
    41  H    5.927219   5.520776   6.834105   5.925176   7.095696
                   11         12         13         14         15
    11  C    0.000000
    12  C    1.381808   0.000000
    13  C    2.436304   1.387689   0.000000
    14  H    4.765407   4.505611   3.392872   0.000000
    15  H    7.578144   6.596699   5.235278   4.204641   0.000000
    16  H    7.605970   6.664765   5.311129   4.246679   1.764245
    17  H    8.793136   8.143115   6.785091   4.383270   3.058737
    18  H    8.763130   8.082959   6.721543   4.334300   2.504579
    19  H   10.154589   9.230335   7.862437   6.324515   3.132090
    20  H   10.877950  10.070494   8.682894   6.595564   3.780332
    21  H   10.131488   9.180265   7.810527   6.292226   2.592674
    22  H    3.439140   3.862875   3.417290   2.287814   6.377155
    23  Cl   2.699159   1.753307   2.704815   6.078047   7.384828
    24  H    3.405040   2.146226   1.078885   3.777963   4.608984
    25  S    2.748923   4.017625   4.559857   5.101411   8.930173
    26  H    1.080172   2.154300   3.415245   5.823642   8.609899
    27  F    3.652090   4.701609   4.925744   4.629743   8.590749
    28  F    2.767181   4.068785   4.907526   6.035757   9.547428
    29  F    3.661506   4.706495   4.926569   4.737029   8.753218
    30  F    2.781935   4.076125   4.909936   6.119734   9.694573
    31  F    4.248818   5.578332   6.180815   6.439605  10.424966
    32  O    5.393870   5.838779   5.253128   2.854529   6.927491
    33  O    5.872546   5.854120   4.869184   1.581524   5.029437
    34  C    6.046682   6.289504   5.494083   2.484230   6.227701
    35  C    7.502942   7.802560   7.011413   3.881973   7.142171
    36  C    8.452427   8.564340   7.614839   4.297095   6.703934
    37  H    7.967568   8.309427   7.540207   4.459596   7.692985
    38  H    7.581908   8.034486   7.388299   4.504825   7.959534
    39  H    8.593043   8.560528   7.495031   4.104466   6.022194
    40  H    9.454704   9.621443   8.698379   5.389081   7.639254
    41  H    8.231119   8.289540   7.339059   4.152327   6.363273
                   16         17         18         19         20
    16  H    0.000000
    17  H    2.501186   0.000000
    18  H    3.058705   1.752251   0.000000
    19  H    2.595619   2.531337   3.082410   0.000000
    20  H    3.782920   2.516068   2.518814   1.764039   0.000000
    21  H    3.142327   3.081499   2.531095   1.764244   1.763900
    22  H    6.293286   6.520411   6.592225   8.511562   8.838852
    23  Cl   7.499624   9.314467   9.219459  10.028463  11.027860
    24  H    4.736688   6.511349   6.416382   7.263632   8.201129
    25  S    8.879311   9.380383   9.420014  11.253116  11.684728
    26  H    8.640649   9.869548   9.836778  11.202211  11.950470
    27  F    8.749238   8.927505   8.764322  10.952310  11.150228
    28  F    9.723542  10.403335  10.232251  12.138791  12.569803
    29  F    8.448000   8.709691   8.995561  10.716957  11.134675
    30  F    9.455298  10.218698  10.431565  11.928492  12.557066
    31  F   10.353586  10.650987  10.711194  12.656845  12.995774
    32  O    6.709699   6.189261   6.413338   8.521583   8.564687
    33  O    5.160698   4.491580   4.330790   6.778258   6.659685
    34  C    6.174843   5.360640   5.410663   7.761010   7.616824
    35  C    7.133567   5.817090   5.816944   8.319687   7.878369
    36  C    6.881212   5.219075   4.974092   7.661817   6.943030
    37  H    7.450717   6.032137   6.316788   8.561072   8.164150
    38  H    8.067427   6.846520   6.709290   9.325556   8.852456
    39  H    6.066693   4.223539   4.149438   6.680130   5.964894
    40  H    7.813715   5.958170   5.719082   8.364538   7.484532
    41  H    6.814533   5.329784   4.732865   7.642747   6.885707
                   21         22         23         24         25
    21  H    0.000000
    22  H    8.569006   0.000000
    23  Cl   9.943376   5.616026   0.000000
    24  H    7.181550   4.314809   2.835484   0.000000
    25  S   11.288705   2.890885   5.439711   5.638632   0.000000
    26  H   11.176281   4.334260   2.849914   4.294964   2.898646
    27  F   10.820728   2.575099   6.252321   5.960071   1.606179
    28  F   11.994037   4.059417   5.155438   5.933481   1.630912
    29  F   10.954110   2.508958   6.260626   5.959631   1.600844
    30  F   12.115177   4.019950   5.166720   5.934395   1.629737
    31  F   12.709981   4.167984   6.878142   7.259475   1.621337
    32  O    8.687842   1.999470   7.587778   6.017774   4.174249
    33  O    6.672945   2.765711   7.495651   5.321066   5.533828
    34  C    7.796559   2.639539   8.011410   6.109089   5.139420
    35  C    8.319516   4.097326   9.525706   7.594791   6.303846
    36  C    7.495267   5.148448  10.220499   8.031950   7.560163
    37  H    8.765112   4.534922  10.042589   8.135463   6.635824
    38  H    9.224609   4.294334   9.766335   8.063806   6.087416
    39  H    6.632326   5.331907  10.170472   7.797454   7.961740
    40  H    8.193669   6.121953  11.288878   9.126044   8.386829
    41  H    7.235787   5.123821   9.893657   7.720635   7.503539
                   26         27         28         29         30
    26  H    0.000000
    27  F    4.019212   0.000000
    28  F    2.494360   2.282690   0.000000
    29  F    4.033701   2.287013   3.227149   0.000000
    30  F    2.519945   3.231231   2.280630   2.283201   0.000000
    31  F    4.133574   2.229591   2.226808   2.228837   2.228831
    32  O    6.219364   3.490756   5.514335   3.225440   5.352470
    33  O    6.866605   4.686871   6.539032   5.013210   6.777549
    34  C    6.954923   4.247759   6.312442   4.387124   6.408286
    35  C    8.366658   5.236504   7.450797   5.489570   7.631611
    36  C    9.378722   6.421966   8.585479   6.868403   8.924627
    37  H    8.808848   5.732656   7.929515   5.592576   7.830436
    38  H    8.358360   4.858321   7.132171   5.394203   7.507749
    39  H    9.575003   6.972689   9.050899   7.193855   9.223102
    40  H   10.352121   7.190383   9.410485   7.655582   9.770712
    41  H    9.156101   6.265513   8.353211   7.034559   8.944130
                   31         32         33         34         35
    31  F    0.000000
    32  O    4.914783   0.000000
    33  O    6.592687   2.239481   0.000000
    34  C    5.956235   1.242490   1.264504   0.000000
    35  C    6.848409   2.375271   2.388696   1.538973   0.000000
    36  C    8.212406   3.698910   2.751212   2.576304   1.522821
    37  H    7.073283   2.595924   3.120875   2.133361   1.094213
    38  H    6.427656   2.655610   3.059442   2.130838   1.094967
    39  H    8.749733   3.978950   2.740649   2.835630   2.165213
    40  H    8.894067   4.534637   3.836940   3.524356   2.176597
    41  H    8.228588   4.013892   2.669152   2.830631   2.163518
                   36         37         38         39         40
    36  C    0.000000
    37  H    2.174567   0.000000
    38  H    2.171159   1.743641   0.000000
    39  H    1.091746   2.537661   3.077968   0.000000
    40  H    1.094947   2.526337   2.523342   1.774802   0.000000
    41  H    1.090946   3.078602   2.530957   1.751009   1.775702
                   41
    41  H    0.000000
 Stoichiometry    C13H16ClF5NO4S(1-)
 Framework group  C1[X(C13H16ClF5NO4S)]
 Deg. of freedom   117
 Full point group                 C1      NOp   1
 Largest Abelian subgroup         C1      NOp   1
 Largest concise Abelian subgroup C1      NOp   1
                         Standard orientation:                         
 ---------------------------------------------------------------------
 Center     Atomic      Atomic             Coordinates (Angstroms)
 Number     Number       Type             X           Y           Z
 ---------------------------------------------------------------------
      1          6           0        0.164239   -1.054457   -0.012486
      2          7           0        1.483769   -0.623749    0.025496
      3          6           0        2.566644   -1.434945    0.116792
      4          8           0        2.588496   -2.647421    0.198393
      5          8           0        3.691294   -0.688236    0.111824
      6          6           0        4.911920   -1.410952    0.181917
      7          6           0        6.035886   -0.394538    0.162429
      8          6           0        7.400148   -1.074924    0.226369
      9          6           0       -0.825028   -0.054180    0.069965
     10          6           0       -2.145939   -0.438470    0.003303
     11          6           0       -2.570699   -1.757102   -0.127199
     12          6           0       -1.570730   -2.708726   -0.189397
     13          6           0       -0.219694   -2.396033   -0.138350
     14          1           0        1.666044    0.424244   -0.098194
     15          1           0        4.980485   -2.099831   -0.666114
     16          1           0        4.931989   -2.013649    1.095358
     17          1           0        5.905794    0.288446    1.005953
     18          1           0        5.946577    0.209608   -0.744049
     19          1           0        7.504378   -1.669804    1.138055
     20          1           0        8.209432   -0.342309    0.214752
     21          1           0        7.548597   -1.746295   -0.623975
     22          1           0       -0.528623    0.988741    0.216250
     23         17           0       -2.032179   -4.392720   -0.348504
     24          1           0        0.524059   -3.175781   -0.191426
     25         16           0       -3.413777    0.849539    0.099113
     26          1           0       -3.615008   -2.029257   -0.173273
     27          9           0       -2.670088    1.796449   -0.963948
     28          9           0       -4.279001    0.184008   -1.112634
     29          9           0       -2.698114    1.606021    1.314951
     30          9           0       -4.307499   -0.006072    1.159883
     31          9           0       -4.577938    1.975404    0.175858
     32          8           0        0.244623    2.770262    0.691806
     33          8           0        1.985595    1.934484   -0.442110
     34          6           0        1.308414    2.877574    0.058866
     35          6           0        1.855314    4.301293   -0.146960
     36          6           0        3.214279    4.365153   -0.831153
     37          1           0        1.882113    4.779337    0.836939
     38          1           0        1.100847    4.849965   -0.720276
     39          1           0        3.964051    3.821572   -0.252990
     40          1           0        3.552555    5.399256   -0.954067
     41          1           0        3.172992    3.892472   -1.813513
 ---------------------------------------------------------------------
 Rotational constants (GHZ):           0.2208641           0.1094443           0.0762242
 Standard basis: Aug-CC-pVTZ (5D, 7F)
 There are  1783 symmetry adapted cartesian basis functions of A   symmetry.
 There are  1526 symmetry adapted basis functions of A   symmetry.
  1526 basis functions,  2316 primitive gaussians,  1783 cartesian basis functions
   106 alpha electrons      106 beta electrons
       nuclear repulsion energy      2808.2534806147 Hartrees.
 NAtoms=   41 NActive=   41 NUniq=   41 SFac= 1.00D+00 NAtFMM=   60 NAOKFM=F Big=F
 Integral buffers will be    131072 words long.
 Regular integral format.
 Two-electron integral symmetry is turned on.
 Nuclear repulsion after empirical dispersion term =     2808.2211278603 Hartrees.
 One-electron integrals computed using PRISM.
 NBasis=  1526 RedAO= T EigKep=  1.15D-06  NBF=  1526
 NBsUse=  1522 1.00D-06 EigRej=  8.69D-07 NBFU=  1522
 ExpMin= 2.53D-02 ExpMax= 4.56D+05 ExpMxC= 1.44D+03 IAcc=3 IRadAn=         5 AccDes= 0.00D+00
 Harris functional with IExCor= 1004 and IRadAn=       5 diagonalized for initial guess.
 HarFok:  IExCor= 1004 AccDes= 0.00D+00 IRadAn=         5 IDoV= 1 UseB2=F ITyADJ=14
 ICtDFT=  3500011 ScaDFX=  1.000000  1.000000  1.000000  1.000000
 FoFCou: FMM=F IPFlag=           0 FMFlag=      100000 FMFlg1=           0
         NFxFlg=           0 DoJE=T BraDBF=F KetDBF=T FulRan=T
         wScrn=  0.000000 ICntrl=       500 IOpCl=  0 I1Cent=   200000004 NGrid=           0
         NMat0=    1 NMatS0=      1 NMatT0=    0 NMatD0=    1 NMtDS0=    0 NMtDT0=    0
 Petite list used in FoFCou.
 Requested convergence on RMS density matrix=1.00D-08 within 128 cycles.
 Requested convergence on MAX density matrix=1.00D-06.
 Requested convergence on             energy=1.00D-06.
 No special actions if energy rises.
 SCF Done:  E(RDSDPBEP86) =  -2213.64009917     A.U. after   14 cycles
            NFock= 14  Conv=0.35D-08     -V/T= 2.0026
 DoSCS=T DFT=T ScalE2(SS,OS)=  0.220000  0.520000
 ExpMin= 2.53D-02 ExpMax= 4.56D+05 ExpMxC= 1.44D+03 IAcc=3 IRadAn=         5 AccDes= 0.00D+00
 HarFok:  IExCor=  205 AccDes= 0.00D+00 IRadAn=         5 IDoV=-2 UseB2=F ITyADJ=14
 ICtDFT= 12500011 ScaDFX=  1.000000  1.000000  1.000000  1.000000
 GSVD:  LWork=       -1353 too small for GESVD, short by        5940 words or        5940 for optimal perf.
 Range of M.O.s used for correlation:    34  1522
 NBasis=  1526 NAE=   106 NBE=   106 NFC=    33 NFV=     0
 NROrb=   1489 NOA=    73 NOB=    73 NVA=  1416 NVB=  1416

 **** Warning!!: The largest alpha MO coefficient is  0.10283083D+03

 DoSCS=T DFT=T ScalE2(SS,OS)=  0.220000  0.520000
 Fully direct method using O(OVN) memory.
 JobTyp=1 Pass  1:  I=   1 to  32 NPSUse= 32 ParTrn=T ParDer=T DoDerP=F.
 JobTyp=1 Pass  2:  I=  33 to  73 NPSUse= 32 ParTrn=T ParDer=T DoDerP=F.
 Spin components of T(2) and E(2):
     alpha-alpha T2 =       0.2531308617D+00 E2=     -0.1645469287D+00
     alpha-beta  T2 =       0.1307537722D+01 E2=     -0.2192160570D+01
     beta-beta   T2 =       0.2531308617D+00 E2=     -0.1645469287D+00
 E2(DSDPBEP86) =    -0.2521254427D+01 E(DSDPBEP86) =    -0.22161613536014D+04

 **********************************************************************

            Population analysis using the SCF Density.

 **********************************************************************

 Orbital symmetries:
       Occupied  (A) (A) (A) (A) (A) (A) (A) (A) (A) (A) (A) (A)
                 (A) (A) (A) (A) (A) (A) (A) (A) (A) (A) (A) (A)
                 (A) (A) (A) (A) (A) (A) (A) (A) (A) (A) (A) (A)
                 (A) (A) (A) (A) (A) (A) (A) (A) (A) (A) (A) (A)
                 (A) (A) (A) (A) (A) (A) (A) (A) (A) (A) (A) (A)
                 (A) (A) (A) (A) (A) (A) (A) (A) (A) (A) (A) (A)
                 (A) (A) (A) (A) (A) (A) (A) (A) (A) (A) (A) (A)
                 (A) (A) (A) (A) (A) (A) (A) (A) (A) (A) (A) (A)
                 (A) (A) (A) (A) (A) (A) (A) (A) (A) (A)
       Virtual   (A) (A) (A) (A) (A) (A) (A) (A) (A) (A) (A) (A)
                 (A) (A) (A) (A) (A) (A) (A) (A) (A) (A) (A) (A)
                 (A) (A) (A) (A) (A) (A) (A) (A) (A) (A) (A) (A)
                 (A) (A) (A) (A) (A) (A) (A) (A) (A) (A) (A) (A)
                 (A) (A) (A) (A) (A) (A) (A) (A) (A) (A) (A) (A)
                 (A) (A) (A) (A) (A) (A) (A) (A) (A) (A) (A) (A)
                 (A) (A) (A) (A) (A) (A) (A) (A) (A) (A) (A) (A)
                 (A) (A) (A) (A) (A) (A) (A) (A) (A) (A) (A) (A)
                 (A) (A) (A) (A) (A) (A) (A) (A) (A) (A) (A) (A)
                 (A) (A) (A) (A) (A) (A) (A) (A) (A) (A) (A) (A)
                 (A) (A) (A) (A) (A) (A) (A) (A) (A) (A) (A) (A)
                 (A) (A) (A) (A) (A) (A) (A) (A) (A) (A) (A) (A)
                 (A) (A) (A) (A) (A) (A) (A) (A) (A) (A) (A) (A)
                 (A) (A) (A) (A) (A) (A) (A) (A) (A) (A) (A) (A)
                 (A) (A) (A) (A) (A) (A) (A) (A) (A) (A) (A) (A)
                 (A) (A) (A) (A) (A) (A) (A) (A) (A) (A) (A) (A)
                 (A) (A) (A) (A) (A) (A) (A) (A) (A) (A) (A) (A)
                 (A) (A) (A) (A) (A) (A) (A) (A) (A) (A) (A) (A)
                 (A) (A) (A) (A) (A) (A) (A) (A) (A) (A) (A) (A)
                 (A) (A) (A) (A) (A) (A) (A) (A) (A) (A) (A) (A)
                 (A) (A) (A) (A) (A) (A) (A) (A) (A) (A) (A) (A)
                 (A) (A) (A) (A) (A) (A) (A) (A) (A) (A) (A) (A)
                 (A) (A) (A) (A) (A) (A) (A) (A) (A) (A) (A) (A)
                 (A) (A) (A) (A) (A) (A) (A) (A) (A) (A) (A) (A)
                 (A) (A) (A) (A) (A) (A) (A) (A) (A) (A) (A) (A)
                 (A) (A) (A) (A) (A) (A) (A) (A) (A) (A) (A) (A)
                 (A) (A) (A) (A) (A) (A) (A) (A) (A) (A) (A) (A)
                 (A) (A) (A) (A) (A) (A) (A) (A) (A) (A) (A) (A)
                 (A) (A) (A) (A) (A) (A) (A) (A) (A) (A) (A) (A)
                 (A) (A) (A) (A) (A) (A) (A) (A) (A) (A) (A) (A)
                 (A) (A) (A) (A) (A) (A) (A) (A) (A) (A) (A) (A)
                 (A) (A) (A) (A) (A) (A) (A) (A) (A) (A) (A) (A)
                 (A) (A) (A) (A) (A) (A) (A) (A) (A) (A) (A) (A)
                 (A) (A) (A) (A) (A) (A) (A) (A) (A) (A) (A) (A)
                 (A) (A) (A) (A) (A) (A) (A) (A) (A) (A) (A) (A)
                 (A) (A) (A) (A) (A) (A) (A) (A) (A) (A) (A) (A)
                 (A) (A) (A) (A) (A) (A) (A) (A) (A) (A) (A) (A)
                 (A) (A) (A) (A) (A) (A) (A) (A) (A) (A) (A) (A)
                 (A) (A) (A) (A) (A) (A) (A) (A) (A) (A) (A) (A)
                 (A) (A) (A) (A) (A) (A) (A) (A) (A) (A) (A) (A)
                 (A) (A) (A) (A) (A) (A) (A) (A) (A) (A) (A) (A)
                 (A) (A) (A) (A) (A) (A) (A) (A) (A) (A) (A) (A)
                 (A) (A) (A) (A) (A) (A) (A) (A) (A) (A) (A) (A)
                 (A) (A) (A) (A) (A) (A) (A) (A) (A) (A) (A) (A)
                 (A) (A) (A) (A) (A) (A) (A) (A) (A) (A) (A) (A)
                 (A) (A) (A) (A) (A) (A) (A) (A) (A) (A) (A) (A)
                 (A) (A) (A) (A) (A) (A) (A) (A) (A) (A) (A) (A)
                 (A) (A) (A) (A) (A) (A) (A) (A) (A) (A) (A) (A)
                 (A) (A) (A) (A) (A) (A) (A) (A) (A) (A) (A) (A)
                 (A) (A) (A) (A) (A) (A) (A) (A) (A) (A) (A) (A)
                 (A) (A) (A) (A) (A) (A) (A) (A) (A) (A) (A) (A)
                 (A) (A) (A) (A) (A) (A) (A) (A) (A) (A) (A) (A)
                 (A) (A) (A) (A) (A) (A) (A) (A) (A) (A) (A) (A)
                 (A) (A) (A) (A) (A) (A) (A) (A) (A) (A) (A) (A)
                 (A) (A) (A) (A) (A) (A) (A) (A) (A) (A) (A) (A)
                 (A) (A) (A) (A) (A) (A) (A) (A) (A) (A) (A) (A)
                 (A) (A) (A) (A) (A) (A) (A) (A) (A) (A) (A) (A)
                 (A) (A) (A) (A) (A) (A) (A) (A) (A) (A) (A) (A)
                 (A) (A) (A) (A) (A) (A) (A) (A) (A) (A) (A) (A)
                 (A) (A) (A) (A) (A) (A) (A) (A) (A) (A) (A) (A)
                 (A) (A) (A) (A) (A) (A) (A) (A) (A) (A) (A) (A)
                 (A) (A) (A) (A) (A) (A) (A) (A) (A) (A) (A) (A)
                 (A) (A) (A) (A) (A) (A) (A) (A) (A) (A) (A) (A)
                 (A) (A) (A) (A) (A) (A) (A) (A) (A) (A) (A) (A)
                 (A) (A) (A) (A) (A) (A) (A) (A) (A) (A) (A) (A)
                 (A) (A) (A) (A) (A) (A) (A) (A) (A) (A) (A) (A)
                 (A) (A) (A) (A) (A) (A) (A) (A) (A) (A) (A) (A)
                 (A) (A) (A) (A) (A) (A) (A) (A) (A) (A) (A) (A)
                 (A) (A) (A) (A) (A) (A) (A) (A) (A) (A) (A) (A)
                 (A) (A) (A) (A) (A) (A) (A) (A) (A) (A) (A) (A)
                 (A) (A) (A) (A) (A) (A) (A) (A) (A) (A) (A) (A)
                 (A) (A) (A) (A) (A) (A) (A) (A) (A) (A) (A) (A)
                 (A) (A) (A) (A) (A) (A) (A) (A) (A) (A) (A) (A)
                 (A) (A) (A) (A) (A) (A) (A) (A) (A) (A) (A) (A)
                 (A) (A) (A) (A) (A) (A) (A) (A) (A) (A) (A) (A)
                 (A) (A) (A) (A) (A) (A) (A) (A) (A) (A) (A) (A)
                 (A) (A) (A) (A) (A) (A) (A) (A) (A) (A) (A) (A)
                 (A) (A) (A) (A) (A) (A) (A) (A) (A) (A) (A) (A)
                 (A) (A) (A) (A) (A) (A) (A) (A) (A) (A) (A) (A)
                 (A) (A) (A) (A) (A) (A) (A) (A) (A) (A) (A) (A)
                 (A) (A) (A) (A) (A) (A) (A) (A) (A) (A) (A) (A)
                 (A) (A) (A) (A) (A) (A) (A) (A) (A) (A) (A) (A)
                 (A) (A) (A) (A) (A) (A) (A) (A) (A) (A) (A) (A)
                 (A) (A) (A) (A) (A) (A) (A) (A) (A) (A) (A) (A)
                 (A) (A) (A) (A) (A) (A) (A) (A) (A) (A) (A) (A)
                 (A) (A) (A) (A) (A) (A) (A) (A) (A) (A) (A) (A)
                 (A) (A) (A) (A) (A) (A) (A) (A) (A) (A) (A) (A)
                 (A) (A) (A) (A) (A) (A) (A) (A) (A) (A) (A) (A)
                 (A) (A) (A) (A) (A) (A) (A) (A) (A) (A) (A) (A)
                 (A) (A) (A) (A) (A) (A) (A) (A) (A) (A) (A) (A)
                 (A) (A) (A) (A) (A) (A) (A) (A) (A) (A) (A) (A)
                 (A) (A) (A) (A) (A) (A) (A) (A) (A) (A) (A) (A)
                 (A) (A) (A) (A) (A) (A) (A) (A) (A) (A) (A) (A)
                 (A) (A) (A) (A) (A) (A) (A) (A) (A) (A) (A) (A)
                 (A) (A) (A) (A) (A) (A) (A) (A) (A) (A) (A) (A)
                 (A) (A) (A) (A) (A) (A) (A) (A) (A) (A) (A) (A)
                 (A) (A) (A) (A) (A) (A) (A) (A) (A) (A) (A) (A)
                 (A) (A) (A) (A) (A) (A) (A) (A) (A) (A) (A) (A)
                 (A) (A) (A) (A) (A) (A) (A) (A) (A) (A) (A) (A)
                 (A) (A) (A) (A) (A) (A) (A) (A) (A) (A) (A) (A)
                 (A) (A) (A) (A) (A) (A) (A) (A) (A) (A) (A) (A)
                 (A) (A) (A) (A) (A) (A) (A) (A) (A) (A) (A) (A)
                 (A) (A) (A) (A) (A) (A) (A) (A) (A) (A) (A) (A)
                 (A) (A) (A) (A) (A) (A) (A) (A) (A) (A) (A) (A)
                 (A) (A) (A) (A) (A) (A) (A) (A) (A) (A) (A) (A)
                 (A) (A) (A) (A) (A) (A) (A) (A) (A) (A) (A) (A)
                 (A) (A) (A) (A) (A) (A) (A) (A) (A) (A) (A) (A)
                 (A) (A) (A) (A) (A) (A) (A) (A) (A) (A) (A) (A)
                 (A) (A) (A) (A) (A) (A) (A) (A) (A) (A) (A) (A)
                 (A) (A) (A) (A) (A) (A) (A) (A) (A) (A) (A) (A)
                 (A) (A) (A) (A) (A) (A) (A) (A) (A) (A) (A) (A)
                 (A) (A) (A) (A) (A) (A) (A) (A) (A) (A) (A) (A)
                 (A) (A) (A) (A) (A) (A) (A) (A) (A) (A) (A) (A)
                 (A) (A) (A) (A) (A) (A) (A) (A) (A) (A) (A) (A)
                 (A) (A) (A) (A) (A) (A) (A) (A) (A) (A) (A) (A)
                 (A) (A) (A) (A) (A) (A) (A) (A) (A) (A) (A) (A)
                 (A) (A) (A) (A) (A) (A) (A) (A) (A) (A) (A) (A)
                 (A) (A) (A) (A) (A) (A) (A) (A) (A) (A) (A) (A)
 The electronic state is 1-A.
 Alpha  occ. eigenvalues -- -103.48540 -91.06102 -25.60825 -25.60786 -25.60761
 Alpha  occ. eigenvalues --  -25.60742 -25.60730 -19.94331 -19.87678 -19.81038
 Alpha  occ. eigenvalues --  -19.80095 -14.99128 -10.87557 -10.80197 -10.78574
 Alpha  occ. eigenvalues --  -10.78176 -10.77889 -10.77481 -10.74850 -10.73832
 Alpha  occ. eigenvalues --  -10.73492 -10.73401 -10.73028 -10.68758 -10.68613
 Alpha  occ. eigenvalues --  -10.06039  -8.80632  -7.63707  -7.63256  -7.63247
 Alpha  occ. eigenvalues --   -6.59727  -6.59712  -6.59309  -1.48827  -1.39331
 Alpha  occ. eigenvalues --   -1.39316  -1.36317  -1.35008  -1.23416  -1.12940
 Alpha  occ. eigenvalues --   -1.11283  -1.03742  -1.01236  -0.98931  -0.93848
 Alpha  occ. eigenvalues --   -0.89076  -0.87801  -0.82786  -0.81295  -0.81095
 Alpha  occ. eigenvalues --   -0.77029  -0.70606  -0.68322  -0.66729  -0.66628
 Alpha  occ. eigenvalues --   -0.66291  -0.64799  -0.63199  -0.59679  -0.57821
 Alpha  occ. eigenvalues --   -0.57711  -0.56076  -0.55126  -0.53508  -0.53014
 Alpha  occ. eigenvalues --   -0.52739  -0.51054  -0.50259  -0.49232  -0.49188
 Alpha  occ. eigenvalues --   -0.48762  -0.48687  -0.48410  -0.47377  -0.46833
 Alpha  occ. eigenvalues --   -0.46011  -0.45700  -0.45241  -0.44879  -0.44219
 Alpha  occ. eigenvalues --   -0.43821  -0.43404  -0.42345  -0.42159  -0.40282
 Alpha  occ. eigenvalues --   -0.40216  -0.39583  -0.38825  -0.38399  -0.36492
 Alpha  occ. eigenvalues --   -0.36004  -0.35716  -0.35496  -0.34791  -0.34322
 Alpha  occ. eigenvalues --   -0.33043  -0.32073  -0.30645  -0.30567  -0.29707
 Alpha  occ. eigenvalues --   -0.28960  -0.22816  -0.21567  -0.21087  -0.20072
 Alpha  occ. eigenvalues --   -0.18415
 Alpha virt. eigenvalues --    0.07360   0.08967   0.09385   0.09574   0.09788
 Alpha virt. eigenvalues --    0.10645   0.11301   0.11363   0.11735   0.12249
 Alpha virt. eigenvalues --    0.12582   0.12886   0.13106   0.13499   0.13613
 Alpha virt. eigenvalues --    0.13861   0.14214   0.14523   0.14932   0.15262
 Alpha virt. eigenvalues --    0.15368   0.15876   0.16362   0.16741   0.17209
 Alpha virt. eigenvalues --    0.17527   0.17613   0.18077   0.18309   0.18323
 Alpha virt. eigenvalues --    0.18666   0.18948   0.19032   0.19251   0.19392
 Alpha virt. eigenvalues --    0.19756   0.20350   0.20383   0.20753   0.21060
 Alpha virt. eigenvalues --    0.21253   0.21408   0.21669   0.21859   0.22258
 Alpha virt. eigenvalues --    0.22381   0.22555   0.22894   0.23312   0.23455
 Alpha virt. eigenvalues --    0.23510   0.23851   0.24396   0.24675   0.24864
 Alpha virt. eigenvalues --    0.25433   0.25572   0.25748   0.25971   0.26418
 Alpha virt. eigenvalues --    0.26573   0.26897   0.27342   0.27889   0.27965
 Alpha virt. eigenvalues --    0.28187   0.28357   0.28522   0.28774   0.29234
 Alpha virt. eigenvalues --    0.29466   0.29656   0.29811   0.30151   0.30562
 Alpha virt. eigenvalues --    0.30798   0.31000   0.31342   0.31775   0.32103
 Alpha virt. eigenvalues --    0.32293   0.32703   0.32857   0.33081   0.33631
 Alpha virt. eigenvalues --    0.33786   0.34103   0.34316   0.34377   0.34615
 Alpha virt. eigenvalues --    0.34971   0.35301   0.35396   0.35459   0.35836
 Alpha virt. eigenvalues --    0.36098   0.36368   0.36526   0.36668   0.37014
 Alpha virt. eigenvalues --    0.37315   0.37497   0.37676   0.37824   0.37934
 Alpha virt. eigenvalues --    0.38410   0.38502   0.38617   0.38667   0.39051
 Alpha virt. eigenvalues --    0.39249   0.39496   0.39799   0.39825   0.40190
 Alpha virt. eigenvalues --    0.40464   0.40693   0.40782   0.41042   0.41468
 Alpha virt. eigenvalues --    0.41600   0.41971   0.42177   0.42469   0.42530
 Alpha virt. eigenvalues --    0.42848   0.42944   0.43018   0.43309   0.43478
 Alpha virt. eigenvalues --    0.43604   0.43909   0.44173   0.44488   0.44623
 Alpha virt. eigenvalues --    0.44847   0.45014   0.45148   0.45272   0.45832
 Alpha virt. eigenvalues --    0.46084   0.46275   0.46599   0.46844   0.46943
 Alpha virt. eigenvalues --    0.47397   0.47685   0.48080   0.48271   0.48604
 Alpha virt. eigenvalues --    0.48874   0.48979   0.49322   0.49501   0.49940
 Alpha virt. eigenvalues --    0.50026   0.50283   0.50506   0.50596   0.50643
 Alpha virt. eigenvalues --    0.50989   0.51140   0.51782   0.51907   0.52511
 Alpha virt. eigenvalues --    0.52602   0.52774   0.53020   0.53266   0.53409
 Alpha virt. eigenvalues --    0.53488   0.53775   0.54050   0.54114   0.54256
 Alpha virt. eigenvalues --    0.54433   0.54691   0.54771   0.54824   0.55342
 Alpha virt. eigenvalues --    0.55447   0.55745   0.55853   0.56073   0.56267
 Alpha virt. eigenvalues --    0.56648   0.56868   0.57113   0.57301   0.57538
 Alpha virt. eigenvalues --    0.57819   0.58029   0.58124   0.58151   0.58478
 Alpha virt. eigenvalues --    0.58776   0.58865   0.59337   0.59625   0.59904
 Alpha virt. eigenvalues --    0.60269   0.60508   0.60846   0.61141   0.61423
 Alpha virt. eigenvalues --    0.61712   0.61903   0.62120   0.62520   0.62598
 Alpha virt. eigenvalues --    0.63244   0.63334   0.63705   0.63959   0.64352
 Alpha virt. eigenvalues --    0.64545   0.64600   0.64885   0.65262   0.65423
 Alpha virt. eigenvalues --    0.65633   0.65730   0.66210   0.66777   0.66919
 Alpha virt. eigenvalues --    0.67280   0.67634   0.67716   0.68193   0.68352
 Alpha virt. eigenvalues --    0.68540   0.68979   0.69208   0.69368   0.69683
 Alpha virt. eigenvalues --    0.69945   0.70369   0.70815   0.71424   0.71626
 Alpha virt. eigenvalues --    0.72467   0.72588   0.72854   0.73349   0.73493
 Alpha virt. eigenvalues --    0.73864   0.74038   0.74488   0.74788   0.75005
 Alpha virt. eigenvalues --    0.75388   0.75658   0.75939   0.76120   0.76642
 Alpha virt. eigenvalues --    0.77059   0.77235   0.77652   0.77994   0.78190
 Alpha virt. eigenvalues --    0.78575   0.79080   0.79206   0.79872   0.80533
 Alpha virt. eigenvalues --    0.80998   0.81389   0.81508   0.81682   0.82073
 Alpha virt. eigenvalues --    0.82477   0.82652   0.83218   0.83823   0.83905
 Alpha virt. eigenvalues --    0.84135   0.84411   0.84665   0.85124   0.85233
 Alpha virt. eigenvalues --    0.85413   0.85839   0.86104   0.86425   0.86890
 Alpha virt. eigenvalues --    0.87207   0.87774   0.88054   0.88196   0.88746
 Alpha virt. eigenvalues --    0.89053   0.89554   0.90062   0.90365   0.90577
 Alpha virt. eigenvalues --    0.90948   0.90985   0.91275   0.91622   0.91794
 Alpha virt. eigenvalues --    0.91928   0.92260   0.92671   0.93018   0.93316
 Alpha virt. eigenvalues --    0.93550   0.93688   0.93804   0.94037   0.94506
 Alpha virt. eigenvalues --    0.94836   0.95278   0.95483   0.95593   0.95725
 Alpha virt. eigenvalues --    0.96195   0.96462   0.96686   0.96779   0.97219
 Alpha virt. eigenvalues --    0.97501   0.97560   0.98087   0.98350   0.98671
 Alpha virt. eigenvalues --    0.98829   0.98974   0.99526   0.99783   0.99937
 Alpha virt. eigenvalues --    1.00428   1.00683   1.01041   1.01308   1.01388
 Alpha virt. eigenvalues --    1.01831   1.02092   1.02391   1.02845   1.03114
 Alpha virt. eigenvalues --    1.03123   1.03634   1.03830   1.04253   1.04552
 Alpha virt. eigenvalues --    1.04875   1.05127   1.05436   1.05518   1.05867
 Alpha virt. eigenvalues --    1.06142   1.06412   1.07020   1.07292   1.07732
 Alpha virt. eigenvalues --    1.07915   1.08379   1.08528   1.08751   1.09211
 Alpha virt. eigenvalues --    1.09392   1.09598   1.09698   1.09950   1.10539
 Alpha virt. eigenvalues --    1.10775   1.10927   1.11115   1.11387   1.11557
 Alpha virt. eigenvalues --    1.12367   1.12487   1.12864   1.13003   1.13367
 Alpha virt. eigenvalues --    1.13742   1.13853   1.13996   1.14209   1.14428
 Alpha virt. eigenvalues --    1.14875   1.15170   1.15206   1.15527   1.15923
 Alpha virt. eigenvalues --    1.16248   1.16299   1.16689   1.17177   1.17512
 Alpha virt. eigenvalues --    1.17850   1.17946   1.18146   1.18301   1.18525
 Alpha virt. eigenvalues --    1.18944   1.19404   1.19613   1.19823   1.20117
 Alpha virt. eigenvalues --    1.20289   1.20492   1.20881   1.21215   1.21531
 Alpha virt. eigenvalues --    1.21824   1.21925   1.22681   1.22985   1.23199
 Alpha virt. eigenvalues --    1.23238   1.23611   1.23969   1.24260   1.24480
 Alpha virt. eigenvalues --    1.25046   1.25433   1.25703   1.26041   1.26627
 Alpha virt. eigenvalues --    1.26747   1.27068   1.27416   1.27624   1.27784
 Alpha virt. eigenvalues --    1.28097   1.28240   1.28731   1.28807   1.29353
 Alpha virt. eigenvalues --    1.29684   1.30217   1.30251   1.30653   1.31163
 Alpha virt. eigenvalues --    1.31529   1.31937   1.32013   1.32398   1.32744
 Alpha virt. eigenvalues --    1.32821   1.32977   1.33333   1.33711   1.34163
 Alpha virt. eigenvalues --    1.34499   1.34955   1.35088   1.35368   1.35630
 Alpha virt. eigenvalues --    1.35917   1.36148   1.36334   1.37020   1.37291
 Alpha virt. eigenvalues --    1.37575   1.37865   1.38237   1.38389   1.38921
 Alpha virt. eigenvalues --    1.39208   1.39708   1.39778   1.40189   1.40670
 Alpha virt. eigenvalues --    1.40953   1.41181   1.41281   1.41752   1.42020
 Alpha virt. eigenvalues --    1.42944   1.43157   1.43428   1.43727   1.44340
 Alpha virt. eigenvalues --    1.44757   1.44892   1.45128   1.45465   1.45890
 Alpha virt. eigenvalues --    1.46546   1.46752   1.47281   1.47502   1.48471
 Alpha virt. eigenvalues --    1.48646   1.48912   1.49225   1.49440   1.49844
 Alpha virt. eigenvalues --    1.50210   1.50868   1.51222   1.51413   1.51735
 Alpha virt. eigenvalues --    1.52799   1.53062   1.53122   1.53481   1.54114
 Alpha virt. eigenvalues --    1.54244   1.54677   1.55249   1.55638   1.55944
 Alpha virt. eigenvalues --    1.56369   1.56383   1.57111   1.57204   1.57695
 Alpha virt. eigenvalues --    1.57981   1.58602   1.58842   1.59704   1.59841
 Alpha virt. eigenvalues --    1.60011   1.60734   1.61069   1.61294   1.61466
 Alpha virt. eigenvalues --    1.62001   1.62392   1.62535   1.62724   1.63476
 Alpha virt. eigenvalues --    1.63717   1.64518   1.64989   1.65365   1.65744
 Alpha virt. eigenvalues --    1.66217   1.66489   1.66493   1.67181   1.67233
 Alpha virt. eigenvalues --    1.67467   1.67905   1.68316   1.68390   1.68667
 Alpha virt. eigenvalues --    1.68869   1.69284   1.69764   1.70152   1.70356
 Alpha virt. eigenvalues --    1.70819   1.70908   1.71397   1.72038   1.72407
 Alpha virt. eigenvalues --    1.72583   1.72845   1.73425   1.73703   1.74021
 Alpha virt. eigenvalues --    1.74653   1.74929   1.75376   1.75769   1.76407
 Alpha virt. eigenvalues --    1.76593   1.76831   1.77115   1.77220   1.77921
 Alpha virt. eigenvalues --    1.78310   1.78566   1.78892   1.79064   1.79409
 Alpha virt. eigenvalues --    1.80063   1.80313   1.80543   1.80907   1.81134
 Alpha virt. eigenvalues --    1.81436   1.81846   1.82623   1.82893   1.83249
 Alpha virt. eigenvalues --    1.83588   1.83705   1.83964   1.84894   1.85167
 Alpha virt. eigenvalues --    1.85535   1.85963   1.86154   1.86843   1.87114
 Alpha virt. eigenvalues --    1.87541   1.87924   1.88354   1.88841   1.89082
 Alpha virt. eigenvalues --    1.89924   1.90155   1.90567   1.90761   1.91008
 Alpha virt. eigenvalues --    1.91371   1.91807   1.92007   1.92659   1.92964
 Alpha virt. eigenvalues --    1.93605   1.94205   1.94309   1.94958   1.95371
 Alpha virt. eigenvalues --    1.95714   1.96016   1.96164   1.96816   1.97156
 Alpha virt. eigenvalues --    1.97393   1.97511   1.98440   1.98877   1.98983
 Alpha virt. eigenvalues --    1.99840   1.99980   2.00344   2.00367   2.01367
 Alpha virt. eigenvalues --    2.01891   2.02021   2.02441   2.02896   2.03643
 Alpha virt. eigenvalues --    2.04042   2.04424   2.05226   2.05669   2.05928
 Alpha virt. eigenvalues --    2.06303   2.06646   2.07038   2.08151   2.08194
 Alpha virt. eigenvalues --    2.08796   2.08965   2.09660   2.09795   2.10334
 Alpha virt. eigenvalues --    2.10980   2.11601   2.12177   2.12545   2.12905
 Alpha virt. eigenvalues --    2.13918   2.14007   2.14305   2.15032   2.15269
 Alpha virt. eigenvalues --    2.16268   2.17043   2.17938   2.18220   2.18399
 Alpha virt. eigenvalues --    2.19281   2.19711   2.20117   2.20168   2.21224
 Alpha virt. eigenvalues --    2.21466   2.21913   2.22365   2.22838   2.23444
 Alpha virt. eigenvalues --    2.23917   2.24247   2.24951   2.25710   2.25937
 Alpha virt. eigenvalues --    2.26521   2.27185   2.27710   2.27955   2.29315
 Alpha virt. eigenvalues --    2.29586   2.29671   2.30001   2.31003   2.31198
 Alpha virt. eigenvalues --    2.31918   2.32517   2.32938   2.33540   2.33802
 Alpha virt. eigenvalues --    2.34082   2.34685   2.35098   2.35908   2.36544
 Alpha virt. eigenvalues --    2.36835   2.37129   2.37833   2.38605   2.39377
 Alpha virt. eigenvalues --    2.40492   2.41055   2.41465   2.41780   2.42119
 Alpha virt. eigenvalues --    2.42814   2.43004   2.43417   2.44086   2.45245
 Alpha virt. eigenvalues --    2.45368   2.45441   2.45915   2.47048   2.47164
 Alpha virt. eigenvalues --    2.47571   2.48649   2.50199   2.50644   2.50776
 Alpha virt. eigenvalues --    2.51290   2.51696   2.52151   2.52600   2.53116
 Alpha virt. eigenvalues --    2.54152   2.54592   2.54915   2.55754   2.56586
 Alpha virt. eigenvalues --    2.57646   2.58372   2.58782   2.59143   2.59978
 Alpha virt. eigenvalues --    2.60423   2.61124   2.61823   2.61939   2.62661
 Alpha virt. eigenvalues --    2.62910   2.64123   2.64425   2.65130   2.65804
 Alpha virt. eigenvalues --    2.66170   2.66952   2.68048   2.68641   2.68958
 Alpha virt. eigenvalues --    2.69805   2.70036   2.71190   2.71687   2.72106
 Alpha virt. eigenvalues --    2.73180   2.73439   2.73813   2.74562   2.74879
 Alpha virt. eigenvalues --    2.76027   2.76706   2.77107   2.78461   2.78661
 Alpha virt. eigenvalues --    2.79562   2.80271   2.80846   2.81460   2.82374
 Alpha virt. eigenvalues --    2.82982   2.83561   2.84244   2.84453   2.84648
 Alpha virt. eigenvalues --    2.85992   2.86563   2.86897   2.87392   2.88493
 Alpha virt. eigenvalues --    2.88901   2.89378   2.89788   2.90785   2.91323
 Alpha virt. eigenvalues --    2.91675   2.92165   2.92972   2.93324   2.94756
 Alpha virt. eigenvalues --    2.95032   2.95996   2.96325   2.97465   2.97847
 Alpha virt. eigenvalues --    2.98537   2.99272   3.00279   3.01013   3.01297
 Alpha virt. eigenvalues --    3.02082   3.02222   3.03021   3.04090   3.04155
 Alpha virt. eigenvalues --    3.04992   3.05671   3.06340   3.07048   3.07529
 Alpha virt. eigenvalues --    3.07698   3.08765   3.09634   3.10216   3.10749
 Alpha virt. eigenvalues --    3.11372   3.11919   3.12229   3.12566   3.12906
 Alpha virt. eigenvalues --    3.13370   3.14254   3.15556   3.16672   3.17489
 Alpha virt. eigenvalues --    3.17596   3.18191   3.18457   3.18904   3.19612
 Alpha virt. eigenvalues --    3.20796   3.21029   3.21179   3.21700   3.22740
 Alpha virt. eigenvalues --    3.23012   3.23808   3.24059   3.24751   3.25187
 Alpha virt. eigenvalues --    3.25488   3.25743   3.26776   3.27405   3.29204
 Alpha virt. eigenvalues --    3.29410   3.30655   3.31047   3.31379   3.32294
 Alpha virt. eigenvalues --    3.32824   3.33223   3.33914   3.34447   3.35195
 Alpha virt. eigenvalues --    3.35480   3.36214   3.36695   3.37175   3.37325
 Alpha virt. eigenvalues --    3.38040   3.38355   3.39782   3.40096   3.40763
 Alpha virt. eigenvalues --    3.40917   3.41681   3.42106   3.42643   3.43234
 Alpha virt. eigenvalues --    3.43860   3.44072   3.44751   3.45208   3.45363
 Alpha virt. eigenvalues --    3.45973   3.46278   3.46583   3.47330   3.47591
 Alpha virt. eigenvalues --    3.48073   3.49204   3.49901   3.50305   3.50761
 Alpha virt. eigenvalues --    3.51395   3.52643   3.52893   3.53586   3.54068
 Alpha virt. eigenvalues --    3.54325   3.55955   3.56720   3.57266   3.57754
 Alpha virt. eigenvalues --    3.58828   3.59348   3.59786   3.60502   3.60625
 Alpha virt. eigenvalues --    3.60777   3.61202   3.61693   3.62754   3.63982
 Alpha virt. eigenvalues --    3.64069   3.64794   3.65438   3.65949   3.66393
 Alpha virt. eigenvalues --    3.66880   3.67188   3.67603   3.67911   3.68681
 Alpha virt. eigenvalues --    3.69051   3.69472   3.70208   3.70886   3.71157
 Alpha virt. eigenvalues --    3.71460   3.72127   3.72660   3.72835   3.73238
 Alpha virt. eigenvalues --    3.73797   3.74345   3.74914   3.75424   3.75720
 Alpha virt. eigenvalues --    3.76346   3.76553   3.76879   3.77527   3.77678
 Alpha virt. eigenvalues --    3.78300   3.78695   3.78994   3.79349   3.79905
 Alpha virt. eigenvalues --    3.80758   3.81161   3.81576   3.81890   3.82318
 Alpha virt. eigenvalues --    3.83114   3.84356   3.84405   3.85312   3.85880
 Alpha virt. eigenvalues --    3.86556   3.87355   3.87723   3.87974   3.88142
 Alpha virt. eigenvalues --    3.88556   3.89804   3.90472   3.90562   3.91099
 Alpha virt. eigenvalues --    3.91227   3.92024   3.92359   3.92605   3.93486
 Alpha virt. eigenvalues --    3.93852   3.94221   3.94981   3.95322   3.95755
 Alpha virt. eigenvalues --    3.96499   3.96939   3.97120   3.98028   3.98291
 Alpha virt. eigenvalues --    3.99009   3.99676   3.99972   4.00440   4.00705
 Alpha virt. eigenvalues --    4.01222   4.01754   4.02429   4.03073   4.03762
 Alpha virt. eigenvalues --    4.04232   4.05204   4.05742   4.05842   4.06505
 Alpha virt. eigenvalues --    4.06979   4.08036   4.08623   4.08805   4.09564
 Alpha virt. eigenvalues --    4.10773   4.11412   4.11963   4.12413   4.12886
 Alpha virt. eigenvalues --    4.13334   4.14366   4.15221   4.15273   4.15694
 Alpha virt. eigenvalues --    4.16860   4.17004   4.17265   4.17509   4.18306
 Alpha virt. eigenvalues --    4.19373   4.19918   4.20202   4.20522   4.21025
 Alpha virt. eigenvalues --    4.21732   4.22181   4.22288   4.22802   4.22988
 Alpha virt. eigenvalues --    4.23952   4.24183   4.24596   4.25153   4.25652
 Alpha virt. eigenvalues --    4.26162   4.26692   4.26908   4.28053   4.28465
 Alpha virt. eigenvalues --    4.28884   4.29969   4.30841   4.30912   4.31888
 Alpha virt. eigenvalues --    4.32668   4.33081   4.33660   4.34046   4.34364
 Alpha virt. eigenvalues --    4.34690   4.35160   4.35694   4.36703   4.37417
 Alpha virt. eigenvalues --    4.37681   4.38045   4.39111   4.39970   4.40709
 Alpha virt. eigenvalues --    4.41377   4.41846   4.42567   4.43428   4.43964
 Alpha virt. eigenvalues --    4.45341   4.46292   4.46648   4.47466   4.48064
 Alpha virt. eigenvalues --    4.48710   4.49159   4.49340   4.49882   4.50747
 Alpha virt. eigenvalues --    4.50946   4.52145   4.53367   4.53794   4.54533
 Alpha virt. eigenvalues --    4.55215   4.55315   4.56123   4.56785   4.56876
 Alpha virt. eigenvalues --    4.58161   4.58978   4.59931   4.60144   4.60972
 Alpha virt. eigenvalues --    4.61973   4.62376   4.63127   4.63879   4.65105
 Alpha virt. eigenvalues --    4.65495   4.66084   4.67186   4.68056   4.68365
 Alpha virt. eigenvalues --    4.69158   4.69814   4.70444   4.70602   4.71804
 Alpha virt. eigenvalues --    4.73256   4.74289   4.75188   4.75395   4.76509
 Alpha virt. eigenvalues --    4.77296   4.77745   4.78372   4.78699   4.79449
 Alpha virt. eigenvalues --    4.80072   4.80973   4.81399   4.83105   4.84184
 Alpha virt. eigenvalues --    4.84664   4.85571   4.85780   4.86369   4.86800
 Alpha virt. eigenvalues --    4.87963   4.88263   4.88689   4.89599   4.89878
 Alpha virt. eigenvalues --    4.91139   4.91816   4.92899   4.94692   4.95330
 Alpha virt. eigenvalues --    4.96759   4.97281   4.98424   4.98867   4.99878
 Alpha virt. eigenvalues --    5.01519   5.03190   5.03557   5.05201   5.05953
 Alpha virt. eigenvalues --    5.06280   5.06519   5.08314   5.09643   5.10765
 Alpha virt. eigenvalues --    5.10902   5.11403   5.11940   5.13056   5.13334
 Alpha virt. eigenvalues --    5.14152   5.14720   5.15693   5.16755   5.17400
 Alpha virt. eigenvalues --    5.17917   5.18764   5.20603   5.20950   5.21188
 Alpha virt. eigenvalues --    5.22168   5.22502   5.23204   5.23734   5.23944
 Alpha virt. eigenvalues --    5.25199   5.25604   5.25980   5.26965   5.27999
 Alpha virt. eigenvalues --    5.28753   5.29446   5.31201   5.31821   5.32177
 Alpha virt. eigenvalues --    5.32583   5.33480   5.34580   5.35109   5.35464
 Alpha virt. eigenvalues --    5.36027   5.38587   5.39809   5.40983   5.43846
 Alpha virt. eigenvalues --    5.44975   5.47435   5.48512   5.49177   5.50037
 Alpha virt. eigenvalues --    5.50388   5.51906   5.53271   5.54307   5.54762
 Alpha virt. eigenvalues --    5.55889   5.57051   5.58755   5.59939   5.60349
 Alpha virt. eigenvalues --    5.62012   5.62810   5.63920   5.64397   5.64575
 Alpha virt. eigenvalues --    5.65538   5.66411   5.67961   5.68507   5.68601
 Alpha virt. eigenvalues --    5.69920   5.70241   5.71293   5.73929   5.76818
 Alpha virt. eigenvalues --    5.77276   5.78607   5.80938   5.81197   5.82363
 Alpha virt. eigenvalues --    5.82866   5.83927   5.86095   5.87874   5.87998
 Alpha virt. eigenvalues --    5.89410   5.90614   5.93238   5.94845   5.96217
 Alpha virt. eigenvalues --    5.96986   5.97996   5.98306   5.98655   5.99126
 Alpha virt. eigenvalues --    6.00589   6.01881   6.02997   6.05859   6.07004
 Alpha virt. eigenvalues --    6.09181   6.10223   6.10585   6.11668   6.12520
 Alpha virt. eigenvalues --    6.16465   6.17106   6.17961   6.18818   6.20373
 Alpha virt. eigenvalues --    6.20858   6.22266   6.23933   6.24535   6.29944
 Alpha virt. eigenvalues --    6.32878   6.34352   6.35338   6.36027   6.37618
 Alpha virt. eigenvalues --    6.42144   6.43653   6.45552   6.46888   6.48914
 Alpha virt. eigenvalues --    6.51644   6.53456   6.59298   6.59804   6.63899
 Alpha virt. eigenvalues --    6.65809   6.67204   6.67509   6.70676   6.72445
 Alpha virt. eigenvalues --    6.72949   6.73293   6.75317   6.77215   6.79589
 Alpha virt. eigenvalues --    6.80749   6.85626   6.88201   6.88717   6.88740
 Alpha virt. eigenvalues --    6.89407   6.91478   6.93254   6.94243   6.95806
 Alpha virt. eigenvalues --    6.98097   6.99503   7.01498   7.02707   7.06706
 Alpha virt. eigenvalues --    7.07944   7.11188   7.12714   7.14593   7.18723
 Alpha virt. eigenvalues --    7.21601   7.23963   7.24558   7.25762   7.29053
 Alpha virt. eigenvalues --    7.30995   7.33001   7.33499   7.37021   7.38781
 Alpha virt. eigenvalues --    7.40756   7.44570   7.45733   7.48476   7.54159
 Alpha virt. eigenvalues --    7.56494   7.58827   7.61890   7.64804   7.70038
 Alpha virt. eigenvalues --    7.73960   7.75027   7.75298   7.83774   7.85409
 Alpha virt. eigenvalues --    7.85750   7.91510   7.94303   7.99006   8.01886
 Alpha virt. eigenvalues --    8.06951   8.07593   8.19871   8.38242   8.50826
 Alpha virt. eigenvalues --    8.56294   8.64703   8.66701   8.68581   8.82413
 Alpha virt. eigenvalues --    8.85282   8.86676   8.87585   8.89083   8.89502
 Alpha virt. eigenvalues --    8.90985   8.92752   8.94616   8.95225   8.96018
 Alpha virt. eigenvalues --    9.04159   9.06623   9.07816   9.09215   9.11428
 Alpha virt. eigenvalues --    9.16153   9.18809   9.19440   9.21699   9.22208
 Alpha virt. eigenvalues --    9.23416   9.24004   9.25558   9.28880   9.29441
 Alpha virt. eigenvalues --    9.29803   9.30351   9.31946   9.33160   9.34818
 Alpha virt. eigenvalues --    9.37410   9.40353   9.40551   9.41835   9.42027
 Alpha virt. eigenvalues --    9.43037   9.43862   9.44576   9.46064   9.49074
 Alpha virt. eigenvalues --    9.50153   9.50955   9.51188   9.53718   9.56937
 Alpha virt. eigenvalues --    9.57349   9.61662   9.66066   9.72071   9.72807
 Alpha virt. eigenvalues --    9.77829   9.79993   9.85333   9.87042   9.88287
 Alpha virt. eigenvalues --    9.95561  10.02042  11.46962  15.00802  15.49833
 Alpha virt. eigenvalues --   15.63939  15.71481  15.94680  16.40711  16.48586
 Alpha virt. eigenvalues --   16.56041  16.71313  17.10778  17.35297  17.68434
 Alpha virt. eigenvalues --   17.99559  18.09034  18.25275  18.70339  18.81170
 Alpha virt. eigenvalues --   19.49675  19.73517  20.32827  20.77305  21.26852
 Alpha virt. eigenvalues --   21.70772
          Condensed to atoms (all electrons):
               1          2          3          4          5          6
     1  C   10.753939  -0.151009  -0.601706   0.070996   0.035496   0.002138
     2  N   -0.151009   8.692768   0.241159  -0.142623  -0.444202  -0.016545
     3  C   -0.601706   0.241159   6.343200   0.303856   0.344974  -0.211523
     4  O    0.070996  -0.142623   0.303856   9.093500  -0.186222   0.028604
     5  O    0.035496  -0.444202   0.344974  -0.186222   8.723893   0.157880
     6  C    0.002138  -0.016545  -0.211523   0.028604   0.157880   5.883685
     7  C   -0.015162  -0.014196   0.030539  -0.028621  -0.114100  -0.033934
     8  C   -0.000868   0.006216  -0.002601  -0.001362   0.006905  -0.030254
     9  C   -2.017777  -0.239808  -0.167999   0.037160  -0.071612  -0.022313
    10  C    0.391091   0.004929  -0.143932   0.014361   0.015351  -0.012537
    11  C   -0.344741   0.055561   0.098441  -0.004564   0.000101   0.003333
    12  C    0.059764   0.066928  -0.081848   0.034565   0.008155   0.001125
    13  C   -1.031103  -0.409439   0.021465  -0.130998  -0.039059  -0.053873
    14  H   -0.291421  -0.150408  -0.301984  -0.030235   0.041525  -0.040426
    15  H   -0.007104   0.016164  -0.000084   0.000972  -0.050604   0.307008
    16  H    0.001476  -0.001887  -0.014651  -0.008764  -0.020810   0.317435
    17  H   -0.003466  -0.004733  -0.000711   0.005526  -0.055882   0.060904
    18  H   -0.001328  -0.004961  -0.010628   0.002221  -0.043967   0.066628
    19  H    0.000254  -0.000097   0.005076   0.000314   0.001569  -0.007128
    20  H    0.000083  -0.000067   0.000810  -0.000141  -0.000659  -0.005305
    21  H    0.000379  -0.000521   0.005268   0.000029   0.001069  -0.006848
    22  H   -0.956553   0.133568  -0.083318   0.008047  -0.003342  -0.004924
    23  Cl   0.000565  -0.015802   0.021301  -0.006331  -0.000042  -0.001811
    24  H   -0.570702  -0.228868   0.057472  -0.142431  -0.005217  -0.038947
    25  S   -0.135711   0.010388  -0.020283  -0.000254  -0.000141  -0.000649
    26  H   -0.043391   0.009939   0.000582  -0.000311  -0.000182   0.000186
    27  F    0.042879  -0.007195   0.001661   0.000066  -0.000186   0.000155
    28  F    0.019634   0.001544   0.001053  -0.000001   0.000035  -0.000012
    29  F    0.026170  -0.011242   0.000161   0.000021  -0.000463   0.000120
    30  F    0.038216  -0.001359   0.001344  -0.000011  -0.000021  -0.000011
    31  F   -0.009111   0.000202   0.000047   0.000006  -0.000013   0.000004
    32  O   -0.004778  -0.002892  -0.008415   0.000160  -0.006909  -0.005357
    33  O    0.051710  -0.195219  -0.043224  -0.006938  -0.004453   0.009634
    34  C   -0.095590  -0.002588  -0.034765   0.000827  -0.013110  -0.003910
    35  C    0.015085  -0.011348   0.006430  -0.000223   0.003305   0.007505
    36  C   -0.001650  -0.003635  -0.002632   0.000111   0.000929   0.000186
    37  H    0.000726  -0.001632   0.000337  -0.000030   0.000792   0.001023
    38  H   -0.001842   0.000859   0.000682  -0.000003   0.000357   0.000356
    39  H   -0.003365   0.000547  -0.000834   0.000004  -0.000079  -0.001819
    40  H    0.000766  -0.000524  -0.000379  -0.000009   0.000039   0.000206
    41  H    0.000703  -0.001160   0.000080   0.000057  -0.000769  -0.000611
               7          8          9         10         11         12
     1  C   -0.015162  -0.000868  -2.017777   0.391091  -0.344741   0.059764
     2  N   -0.014196   0.006216  -0.239808   0.004929   0.055561   0.066928
     3  C    0.030539  -0.002601  -0.167999  -0.143932   0.098441  -0.081848
     4  O   -0.028621  -0.001362   0.037160   0.014361  -0.004564   0.034565
     5  O   -0.114100   0.006905  -0.071612   0.015351   0.000101   0.008155
     6  C   -0.033934  -0.030254  -0.022313  -0.012537   0.003333   0.001125
     7  C    5.763232   0.070485   0.005127   0.000671  -0.000106   0.000836
     8  C    0.070485   5.840950   0.000723  -0.000236   0.000037   0.000027
     9  C    0.005127   0.000723  12.186448  -1.780629   0.234198  -0.185399
    10  C    0.000671  -0.000236  -1.780629  10.402277  -1.926910   0.346464
    11  C   -0.000106   0.000037   0.234198  -1.926910   9.089868  -0.769918
    12  C    0.000836   0.000027  -0.185399   0.346464  -0.769918   7.428488
    13  C   -0.001323  -0.000116   0.027084  -0.547263   0.322078  -0.564756
    14  H    0.000667  -0.000668   0.016412  -0.051478   0.010905  -0.021935
    15  H    0.013072  -0.009673   0.000549  -0.001581   0.000474  -0.001108
    16  H    0.011099  -0.003352  -0.004514  -0.000182   0.000375  -0.000818
    17  H    0.383772  -0.048775   0.001140  -0.000154   0.000078  -0.000058
    18  H    0.384053  -0.036940   0.000667   0.000147  -0.000064   0.000110
    19  H    0.028268   0.370057   0.000102   0.000043  -0.000023   0.000020
    20  H   -0.036131   0.456411   0.000031  -0.000040   0.000011  -0.000002
    21  H    0.028676   0.367950  -0.000017   0.000047  -0.000012   0.000041
    22  H    0.000724   0.000001  -0.488806  -0.637326   0.210483  -0.001299
    23  Cl  -0.000031  -0.000012  -0.033331  -0.014091  -0.028006  -0.298448
    24  H   -0.001797  -0.000313  -0.107002  -0.135332   0.061946  -0.494620
    25  S    0.000013   0.000004   0.024396  -0.585844  -0.056486   0.009479
    26  H   -0.000000   0.000002   0.029077  -0.169205  -0.017413  -0.175791
    27  F    0.000002   0.000001   0.088118  -0.142696   0.000632   0.009767
    28  F    0.000000  -0.000000  -0.015622  -0.128240   0.067494  -0.013311
    29  F   -0.000002   0.000001   0.119963  -0.141815  -0.008151   0.014586
    30  F    0.000001  -0.000000  -0.011129  -0.119843   0.058876  -0.009306
    31  F   -0.000000   0.000000   0.002590   0.159356  -0.039250  -0.004351
    32  O    0.001264   0.000130   0.083653   0.017567  -0.011150   0.001333
    33  O   -0.000256  -0.001068   0.100201   0.019627  -0.006694   0.008407
    34  C    0.003589   0.000094   0.051647   0.033170  -0.004357   0.008585
    35  C   -0.001912  -0.000266  -0.022303   0.003091  -0.000890   0.000446
    36  C   -0.001102  -0.000036  -0.000371   0.001845  -0.000632   0.000393
    37  H   -0.000446  -0.000028  -0.001987   0.000499   0.000071  -0.000021
    38  H   -0.000082  -0.000019   0.001842  -0.000059  -0.000052   0.000032
    39  H    0.000344   0.000022   0.001661   0.000201  -0.000111   0.000013
    40  H    0.000053  -0.000007   0.000292  -0.000043  -0.000035   0.000034
    41  H    0.000051   0.000132  -0.001136   0.000607   0.000050  -0.000086
              13         14         15         16         17         18
     1  C   -1.031103  -0.291421  -0.007104   0.001476  -0.003466  -0.001328
     2  N   -0.409439  -0.150408   0.016164  -0.001887  -0.004733  -0.004961
     3  C    0.021465  -0.301984  -0.000084  -0.014651  -0.000711  -0.010628
     4  O   -0.130998  -0.030235   0.000972  -0.008764   0.005526   0.002221
     5  O   -0.039059   0.041525  -0.050604  -0.020810  -0.055882  -0.043967
     6  C   -0.053873  -0.040426   0.307008   0.317435   0.060904   0.066628
     7  C   -0.001323   0.000667   0.013072   0.011099   0.383772   0.384053
     8  C   -0.000116  -0.000668  -0.009673  -0.003352  -0.048775  -0.036940
     9  C    0.027084   0.016412   0.000549  -0.004514   0.001140   0.000667
    10  C   -0.547263  -0.051478  -0.001581  -0.000182  -0.000154   0.000147
    11  C    0.322078   0.010905   0.000474   0.000375   0.000078  -0.000064
    12  C   -0.564756  -0.021935  -0.001108  -0.000818  -0.000058   0.000110
    13  C    9.035713   0.041733  -0.001709   0.002182   0.000241  -0.000327
    14  H    0.041733   1.351993   0.004357  -0.001656  -0.001387  -0.003528
    15  H   -0.001709   0.004357   0.426467  -0.003177   0.025343  -0.023536
    16  H    0.002182  -0.001656  -0.003177   0.412171  -0.024972   0.021834
    17  H    0.000241  -0.001387   0.025343  -0.024972   0.441190   0.001755
    18  H   -0.000327  -0.003528  -0.023536   0.021834   0.001755   0.421366
    19  H   -0.000018   0.000137  -0.006928  -0.008262   0.000626   0.000601
    20  H   -0.000040  -0.000039  -0.001053   0.000560  -0.004124  -0.001881
    21  H    0.000115  -0.000053  -0.007317  -0.007838   0.001144  -0.001365
    22  H   -0.012832  -0.048749  -0.000820  -0.000793  -0.000011   0.000301
    23  Cl   0.163130   0.002777   0.000035  -0.000000  -0.000003  -0.000017
    24  H    0.195018   0.030349  -0.002316   0.000715  -0.000128  -0.000675
    25  S    0.030351  -0.014968  -0.000032  -0.000050  -0.000011   0.000024
    26  H   -0.056425  -0.001970   0.000028   0.000005   0.000003   0.000004
    27  F   -0.007513   0.000656   0.000006   0.000014  -0.000003   0.000003
    28  F    0.002441  -0.000104   0.000004  -0.000000  -0.000001   0.000001
    29  F   -0.013476  -0.001342   0.000010   0.000012   0.000008  -0.000005
    30  F   -0.002590   0.001693  -0.000000   0.000001   0.000002  -0.000001
    31  F    0.003907   0.000622   0.000000  -0.000000  -0.000000  -0.000001
    32  O    0.001074  -0.053166  -0.000095  -0.000048  -0.000005  -0.000209
    33  O   -0.024111  -0.160413  -0.000422   0.000273   0.000278  -0.000234
    34  C   -0.012287  -0.067205  -0.000217  -0.001363   0.000218   0.000307
    35  C    0.000575   0.025454   0.000484   0.000041   0.000077   0.000079
    36  C   -0.001541  -0.007489   0.000296  -0.000140   0.000991  -0.000397
    37  H    0.000053   0.000039   0.000036   0.000046   0.000044   0.000025
    38  H    0.000038   0.002988   0.000017  -0.000021   0.000036   0.000052
    39  H   -0.000127  -0.000434   0.000150  -0.000397   0.000127  -0.000161
    40  H   -0.000109   0.001042   0.000022   0.000006   0.000136  -0.000275
    41  H    0.000457  -0.004393  -0.000123   0.000099  -0.000135   0.000051
              19         20         21         22         23         24
     1  C    0.000254   0.000083   0.000379  -0.956553   0.000565  -0.570702
     2  N   -0.000097  -0.000067  -0.000521   0.133568  -0.015802  -0.228868
     3  C    0.005076   0.000810   0.005268  -0.083318   0.021301   0.057472
     4  O    0.000314  -0.000141   0.000029   0.008047  -0.006331  -0.142431
     5  O    0.001569  -0.000659   0.001069  -0.003342  -0.000042  -0.005217
     6  C   -0.007128  -0.005305  -0.006848  -0.004924  -0.001811  -0.038947
     7  C    0.028268  -0.036131   0.028676   0.000724  -0.000031  -0.001797
     8  C    0.370057   0.456411   0.367950   0.000001  -0.000012  -0.000313
     9  C    0.000102   0.000031  -0.000017  -0.488806  -0.033331  -0.107002
    10  C    0.000043  -0.000040   0.000047  -0.637326  -0.014091  -0.135332
    11  C   -0.000023   0.000011  -0.000012   0.210483  -0.028006   0.061946
    12  C    0.000020  -0.000002   0.000041  -0.001299  -0.298448  -0.494620
    13  C   -0.000018  -0.000040   0.000115  -0.012832   0.163130   0.195018
    14  H    0.000137  -0.000039  -0.000053  -0.048749   0.002777   0.030349
    15  H   -0.006928  -0.001053  -0.007317  -0.000820   0.000035  -0.002316
    16  H   -0.008262   0.000560  -0.007838  -0.000793  -0.000000   0.000715
    17  H    0.000626  -0.004124   0.001144  -0.000011  -0.000003  -0.000128
    18  H    0.000601  -0.001881  -0.001365   0.000301  -0.000017  -0.000675
    19  H    0.320479   0.000249   0.018818   0.000049  -0.000002  -0.000077
    20  H    0.000249   0.310825   0.000434  -0.000013  -0.000000  -0.000008
    21  H    0.018818   0.000434   0.322871   0.000020  -0.000003   0.000125
    22  H    0.000049  -0.000013   0.000020   2.306766  -0.006586  -0.026475
    23  Cl  -0.000002  -0.000000  -0.000003  -0.006586  17.704821   0.059663
    24  H   -0.000077  -0.000008   0.000125  -0.026475   0.059663   1.744971
    25  S    0.000001   0.000000  -0.000001   0.047918  -0.006854  -0.007097
    26  H   -0.000001   0.000000  -0.000001  -0.010435  -0.063656  -0.035218
    27  F    0.000000   0.000000  -0.000000  -0.096567   0.000080  -0.000537
    28  F    0.000000  -0.000000  -0.000000   0.003880  -0.000309   0.000691
    29  F   -0.000000   0.000000   0.000000  -0.063797   0.000001  -0.000498
    30  F   -0.000000  -0.000000   0.000000  -0.006343  -0.000310   0.000384
    31  F    0.000000  -0.000000   0.000000  -0.017187   0.000067   0.000083
    32  O    0.000005   0.000009   0.000003  -0.221973  -0.000112   0.000707
    33  O    0.000013  -0.000175   0.000062  -0.022531  -0.000346  -0.000854
    34  C    0.000007   0.000012   0.000026  -0.011668  -0.000709  -0.005984
    35  C   -0.000024   0.000001  -0.000009  -0.050883  -0.000004  -0.000058
    36  C   -0.000021   0.000024  -0.000049   0.005038  -0.000008  -0.000072
    37  H   -0.000011   0.000011  -0.000004   0.000431   0.000004   0.000042
    38  H    0.000000  -0.000004   0.000001  -0.004177  -0.000002  -0.000091
    39  H    0.000082  -0.000072  -0.000002   0.002550  -0.000005  -0.000108
    40  H   -0.000009   0.000000  -0.000003  -0.000356  -0.000001  -0.000000
    41  H   -0.000008   0.000017   0.000011   0.002205   0.000003   0.000120
              25         26         27         28         29         30
     1  C   -0.135711  -0.043391   0.042879   0.019634   0.026170   0.038216
     2  N    0.010388   0.009939  -0.007195   0.001544  -0.011242  -0.001359
     3  C   -0.020283   0.000582   0.001661   0.001053   0.000161   0.001344
     4  O   -0.000254  -0.000311   0.000066  -0.000001   0.000021  -0.000011
     5  O   -0.000141  -0.000182  -0.000186   0.000035  -0.000463  -0.000021
     6  C   -0.000649   0.000186   0.000155  -0.000012   0.000120  -0.000011
     7  C    0.000013  -0.000000   0.000002   0.000000  -0.000002   0.000001
     8  C    0.000004   0.000002   0.000001  -0.000000   0.000001  -0.000000
     9  C    0.024396   0.029077   0.088118  -0.015622   0.119963  -0.011129
    10  C   -0.585844  -0.169205  -0.142696  -0.128240  -0.141815  -0.119843
    11  C   -0.056486  -0.017413   0.000632   0.067494  -0.008151   0.058876
    12  C    0.009479  -0.175791   0.009767  -0.013311   0.014586  -0.009306
    13  C    0.030351  -0.056425  -0.007513   0.002441  -0.013476  -0.002590
    14  H   -0.014968  -0.001970   0.000656  -0.000104  -0.001342   0.001693
    15  H   -0.000032   0.000028   0.000006   0.000004   0.000010  -0.000000
    16  H   -0.000050   0.000005   0.000014  -0.000000   0.000012   0.000001
    17  H   -0.000011   0.000003  -0.000003  -0.000001   0.000008   0.000002
    18  H    0.000024   0.000004   0.000003   0.000001  -0.000005  -0.000001
    19  H    0.000001  -0.000001   0.000000   0.000000  -0.000000  -0.000000
    20  H    0.000000   0.000000   0.000000  -0.000000   0.000000  -0.000000
    21  H   -0.000001  -0.000001  -0.000000  -0.000000   0.000000   0.000000
    22  H    0.047918  -0.010435  -0.096567   0.003880  -0.063797  -0.006343
    23  Cl  -0.006854  -0.063656   0.000080  -0.000309   0.000001  -0.000310
    24  H   -0.007097  -0.035218  -0.000537   0.000691  -0.000498   0.000384
    25  S   13.961063   0.034966  -0.044226  -0.050338  -0.061243  -0.065844
    26  H    0.034966   1.055055   0.009858  -0.041356   0.009193  -0.041562
    27  F   -0.044226   0.009858   9.795605  -0.016902   0.013967   0.054796
    28  F   -0.050338  -0.041356  -0.016902   9.805236   0.053208   0.018370
    29  F   -0.061243   0.009193   0.013967   0.053208   9.774141  -0.015240
    30  F   -0.065844  -0.041562   0.054796   0.018370  -0.015240   9.808060
    31  F    0.130797  -0.020089  -0.098875  -0.099180  -0.099978  -0.103783
    32  O    0.008856  -0.000265  -0.004353  -0.000031  -0.000451   0.000524
    33  O    0.001068   0.000205   0.002888  -0.000147   0.003068  -0.000230
    34  C    0.004534   0.000177  -0.004112   0.000079  -0.010909   0.001035
    35  C   -0.002629   0.000110   0.001651  -0.000265   0.001462  -0.000241
    36  C    0.000348  -0.000034  -0.000256  -0.000004  -0.000050  -0.000018
    37  H   -0.000356  -0.000003   0.000157  -0.000002  -0.000005  -0.000033
    38  H   -0.000313   0.000030  -0.000258  -0.000028  -0.000534   0.000072
    39  H    0.000043  -0.000007  -0.000101   0.000003  -0.000075   0.000008
    40  H    0.000001  -0.000000   0.000014  -0.000001   0.000022  -0.000002
    41  H    0.000224  -0.000005   0.000066  -0.000005   0.000008  -0.000017
              31         32         33         34         35         36
     1  C   -0.009111  -0.004778   0.051710  -0.095590   0.015085  -0.001650
     2  N    0.000202  -0.002892  -0.195219  -0.002588  -0.011348  -0.003635
     3  C    0.000047  -0.008415  -0.043224  -0.034765   0.006430  -0.002632
     4  O    0.000006   0.000160  -0.006938   0.000827  -0.000223   0.000111
     5  O   -0.000013  -0.006909  -0.004453  -0.013110   0.003305   0.000929
     6  C    0.000004  -0.005357   0.009634  -0.003910   0.007505   0.000186
     7  C   -0.000000   0.001264  -0.000256   0.003589  -0.001912  -0.001102
     8  C    0.000000   0.000130  -0.001068   0.000094  -0.000266  -0.000036
     9  C    0.002590   0.083653   0.100201   0.051647  -0.022303  -0.000371
    10  C    0.159356   0.017567   0.019627   0.033170   0.003091   0.001845
    11  C   -0.039250  -0.011150  -0.006694  -0.004357  -0.000890  -0.000632
    12  C   -0.004351   0.001333   0.008407   0.008585   0.000446   0.000393
    13  C    0.003907   0.001074  -0.024111  -0.012287   0.000575  -0.001541
    14  H    0.000622  -0.053166  -0.160413  -0.067205   0.025454  -0.007489
    15  H    0.000000  -0.000095  -0.000422  -0.000217   0.000484   0.000296
    16  H   -0.000000  -0.000048   0.000273  -0.001363   0.000041  -0.000140
    17  H   -0.000000  -0.000005   0.000278   0.000218   0.000077   0.000991
    18  H   -0.000001  -0.000209  -0.000234   0.000307   0.000079  -0.000397
    19  H    0.000000   0.000005   0.000013   0.000007  -0.000024  -0.000021
    20  H   -0.000000   0.000009  -0.000175   0.000012   0.000001   0.000024
    21  H    0.000000   0.000003   0.000062   0.000026  -0.000009  -0.000049
    22  H   -0.017187  -0.221973  -0.022531  -0.011668  -0.050883   0.005038
    23  Cl   0.000067  -0.000112  -0.000346  -0.000709  -0.000004  -0.000008
    24  H    0.000083   0.000707  -0.000854  -0.005984  -0.000058  -0.000072
    25  S    0.130797   0.008856   0.001068   0.004534  -0.002629   0.000348
    26  H   -0.020089  -0.000265   0.000205   0.000177   0.000110  -0.000034
    27  F   -0.098875  -0.004353   0.002888  -0.004112   0.001651  -0.000256
    28  F   -0.099180  -0.000031  -0.000147   0.000079  -0.000265  -0.000004
    29  F   -0.099978  -0.000451   0.003068  -0.010909   0.001462  -0.000050
    30  F   -0.103783   0.000524  -0.000230   0.001035  -0.000241  -0.000018
    31  F    9.740155   0.001282   0.000131   0.000981   0.000621   0.000029
    32  O    0.001282   8.962887  -0.040343   0.436321  -0.186309  -0.009941
    33  O    0.000131  -0.040343   8.943470   0.346357  -0.096893  -0.041134
    34  C    0.000981   0.436321   0.346357   5.533136  -0.585220   0.109442
    35  C    0.000621  -0.186309  -0.096893  -0.585220   5.989381   0.059431
    36  C    0.000029  -0.009941  -0.041134   0.109442   0.059431   5.771617
    37  H    0.000016  -0.016329  -0.031017  -0.089853   0.508555  -0.021989
    38  H    0.000171  -0.002550  -0.019028  -0.088125   0.508025  -0.035296
    39  H   -0.000001   0.002006   0.005966  -0.016014   0.037918   0.320988
    40  H    0.000002  -0.003902  -0.004910   0.025832  -0.064415   0.453257
    41  H   -0.000003   0.003506  -0.006395  -0.006508   0.029775   0.365512
              37         38         39         40         41
     1  C    0.000726  -0.001842  -0.003365   0.000766   0.000703
     2  N   -0.001632   0.000859   0.000547  -0.000524  -0.001160
     3  C    0.000337   0.000682  -0.000834  -0.000379   0.000080
     4  O   -0.000030  -0.000003   0.000004  -0.000009   0.000057
     5  O    0.000792   0.000357  -0.000079   0.000039  -0.000769
     6  C    0.001023   0.000356  -0.001819   0.000206  -0.000611
     7  C   -0.000446  -0.000082   0.000344   0.000053   0.000051
     8  C   -0.000028  -0.000019   0.000022  -0.000007   0.000132
     9  C   -0.001987   0.001842   0.001661   0.000292  -0.001136
    10  C    0.000499  -0.000059   0.000201  -0.000043   0.000607
    11  C    0.000071  -0.000052  -0.000111  -0.000035   0.000050
    12  C   -0.000021   0.000032   0.000013   0.000034  -0.000086
    13  C    0.000053   0.000038  -0.000127  -0.000109   0.000457
    14  H    0.000039   0.002988  -0.000434   0.001042  -0.004393
    15  H    0.000036   0.000017   0.000150   0.000022  -0.000123
    16  H    0.000046  -0.000021  -0.000397   0.000006   0.000099
    17  H    0.000044   0.000036   0.000127   0.000136  -0.000135
    18  H    0.000025   0.000052  -0.000161  -0.000275   0.000051
    19  H   -0.000011   0.000000   0.000082  -0.000009  -0.000008
    20  H    0.000011  -0.000004  -0.000072   0.000000   0.000017
    21  H   -0.000004   0.000001  -0.000002  -0.000003   0.000011
    22  H    0.000431  -0.004177   0.002550  -0.000356   0.002205
    23  Cl   0.000004  -0.000002  -0.000005  -0.000001   0.000003
    24  H    0.000042  -0.000091  -0.000108  -0.000000   0.000120
    25  S   -0.000356  -0.000313   0.000043   0.000001   0.000224
    26  H   -0.000003   0.000030  -0.000007  -0.000000  -0.000005
    27  F    0.000157  -0.000258  -0.000101   0.000014   0.000066
    28  F   -0.000002  -0.000028   0.000003  -0.000001  -0.000005
    29  F   -0.000005  -0.000534  -0.000075   0.000022   0.000008
    30  F   -0.000033   0.000072   0.000008  -0.000002  -0.000017
    31  F    0.000016   0.000171  -0.000001   0.000002  -0.000003
    32  O   -0.016329  -0.002550   0.002006  -0.003902   0.003506
    33  O   -0.031017  -0.019028   0.005966  -0.004910  -0.006395
    34  C   -0.089853  -0.088125  -0.016014   0.025832  -0.006508
    35  C    0.508555   0.508025   0.037918  -0.064415   0.029775
    36  C   -0.021989  -0.035296   0.320988   0.453257   0.365512
    37  H    0.408821   0.031602  -0.004241  -0.013283   0.002937
    38  H    0.031602   0.414746   0.003068  -0.013195  -0.001895
    39  H   -0.004241   0.003068   0.317699  -0.010275   0.020369
    40  H   -0.013283  -0.013195  -0.010275   0.378311  -0.011130
    41  H    0.002937  -0.001895   0.020369  -0.011130   0.341601
 Mulliken charges:
               1
     1  C    0.776308
     2  N   -0.176813
     3  C    0.245578
     4  O   -0.911332
     5  O   -0.280330
     6  C   -0.349378
     7  C   -0.477339
     8  C   -0.983558
     9  C   -1.841327
    10  C    1.128091
    11  C   -0.995447
    12  C    0.623478
    13  C   -0.936618
    14  H    0.722103
    15  H    0.322403
    16  H    0.335354
    17  H    0.220922
    18  H    0.230272
    19  H    0.275836
    20  H    0.280264
    21  H    0.276954
    22  H    1.055786
    23  Cl  -0.475615
    24  H    0.653136
    25  S    2.788854
    26  H    0.527897
    27  F   -0.599263
    28  F   -0.607812
    29  F   -0.586845
    30  F   -0.605487
    31  F   -0.549246
    32  O   -0.941704
    33  O   -0.786322
    34  C    0.498118
    35  C   -0.175612
    36  C   -0.961939
    37  H    0.225003
    38  H    0.202602
    39  H    0.324461
    40  H    0.262828
    41  H    0.265739
 Sum of Mulliken charges =  -1.00000
 Mulliken charges with hydrogens summed into heavy atoms:
               1
     1  C    0.776308
     2  N    0.545290
     3  C    0.245578
     4  O   -0.911332
     5  O   -0.280330
     6  C    0.308379
     7  C   -0.026145
     8  C   -0.150504
     9  C   -0.785540
    10  C    1.128091
    11  C   -0.467550
    12  C    0.623478
    13  C   -0.283481
    23  Cl  -0.475615
    25  S    2.788854
    27  F   -0.599263
    28  F   -0.607812
    29  F   -0.586845
    30  F   -0.605487
    31  F   -0.549246
    32  O   -0.941704
    33  O   -0.786322
    34  C    0.498118
    35  C    0.251994
    36  C   -0.108911
 Electronic spatial extent (au):  <R**2>=          13228.8423
 Charge=             -1.0000 electrons
 Dipole moment (field-independent basis, Debye):
    X=              1.3689    Y=             -3.5052    Z=             -0.6253  Tot=              3.8146
 Quadrupole moment (field-independent basis, Debye-Ang):
   XX=           -192.3325   YY=           -204.3175   ZZ=           -166.0795
   XY=             -0.3329   XZ=              2.8138   YZ=             -1.7583
 Traceless Quadrupole moment (field-independent basis, Debye-Ang):
   XX=             -4.7560   YY=            -16.7410   ZZ=             21.4970
   XY=             -0.3329   XZ=              2.8138   YZ=             -1.7583
 Octapole moment (field-independent basis, Debye-Ang**2):
  XXX=            -32.8260  YYY=             43.9086  ZZZ=              5.9484  XYY=            -52.6544
  XXY=            -18.1666  XXZ=              9.2228  XZZ=            -23.9033  YZZ=              5.0180
  YYZ=             -4.2829  XYZ=             14.3527
 Hexadecapole moment (field-independent basis, Debye-Ang**3):
 XXXX=         -11459.1383 YYYY=          -6036.7819 ZZZZ=           -435.9515 XXXY=            -88.9541
 XXXZ=             21.9912 YYYX=           -234.1846 YYYZ=              1.1721 ZZZX=             -4.9348
 ZZZY=              7.6690 XXYY=          -2973.8961 XXZZ=          -1912.3134 YYZZ=          -1020.4915
 XXYZ=             43.0211 YYXZ=             18.6471 ZZXY=            -70.5945
 N-N= 2.808221127860D+03 E-N=-1.087681172064D+04  KE= 2.207976993490D+03
 Unable to Open any file for archive entry.
 1\1\GINC-GADI-HMEM-CLX-0001\SP\RDSDPBEP86-FC\Aug-CC-pVTZ\C13H16Cl1F5N1
 O4S1(1-)\HIO507\01-Apr-2021\0\\# DSDPBEP86/AUG-cc-PVTZ SCF=Tight INT(g
 rid=ultrafine) MaxDisk=1400000MB\\CP22CA_carboxy_c2.DSDPBEP86_AUG-cc-P
 VTZ\\-1,1\C,0,-5.9280450516,1.3519698346,0.4288832231\N,0,-4.717364010
 7,0.6838562768,0.3024466486\C,0,-3.5252760273,1.2733245425,0.037027730
 3\O,0,-3.299303759,2.4524599148,-0.1522090687\O,0,-2.5561573774,0.3342
 616779,-0.0004519768\C,0,-1.2425749496,0.8130484539,-0.2503022612\C,0,
 -0.3200366427,-0.3893233515,-0.2496891685\C,0,1.1272685627,0.021909472
 1,-0.5035014556\C,0,-7.0810131791,0.5479071401,0.5296188255\C,0,-8.298
 0634046,1.1727378295,0.6886916504\C,0,-8.466894004,2.5528678983,0.7432
 810488\C,0,-7.3142591375,3.3058628259,0.6257012075\C,0,-6.0534090629,2
 .7467514824,0.47294956\H,0,-4.7100521312,-0.3687379197,0.4994328388\H,
 0,-0.9607433425,1.5341815333,0.5236154629\H,0,-1.2173929039,1.33740917
 86,-1.2107355906\H,0,-0.6605179708,-1.0930272693,-1.0137550186\H,0,-0.
 4139705123,-0.9028224891,0.7106055946\H,0,1.2335918684,0.5232146564,-1
 .4695795568\H,0,1.7911183781,-0.8447510156,-0.5053863995\H,0,1.4844115
 87,0.7113134255,0.2665842941\H,0,-6.9909068945,-0.5393287197,0.4475301
 653\Cl,0,-7.4514663697,5.0529442181,0.680159289\H,0,-5.1826807826,3.37
 78265701,0.3859489782\S,0,-9.77568202,0.1369919953,0.8281003941\H,0,-9
 .4353985242,3.015355922,0.8652451126\F,0,-9.0979265164,-0.8553312432,1
 .8938178214\F,0,-10.3713120753,1.0323745015,2.054227873\F,0,-9.3428213
 764,-0.8202792695,-0.3797756693\F,0,-10.6160269885,1.0676108442,-0.212
 9615534\F,0,-11.1212228092,-0.7575762358,0.962264646\O,0,-6.6007444672
 ,-2.461276341,0.0579537536\O,0,-4.6256297241,-1.8846931114,0.942118662
 3\C,0,-5.5093499186,-2.7190099483,0.5929412817\C,0,-5.2025089695,-4.20
 15406326,0.8693286731\C,0,-3.8090808651,-4.467548335,1.4230271394\H,0,
 -5.3688834972,-4.7428868892,-0.0669217669\H,0,-5.9740130361,-4.5609767
 885,1.5581966911\H,0,-3.0435997402,-4.1125727271,0.7302496577\H,0,-3.6
 468105313,-5.5353321201,1.6030703538\H,0,-3.6579918227,-3.9288957872,2
 .3596109088\\Version=ES64L-G16RevC.01\State=1-A\HF=-2213.6400992\MP2=-
 2216.1613536\RMSD=3.462e-09\PG=C01 [X(C13H16Cl1F5N1O4S1)]\\@
 The archive entry for this job was punched.


 ON INDUCTION, OR "WHY DO YOU BELIEVE THE SUN WILL RISE TOMORROW?":

 ... THE FARMER WHO HAS FED THE CHICKEN EVERY DAY THROUGHOUT ITS
 LIFE AT LAST WRINGS ITS NECK INSTEAD, SHOWING THAT MORE REFINED VIEWS
 AS TO THE UNIFORMITY OF NATURE WOULD HAVE BEEN USEFUL TO THE CHICKEN.

                               -- BERTRAND RUSSELL
 Job cpu time:       9 days 19 hours 44 minutes 41.5 seconds.
 Elapsed time:       0 days  7 hours 25 minutes 38.1 seconds.
 File lengths (MBytes):  RWF=   1198 Int=      0 D2E=      0 Chk=    152 Scr=      1
 Normal termination of Gaussian 16 at Thu Apr  1 07:48:31 2021.
