 Entering Gaussian System, Link 0=/apps/gaussian/g16c01/g16/g16
 Initial command:
 /apps/gaussian/g16c01/g16/l1.exe "/jobfs/21661352.gadi-pbs/Gau-543635.inp" -scrdir="/jobfs/21661352.gadi-pbs/"
 Entering Link 1 = /apps/gaussian/g16c01/g16/l1.exe PID=    543636.
  
 Copyright (c) 1988-2019, Gaussian, Inc.  All Rights Reserved.
  
 This is part of the Gaussian(R) 16 program.  It is based on
 the Gaussian(R) 09 system (copyright 2009, Gaussian, Inc.),
 the Gaussian(R) 03 system (copyright 2003, Gaussian, Inc.),
 the Gaussian(R) 98 system (copyright 1998, Gaussian, Inc.),
 the Gaussian(R) 94 system (copyright 1995, Gaussian, Inc.),
 the Gaussian 92(TM) system (copyright 1992, Gaussian, Inc.),
 the Gaussian 90(TM) system (copyright 1990, Gaussian, Inc.),
 the Gaussian 88(TM) system (copyright 1988, Gaussian, Inc.),
 the Gaussian 86(TM) system (copyright 1986, Carnegie Mellon
 University), and the Gaussian 82(TM) system (copyright 1983,
 Carnegie Mellon University). Gaussian is a federally registered
 trademark of Gaussian, Inc.
  
 This software contains proprietary and confidential information,
 including trade secrets, belonging to Gaussian, Inc.
  
 This software is provided under written license and may be
 used, copied, transmitted, or stored only in accord with that
 written license.
  
 The following legend is applicable only to US Government
 contracts under FAR:
  
                    RESTRICTED RIGHTS LEGEND
  
 Use, reproduction and disclosure by the US Government is
 subject to restrictions as set forth in subparagraphs (a)
 and (c) of the Commercial Computer Software - Restricted
 Rights clause in FAR 52.227-19.
  
 Gaussian, Inc.
 340 Quinnipiac St., Bldg. 40, Wallingford CT 06492
  
  
 ---------------------------------------------------------------
 Warning -- This program may not be used in any manner that
 competes with the business of Gaussian, Inc. or will provide
 assistance to any competitor of Gaussian, Inc.  The licensee
 of this program is prohibited from giving any competitor of
 Gaussian, Inc. access to this program.  By using this program,
 the user acknowledges that Gaussian, Inc. is engaged in the
 business of creating and licensing software in the field of
 computational chemistry and represents and warrants to the
 licensee that it is not a competitor of Gaussian, Inc. and that
 it will not use this program in any manner prohibited above.
 ---------------------------------------------------------------
  

 Cite this work as:
 Gaussian 16, Revision C.01,
 M. J. Frisch, G. W. Trucks, H. B. Schlegel, G. E. Scuseria, 
 M. A. Robb, J. R. Cheeseman, G. Scalmani, V. Barone, 
 G. A. Petersson, H. Nakatsuji, X. Li, M. Caricato, A. V. Marenich, 
 J. Bloino, B. G. Janesko, R. Gomperts, B. Mennucci, H. P. Hratchian, 
 J. V. Ortiz, A. F. Izmaylov, J. L. Sonnenberg, D. Williams-Young, 
 F. Ding, F. Lipparini, F. Egidi, J. Goings, B. Peng, A. Petrone, 
 T. Henderson, D. Ranasinghe, V. G. Zakrzewski, J. Gao, N. Rega, 
 G. Zheng, W. Liang, M. Hada, M. Ehara, K. Toyota, R. Fukuda, 
 J. Hasegawa, M. Ishida, T. Nakajima, Y. Honda, O. Kitao, H. Nakai, 
 T. Vreven, K. Throssell, J. A. Montgomery, Jr., J. E. Peralta, 
 F. Ogliaro, M. J. Bearpark, J. J. Heyd, E. N. Brothers, K. N. Kudin, 
 V. N. Staroverov, T. A. Keith, R. Kobayashi, J. Normand, 
 K. Raghavachari, A. P. Rendell, J. C. Burant, S. S. Iyengar, 
 J. Tomasi, M. Cossi, J. M. Millam, M. Klene, C. Adamo, R. Cammi, 
 J. W. Ochterski, R. L. Martin, K. Morokuma, O. Farkas, 
 J. B. Foresman, and D. J. Fox, Gaussian, Inc., Wallingford CT, 2019.
 
 ******************************************
 Gaussian 16:  ES64L-G16RevC.01  3-Jul-2019
                28-Apr-2021 
 ******************************************
 %NprocShared=32
 Will use up to   32 processors via shared memory.
 %Mem=1194000MB
 %chk=CP22CA_carboxy.DSDPBEP86_AUG-cc-PVTZ.chk
 ----------------------------------------------------------------------
 # DSDPBEP86/AUG-cc-PVTZ SCF=Tight INT(grid=ultrafine) Pop=NBO MaxDisk=
 1400000MB
 ----------------------------------------------------------------------
 1/38=1,172=1/1;
 2/12=2,17=6,18=5,40=1/2;
 3/5=16,6=1,7=10,11=9,25=1,30=1,74=-77,75=-5/1,2,3;
 4//1;
 5/5=2,32=2,38=5/2;
 8/10=1/1;
 9/16=-3/6;
 6/7=2,8=2,9=2,10=2,40=1/1,7;
 99/5=1,9=1/99;
 ------------------------------------
 CP22CA_carboxy.DSDPBEP86_AUG-cc-PVTZ
 ------------------------------------
 Symbolic Z-matrix:
 Charge = -1 Multiplicity = 1
 C                    -6.0062    1.21695   0.35831 
 N                    -4.76701   0.59205   0.3033 
 C                    -3.57317   1.22568   0.17602 
 O                    -3.36846   2.41983   0.08694 
 O                    -2.57902   0.31472   0.15841 
 C                    -1.26419   0.83775   0.03148 
 C                    -0.31253  -0.34164   0.03308 
 C                     1.13732   0.11527  -0.09857 
 C                    -6.18186   2.6084    0.30507 
 C                    -7.47369   3.10353   0.37214 
 C                    -8.60491   2.31532   0.48877 
 C                    -8.3883    0.94282   0.53776 
 C                    -7.12931   0.37819   0.47542 
 H                    -4.74553  -0.46984   0.37373 
 H                    -1.05835   1.52072   0.86171 
 H                    -1.18589   1.41564  -0.89478 
 H                    -0.5828   -1.01144  -0.78733 
 H                    -0.45739  -0.90782   0.95674 
 H                     1.29621   0.66798  -1.0287 
 H                     1.82223  -0.73486  -0.09758 
 H                     1.42286   0.77202   0.72786 
 H                    -5.32878   3.26176   0.2141 
 Cl                   -9.77985  -0.10269   0.68375 
 H                    -7.00776  -0.70844   0.51344 
 S                    -7.69966   4.89584   0.30324 
 H                    -9.60145   2.72963   0.53897 
 F                    -6.66488   5.07741  -0.92438 
 F                    -8.92758   4.7888   -0.75248 
 F                    -6.50625   5.18497   1.35363 
 F                    -8.76902   4.89629   1.52405 
 F                    -7.91469   6.50317   0.24238 
 O                    -6.74771  -2.71198   0.56064 
 O                    -4.60236  -2.06263   0.49034 
 C                    -5.52323  -2.92488   0.55357 
 C                    -5.07666  -4.39771   0.62777 
 C                    -3.56774  -4.60295   0.63962 
 H                    -5.53788  -4.91291  -0.22103 
 H                    -5.54165  -4.82816   1.52031 
 H                    -3.11352  -4.17467  -0.25542 
 H                    -3.3081   -5.66559   0.68924 
 H                    -3.11593  -4.09454   1.49313 
 
                          Input orientation:                          
 ---------------------------------------------------------------------
 Center     Atomic      Atomic             Coordinates (Angstroms)
 Number     Number       Type             X           Y           Z
 ---------------------------------------------------------------------
      1          6           0       -6.006203    1.216952    0.358308
      2          7           0       -4.767012    0.592047    0.303300
      3          6           0       -3.573174    1.225684    0.176021
      4          8           0       -3.368461    2.419827    0.086942
      5          8           0       -2.579018    0.314723    0.158409
      6          6           0       -1.264188    0.837749    0.031483
      7          6           0       -0.312532   -0.341644    0.033079
      8          6           0        1.137319    0.115267   -0.098573
      9          6           0       -6.181865    2.608403    0.305067
     10          6           0       -7.473688    3.103529    0.372137
     11          6           0       -8.604914    2.315324    0.488766
     12          6           0       -8.388296    0.942818    0.537759
     13          6           0       -7.129309    0.378189    0.475418
     14          1           0       -4.745534   -0.469841    0.373727
     15          1           0       -1.058345    1.520723    0.861708
     16          1           0       -1.185891    1.415643   -0.894785
     17          1           0       -0.582796   -1.011441   -0.787330
     18          1           0       -0.457391   -0.907824    0.956738
     19          1           0        1.296208    0.667981   -1.028697
     20          1           0        1.822227   -0.734861   -0.097582
     21          1           0        1.422862    0.772021    0.727860
     22          1           0       -5.328779    3.261758    0.214100
     23         17           0       -9.779854   -0.102694    0.683753
     24          1           0       -7.007756   -0.708436    0.513439
     25         16           0       -7.699655    4.895845    0.303235
     26          1           0       -9.601451    2.729632    0.538966
     27          9           0       -6.664875    5.077413   -0.924379
     28          9           0       -8.927575    4.788802   -0.752481
     29          9           0       -6.506250    5.184969    1.353626
     30          9           0       -8.769015    4.896291    1.524049
     31          9           0       -7.914691    6.503166    0.242382
     32          8           0       -6.747708   -2.711978    0.560637
     33          8           0       -4.602358   -2.062628    0.490336
     34          6           0       -5.523228   -2.924878    0.553571
     35          6           0       -5.076663   -4.397711    0.627771
     36          6           0       -3.567744   -4.602955    0.639618
     37          1           0       -5.537884   -4.912908   -0.221030
     38          1           0       -5.541654   -4.828159    1.520311
     39          1           0       -3.113521   -4.174669   -0.255418
     40          1           0       -3.308096   -5.665585    0.689243
     41          1           0       -3.115926   -4.094542    1.493126
 ---------------------------------------------------------------------
                    Distance matrix (angstroms):
                    1          2          3          4          5
     1  C    0.000000
     2  N    1.388930   0.000000
     3  C    2.439863   1.357551   0.000000
     4  O    2.911740   2.311608   1.214833   0.000000
     5  O    3.549587   2.210253   1.348521   2.249398   0.000000
     6  C    4.768365   3.521935   2.345805   2.633251   1.420719
     7  C    5.912096   4.559297   3.620599   4.119141   2.362940
     8  C    7.242400   5.937167   4.847389   5.064333   3.730548
     9  C    1.403506   2.463230   2.955305   2.828141   4.273521
    10  C    2.390163   3.693017   4.333448   4.171531   5.637456
    11  C    2.824313   4.211126   5.157861   5.252888   6.357906
    12  C    2.404521   3.645780   4.836968   5.252003   5.855435
    13  C    1.406629   2.378194   3.667966   4.296879   4.561762
    14  H    2.105895   1.064438   2.070826   3.213838   2.314237
    15  H    4.982668   3.863737   2.623276   2.597168   2.064342
    16  H    4.984489   3.864990   2.623325   2.595339   2.064472
    17  H    5.974242   4.611758   3.856830   4.505317   2.576439
    18  H    5.971775   4.609710   3.856097   4.506011   2.575510
    19  H    7.453211   6.208270   5.047105   5.106148   4.068340
    20  H    8.080948   6.733458   5.747082   6.076952   4.531900
    21  H    7.451546   6.207027   5.046852   5.107134   4.067977
    22  H    2.158919   2.729633   2.688716   2.137256   4.031042
    23  Cl   4.010963   5.075037   6.367515   6.915581   7.232030
    24  H    2.175843   2.599298   3.956138   4.817925   4.559235
    25  S    4.050317   5.207982   5.523958   4.993665   6.872305
    26  H    3.904696   5.291183   6.223641   6.257034   7.435804
    27  F    4.120958   5.022708   5.060169   4.353376   6.367878
    28  F    4.746197   6.003142   6.498272   6.100855   7.819929
    29  F    4.121392   5.022258   5.066125   4.369922   6.369536
    30  F    4.746538   6.002731   6.502868   6.112621   7.821241
    31  F    5.621373   6.697233   6.834105   6.112776   8.171493
    32  O    4.003405   3.860824   5.072551   6.162720   5.167271
    33  O    3.569853   2.666344   3.459915   4.666650   3.139407
    34  C    4.174463   3.606003   4.601350   5.781577   4.395400
    35  C    5.697463   5.009875   5.838419   7.049062   5.354023
    36  C    6.316370   5.342227   5.847049   7.047313   5.039117
    37  H    6.174960   5.583340   6.457557   7.653119   6.018885
    38  H    6.173282   5.608905   6.506231   7.701338   6.089435
    39  H    6.149296   5.076197   5.437025   6.608296   4.539999
    40  H    7.399906   6.437029   6.915436   8.108039   6.047927
    41  H    6.152518   5.109392   5.499877   6.669192   4.638034
                    6          7          8          9         10
     6  C    0.000000
     7  C    1.515460   0.000000
     8  C    2.511202   1.525834   0.000000
     9  C    5.233890   6.574635   7.742681   0.000000
    10  C    6.618738   7.954014   9.126923   1.385083   0.000000
    11  C    7.501906   8.719561  10.004816   2.447613   1.383670
    12  C    7.142847   8.192832   9.582646   2.774285   2.352151
    13  C    5.899823   6.868935   8.290702   2.429099   2.748953
    14  H    3.734526   4.447918   5.930715   3.397551   4.495754
    15  H    1.094577   2.170547   2.778199   5.267195   6.625826
    16  H    1.094561   2.170655   2.778891   5.274664   6.632529
    17  H    2.134070   1.093042   2.168560   6.756195   8.109361
    18  H    2.134020   1.093018   2.168755   6.749676   8.103156
    19  H    2.776406   2.175949   1.093557   7.840009   9.208980
    20  H    3.466370   2.174601   1.091703   8.683607  10.068163
    21  H    2.776599   2.175905   1.093550   7.834726   9.203862
    22  H    4.736039   6.178997   7.197819   1.078380   2.156536
    23  Cl   8.592232   9.492663  10.947338   4.520949   3.961739
    24  H    5.967541   6.722448   8.209464   3.424461   3.842934
    25  S    7.612965   9.059463  10.055223   2.745193   1.807817
    26  H    8.564270   9.796565  11.070797   3.429720   2.166797
    27  F    6.932232   8.404473   9.283269   2.800151   2.496267
    28  F    8.657535  10.057711  11.116278   3.662168   2.493732
    29  F    6.937262   8.405322   9.286276   2.800607   2.496327
    30  F    8.661521  10.058383  11.118748   3.662471   2.493746
    31  F    8.739029  10.231719  11.084241   4.263308   3.430576
    32  O    6.553591   6.878102   8.402472   5.356486   5.863677
    33  O    4.445909   4.644725   6.167166   4.934338   5.911657
    34  C    5.706957   5.839123   7.350556   5.577881   6.338683
    35  C    6.503888   6.285084   7.714151   7.100087   7.879066
    36  C    5.939483   5.396579   6.704041   7.677840   8.643948
    37  H    7.169259   6.947325   8.357982   7.567139   8.268158
    38  H    7.253677   7.048715   8.465632   7.562350   8.243951
    39  H    5.350390   4.756138   6.041340   7.465852   8.507471
    40  H    6.848617   6.143965   7.334891   8.767270   9.713397
    41  H    5.467433   4.906628   6.192422   7.465985   8.488753
                   11         12         13         14         15
    11  C    0.000000
    12  C    1.390359   0.000000
    13  C    2.435176   1.381210   0.000000
    14  H    4.760798   3.910528   2.532169   0.000000
    15  H    7.597446   7.359829   6.189604   4.218510   0.000000
    16  H    7.600365   7.358694   6.186920   4.223178   1.764249
    17  H    8.777823   8.154803   6.810465   4.355430   3.058975
    18  H    8.774384   8.154733   6.811753   4.349701   2.503601
    19  H   10.151289   9.814221   8.563625   6.305876   3.137629
    20  H   10.879922  10.366920   9.038650   6.589981   3.782273
    21  H   10.148658   9.814486   8.564955   6.302122   2.595161
    22  H    3.421147   3.852646   3.409570   3.780276   4.656952
    23  Cl   2.695425   1.746666   2.701859   5.057202   8.873098
    24  H    3.419744   2.152468   1.094063   2.279056   6.362856
    25  S    2.740986   4.019409   4.556770   6.125553   7.470632
    26  H    1.080397   2.159735   3.412450   5.817549   8.634250
    27  F    3.659217   4.711996   4.925225   6.011737   6.875560
    28  F    2.786197   4.092326   4.918842   6.812573   8.672412
    29  F    3.658857   4.712068   4.925910   6.003100   6.583946
    30  F    2.785701   4.092392   4.919503   6.804926   8.443198
    31  F    4.251486   5.588294   6.179521   7.660525   8.498105
    32  O    5.359865   4.006193   3.114805   3.011779   7.097552
    33  O    5.931857   4.834075   3.513302   1.603454   5.053548
    34  C    6.079532   4.813308   3.673670   2.581542   6.308209
    35  C    7.585033   6.284605   5.200556   3.949980   7.157476
    36  C    8.559113   7.348720   6.125642   4.305869   6.621619
    37  H    7.884023   6.556686   5.568965   4.552185   7.913923
    38  H    7.840727   6.509450   5.542428   4.576395   7.800135
    39  H    8.534005   7.391959   6.114670   4.096955   6.157045
    40  H    9.580783   8.336808   7.153642   5.400142   7.532207
    41  H    8.498477   7.354291   6.094940   4.128817   6.013612
                   16         17         18         19         20
    16  H    0.000000
    17  H    2.503200   0.000000
    18  H    3.058978   1.751638   0.000000
    19  H    2.595717   2.531674   3.082243   0.000000
    20  H    3.782720   2.517217   2.517571   1.763983   0.000000
    21  H    3.138920   3.082078   2.531722   1.764187   1.763955
    22  H    4.669185   6.464321   6.455025   7.222373   8.197987
    23  Cl   8.868671   9.358193   9.361147  11.234125  11.645531
    24  H    6.355228   6.562311   6.568375   8.557367   8.851138
    25  S    7.481723   9.313166   9.303764  10.028681  11.069406
    26  H    8.637353   9.853468   9.849846  11.201203  11.954427
    27  F    6.590046   8.607242   8.825787   9.101254  10.319739
    28  F    8.445835  10.162646  10.349734  11.026478  12.103636
    29  F    6.897057   8.835525   8.594670   9.325074  10.320558
    30  F    8.687315  10.356542  10.153457  11.211772  12.104296
    31  F    8.511921  10.549233  10.537761  10.977509  12.137223
    32  O    7.077381   6.535670   6.555910   8.868748   8.819639
    33  O    5.068449   4.346757   4.328031   6.675085   6.586646
    34  C    6.304788   5.465083   5.467518   7.868730   7.692587
    35  C    7.159006   5.802084   5.798724   8.307744   7.844571
    36  C    6.652153   4.883141   4.840336   7.363700   6.675134
    37  H    7.710016   6.332064   6.575655   8.860217   8.464192
    38  H    7.986890   6.669543   6.444871   9.135718   8.579009
    39  H    5.947784   4.085769   4.381395   6.595069   6.018206
    40  H    7.560204   5.591832   5.552870   8.016545   7.159005
    41  H    6.307875   4.595948   4.184578   6.964779   6.180871
                   21         22         23         24         25
    21  H    0.000000
    22  H    7.214388   0.000000
    23  Cl  11.236900   5.599302   0.000000
    24  H    8.562305   4.320996   2.842614   0.000000
    25  S   10.020307   2.880840   5.427468   5.650741   0.000000
    26  H   11.198367   4.317919   2.841630   4.306764   2.892209
    27  F    9.310091   2.525449   6.254813   5.971678   1.615789
    28  F   11.200781   4.027093   5.168740   5.958849   1.622893
    29  F    9.095962   2.526599   6.254966   5.974082   1.615899
    30  F   11.023515   4.027765   5.168921   5.961236   1.622934
    31  F   10.966842   4.146622   6.878301   7.273459   1.622783
    32  O    8.883942   6.149713   4.002178   2.020899   7.671468
    33  O    6.662952   5.380806   5.539424   2.760491   7.618963
    34  C    7.870553   6.198993   5.108868   2.667967   8.121774
    35  C    8.305418   7.674774   6.369483   4.165686   9.662070
    36  C    7.335142   8.070689   7.671023   5.197776  10.364026
    37  H    9.037189   8.188908   6.476967   4.514150  10.057820
    38  H    8.971871   8.197454   6.402514   4.487244  10.034664
    39  H    6.783461   7.773562   7.867848   5.269818  10.179339
    40  H    7.989132   9.165499   8.534017   6.188031  11.444588
    41  H    6.698482   7.787668   7.810113   5.250889  10.161371
                   26         27         28         29         30
    26  H    0.000000
    27  F    4.034468   0.000000
    28  F    2.522325   2.287501   0.000000
    29  F    4.033934   2.286053   3.233490   0.000000
    30  F    2.521458   3.233421   2.284575   2.287463   0.000000
    31  F    4.143993   2.226240   2.225923   2.226256   2.225890
    32  O    6.144545   7.930116   7.920719   7.940334   7.930927
    33  O    6.925248   7.565420   8.197206   7.543059   8.176561
    34  C    6.971772   8.217320   8.532069   8.208291   8.523359
    35  C    8.442785   9.731884  10.056174   9.715881  10.040680
    36  C    9.496451  10.283376  10.902789  10.244417  10.866053
    37  H    8.688992  10.078260  10.290559  10.265690  10.474058
    38  H    8.635114  10.264428  10.445859  10.060863  10.246014
    39  H    9.507558   9.932807  10.695518  10.084764  10.836671
    40  H   10.493264  11.370302  11.956225  11.331555  11.919387
    41  H    9.462653  10.127395  10.850429   9.880439  10.620426
                   31         32         33         34         35
    31  F    0.000000
    32  O    9.294193   0.000000
    33  O    9.187266   2.242571   0.000000
    34  C    9.731596   1.242871   1.263122   0.000000
    35  C   11.270850   2.374573   2.386727   1.540832   0.000000
    36  C   11.933133   3.700568   2.746993   2.578229   1.522859
    37  H   11.670077   2.630355   3.083074   2.133655   1.094812
    38  H   11.647460   2.617969   3.096980   2.134807   1.094590
    39  H   11.718157   4.001591   2.689517   2.832513   2.164186
    40  H   13.019175   4.535556   3.833534   3.526570   2.176951
    41  H   11.700595   3.996356   2.709934   2.836544   2.164541
                   36         37         38         39         40
    36  C    0.000000
    37  H    2.172149   0.000000
    38  H    2.173167   1.743405   0.000000
    39  H    1.091255   2.534505   3.078326   0.000000
    40  H    1.095018   2.523306   2.526012   1.775690   0.000000
    41  H    1.091375   3.077975   2.534381   1.750381   1.775199
                   41
    41  H    0.000000
 Stoichiometry    C13H16ClF5NO4S(1-)
 Framework group  C1[X(C13H16ClF5NO4S)]
 Deg. of freedom   117
 Full point group                 C1      NOp   1
 Largest Abelian subgroup         C1      NOp   1
 Largest concise Abelian subgroup C1      NOp   1
                         Standard orientation:                         
 ---------------------------------------------------------------------
 Center     Atomic      Atomic             Coordinates (Angstroms)
 Number     Number       Type             X           Y           Z
 ---------------------------------------------------------------------
      1          6           0        0.007481    0.237981   -0.011811
      2          7           0       -1.272430   -0.301418   -0.012850
      3          6           0       -1.565788   -1.626875   -0.019766
      4          8           0       -0.790602   -2.562202   -0.028137
      5          8           0       -2.904118   -1.792324   -0.016752
      6          6           0       -3.360150   -3.137857   -0.020802
      7          6           0       -4.875020   -3.095791   -0.016469
      8          6           0       -5.469004   -4.501261   -0.019260
      9          6           0        1.179801   -0.533621   -0.000685
     10          6           0        2.395196    0.130656    0.001474
     11          6           0        2.530286    1.507694   -0.006277
     12          6           0        1.345778    2.235642   -0.017676
     13          6           0        0.098841    1.641608   -0.021289
     14          1           0       -2.093892    0.375379    0.000325
     15          1           0       -2.970620   -3.660834    0.858323
     16          1           0       -2.975314   -3.654146   -0.905907
     17          1           0       -5.212672   -2.531660   -0.889675
     18          1           0       -5.207755   -2.536898    0.861948
     19          1           0       -5.155646   -5.062652   -0.903858
     20          1           0       -6.560260   -4.470147   -0.016371
     21          1           0       -5.151165   -5.067987    0.860315
     22          1           0        1.122760   -1.610475    0.005405
     23         17           0        1.454214    3.978903   -0.028878
     24          1           0       -0.806530    2.255692   -0.034631
     25         16           0        3.905054   -0.863496    0.015504
     26          1           0        3.492475    1.999066   -0.004363
     27          9           0        3.366300   -1.875020   -1.123503
     28          9           0        4.616060    0.040894   -1.129193
     29          9           0        3.354943   -1.859976    1.162472
     30          9           0        4.604688    0.055897    1.155304
     31          9           0        5.267118   -1.745566    0.028138
     32          8           0       -2.499289    3.358682   -0.079489
     33          8           0       -3.398019    1.307489    0.038908
     34          6           0       -3.456018    2.568286   -0.011132
     35          6           0       -4.865985    3.189216    0.013409
     36          6           0       -6.001419    2.180128    0.121262
     37          1           0       -4.962209    3.795447   -0.893145
     38          1           0       -4.887818    3.900006    0.845531
     39          1           0       -5.974253    1.478667   -0.714233
     40          1           0       -6.978117    2.675141    0.130624
     41          1           0       -5.904233    1.585829    1.031461
 ---------------------------------------------------------------------
 Rotational constants (GHZ):           0.2202728           0.0994727           0.0705836
 Standard basis: Aug-CC-pVTZ (5D, 7F)
 There are  1783 symmetry adapted cartesian basis functions of A   symmetry.
 There are  1526 symmetry adapted basis functions of A   symmetry.
  1526 basis functions,  2316 primitive gaussians,  1783 cartesian basis functions
   106 alpha electrons      106 beta electrons
       nuclear repulsion energy      2765.9876486904 Hartrees.
 NAtoms=   41 NActive=   41 NUniq=   41 SFac= 1.00D+00 NAtFMM=   60 NAOKFM=F Big=F
 Integral buffers will be    131072 words long.
 Regular integral format.
 Two-electron integral symmetry is turned on.
 Nuclear repulsion after empirical dispersion term =     2765.9555155767 Hartrees.
 One-electron integrals computed using PRISM.
 NBasis=  1526 RedAO= T EigKep=  1.25D-06  NBF=  1526
 NBsUse=  1522 1.00D-06 EigRej=  7.06D-07 NBFU=  1522
 ExpMin= 2.53D-02 ExpMax= 4.56D+05 ExpMxC= 1.44D+03 IAcc=3 IRadAn=         5 AccDes= 0.00D+00
 Harris functional with IExCor= 1004 and IRadAn=       5 diagonalized for initial guess.
 HarFok:  IExCor= 1004 AccDes= 0.00D+00 IRadAn=         5 IDoV= 1 UseB2=F ITyADJ=14
 ICtDFT=  3500011 ScaDFX=  1.000000  1.000000  1.000000  1.000000
 FoFCou: FMM=F IPFlag=           0 FMFlag=      100000 FMFlg1=           0
         NFxFlg=           0 DoJE=T BraDBF=F KetDBF=T FulRan=T
         wScrn=  0.000000 ICntrl=       500 IOpCl=  0 I1Cent=   200000004 NGrid=           0
         NMat0=    1 NMatS0=      1 NMatT0=    0 NMatD0=    1 NMtDS0=    0 NMtDT0=    0
 Petite list used in FoFCou.
 Requested convergence on RMS density matrix=1.00D-08 within 128 cycles.
 Requested convergence on MAX density matrix=1.00D-06.
 Requested convergence on             energy=1.00D-06.
 No special actions if energy rises.
 SCF Done:  E(RDSDPBEP86) =  -2213.64115421     A.U. after   14 cycles
            NFock= 14  Conv=0.33D-08     -V/T= 2.0026
 DoSCS=T DFT=T ScalE2(SS,OS)=  0.220000  0.520000
 ExpMin= 2.53D-02 ExpMax= 4.56D+05 ExpMxC= 1.44D+03 IAcc=3 IRadAn=         5 AccDes= 0.00D+00
 HarFok:  IExCor=  205 AccDes= 0.00D+00 IRadAn=         5 IDoV=-2 UseB2=F ITyADJ=14
 ICtDFT= 12500011 ScaDFX=  1.000000  1.000000  1.000000  1.000000
 GSVD:  LWork=       -1353 too small for GESVD, short by        5940 words or        5940 for optimal perf.
 Range of M.O.s used for correlation:    34  1522
 NBasis=  1526 NAE=   106 NBE=   106 NFC=    33 NFV=     0
 NROrb=   1489 NOA=    73 NOB=    73 NVA=  1416 NVB=  1416

 **** Warning!!: The largest alpha MO coefficient is  0.10556425D+03

 DoSCS=T DFT=T ScalE2(SS,OS)=  0.220000  0.520000
 Fully direct method using O(OVN) memory.
 JobTyp=1 Pass  1:  I=   1 to  32 NPSUse= 32 ParTrn=T ParDer=T DoDerP=F.
 JobTyp=1 Pass  2:  I=  33 to  73 NPSUse= 32 ParTrn=T ParDer=T DoDerP=F.
 Spin components of T(2) and E(2):
     alpha-alpha T2 =       0.2530461396D+00 E2=     -0.1644766253D+00
     alpha-beta  T2 =       0.1307534047D+01 E2=     -0.2191844214D+01
     beta-beta   T2 =       0.2530461396D+00 E2=     -0.1644766253D+00
 E2(DSDPBEP86) =    -0.2520797464D+01 E(DSDPBEP86) =    -0.22161619516760D+04

 **********************************************************************

            Population analysis using the SCF Density.

 **********************************************************************

 Orbital symmetries:
       Occupied  (A) (A) (A) (A) (A) (A) (A) (A) (A) (A) (A) (A)
                 (A) (A) (A) (A) (A) (A) (A) (A) (A) (A) (A) (A)
                 (A) (A) (A) (A) (A) (A) (A) (A) (A) (A) (A) (A)
                 (A) (A) (A) (A) (A) (A) (A) (A) (A) (A) (A) (A)
                 (A) (A) (A) (A) (A) (A) (A) (A) (A) (A) (A) (A)
                 (A) (A) (A) (A) (A) (A) (A) (A) (A) (A) (A) (A)
                 (A) (A) (A) (A) (A) (A) (A) (A) (A) (A) (A) (A)
                 (A) (A) (A) (A) (A) (A) (A) (A) (A) (A) (A) (A)
                 (A) (A) (A) (A) (A) (A) (A) (A) (A) (A)
       Virtual   (A) (A) (A) (A) (A) (A) (A) (A) (A) (A) (A) (A)
                 (A) (A) (A) (A) (A) (A) (A) (A) (A) (A) (A) (A)
                 (A) (A) (A) (A) (A) (A) (A) (A) (A) (A) (A) (A)
                 (A) (A) (A) (A) (A) (A) (A) (A) (A) (A) (A) (A)
                 (A) (A) (A) (A) (A) (A) (A) (A) (A) (A) (A) (A)
                 (A) (A) (A) (A) (A) (A) (A) (A) (A) (A) (A) (A)
                 (A) (A) (A) (A) (A) (A) (A) (A) (A) (A) (A) (A)
                 (A) (A) (A) (A) (A) (A) (A) (A) (A) (A) (A) (A)
                 (A) (A) (A) (A) (A) (A) (A) (A) (A) (A) (A) (A)
                 (A) (A) (A) (A) (A) (A) (A) (A) (A) (A) (A) (A)
                 (A) (A) (A) (A) (A) (A) (A) (A) (A) (A) (A) (A)
                 (A) (A) (A) (A) (A) (A) (A) (A) (A) (A) (A) (A)
                 (A) (A) (A) (A) (A) (A) (A) (A) (A) (A) (A) (A)
                 (A) (A) (A) (A) (A) (A) (A) (A) (A) (A) (A) (A)
                 (A) (A) (A) (A) (A) (A) (A) (A) (A) (A) (A) (A)
                 (A) (A) (A) (A) (A) (A) (A) (A) (A) (A) (A) (A)
                 (A) (A) (A) (A) (A) (A) (A) (A) (A) (A) (A) (A)
                 (A) (A) (A) (A) (A) (A) (A) (A) (A) (A) (A) (A)
                 (A) (A) (A) (A) (A) (A) (A) (A) (A) (A) (A) (A)
                 (A) (A) (A) (A) (A) (A) (A) (A) (A) (A) (A) (A)
                 (A) (A) (A) (A) (A) (A) (A) (A) (A) (A) (A) (A)
                 (A) (A) (A) (A) (A) (A) (A) (A) (A) (A) (A) (A)
                 (A) (A) (A) (A) (A) (A) (A) (A) (A) (A) (A) (A)
                 (A) (A) (A) (A) (A) (A) (A) (A) (A) (A) (A) (A)
                 (A) (A) (A) (A) (A) (A) (A) (A) (A) (A) (A) (A)
                 (A) (A) (A) (A) (A) (A) (A) (A) (A) (A) (A) (A)
                 (A) (A) (A) (A) (A) (A) (A) (A) (A) (A) (A) (A)
                 (A) (A) (A) (A) (A) (A) (A) (A) (A) (A) (A) (A)
                 (A) (A) (A) (A) (A) (A) (A) (A) (A) (A) (A) (A)
                 (A) (A) (A) (A) (A) (A) (A) (A) (A) (A) (A) (A)
                 (A) (A) (A) (A) (A) (A) (A) (A) (A) (A) (A) (A)
                 (A) (A) (A) (A) (A) (A) (A) (A) (A) (A) (A) (A)
                 (A) (A) (A) (A) (A) (A) (A) (A) (A) (A) (A) (A)
                 (A) (A) (A) (A) (A) (A) (A) (A) (A) (A) (A) (A)
                 (A) (A) (A) (A) (A) (A) (A) (A) (A) (A) (A) (A)
                 (A) (A) (A) (A) (A) (A) (A) (A) (A) (A) (A) (A)
                 (A) (A) (A) (A) (A) (A) (A) (A) (A) (A) (A) (A)
                 (A) (A) (A) (A) (A) (A) (A) (A) (A) (A) (A) (A)
                 (A) (A) (A) (A) (A) (A) (A) (A) (A) (A) (A) (A)
                 (A) (A) (A) (A) (A) (A) (A) (A) (A) (A) (A) (A)
                 (A) (A) (A) (A) (A) (A) (A) (A) (A) (A) (A) (A)
                 (A) (A) (A) (A) (A) (A) (A) (A) (A) (A) (A) (A)
                 (A) (A) (A) (A) (A) (A) (A) (A) (A) (A) (A) (A)
                 (A) (A) (A) (A) (A) (A) (A) (A) (A) (A) (A) (A)
                 (A) (A) (A) (A) (A) (A) (A) (A) (A) (A) (A) (A)
                 (A) (A) (A) (A) (A) (A) (A) (A) (A) (A) (A) (A)
                 (A) (A) (A) (A) (A) (A) (A) (A) (A) (A) (A) (A)
                 (A) (A) (A) (A) (A) (A) (A) (A) (A) (A) (A) (A)
                 (A) (A) (A) (A) (A) (A) (A) (A) (A) (A) (A) (A)
                 (A) (A) (A) (A) (A) (A) (A) (A) (A) (A) (A) (A)
                 (A) (A) (A) (A) (A) (A) (A) (A) (A) (A) (A) (A)
                 (A) (A) (A) (A) (A) (A) (A) (A) (A) (A) (A) (A)
                 (A) (A) (A) (A) (A) (A) (A) (A) (A) (A) (A) (A)
                 (A) (A) (A) (A) (A) (A) (A) (A) (A) (A) (A) (A)
                 (A) (A) (A) (A) (A) (A) (A) (A) (A) (A) (A) (A)
                 (A) (A) (A) (A) (A) (A) (A) (A) (A) (A) (A) (A)
                 (A) (A) (A) (A) (A) (A) (A) (A) (A) (A) (A) (A)
                 (A) (A) (A) (A) (A) (A) (A) (A) (A) (A) (A) (A)
                 (A) (A) (A) (A) (A) (A) (A) (A) (A) (A) (A) (A)
                 (A) (A) (A) (A) (A) (A) (A) (A) (A) (A) (A) (A)
                 (A) (A) (A) (A) (A) (A) (A) (A) (A) (A) (A) (A)
                 (A) (A) (A) (A) (A) (A) (A) (A) (A) (A) (A) (A)
                 (A) (A) (A) (A) (A) (A) (A) (A) (A) (A) (A) (A)
                 (A) (A) (A) (A) (A) (A) (A) (A) (A) (A) (A) (A)
                 (A) (A) (A) (A) (A) (A) (A) (A) (A) (A) (A) (A)
                 (A) (A) (A) (A) (A) (A) (A) (A) (A) (A) (A) (A)
                 (A) (A) (A) (A) (A) (A) (A) (A) (A) (A) (A) (A)
                 (A) (A) (A) (A) (A) (A) (A) (A) (A) (A) (A) (A)
                 (A) (A) (A) (A) (A) (A) (A) (A) (A) (A) (A) (A)
                 (A) (A) (A) (A) (A) (A) (A) (A) (A) (A) (A) (A)
                 (A) (A) (A) (A) (A) (A) (A) (A) (A) (A) (A) (A)
                 (A) (A) (A) (A) (A) (A) (A) (A) (A) (A) (A) (A)
                 (A) (A) (A) (A) (A) (A) (A) (A) (A) (A) (A) (A)
                 (A) (A) (A) (A) (A) (A) (A) (A) (A) (A) (A) (A)
                 (A) (A) (A) (A) (A) (A) (A) (A) (A) (A) (A) (A)
                 (A) (A) (A) (A) (A) (A) (A) (A) (A) (A) (A) (A)
                 (A) (A) (A) (A) (A) (A) (A) (A) (A) (A) (A) (A)
                 (A) (A) (A) (A) (A) (A) (A) (A) (A) (A) (A) (A)
                 (A) (A) (A) (A) (A) (A) (A) (A) (A) (A) (A) (A)
                 (A) (A) (A) (A) (A) (A) (A) (A) (A) (A) (A) (A)
                 (A) (A) (A) (A) (A) (A) (A) (A) (A) (A) (A) (A)
                 (A) (A) (A) (A) (A) (A) (A) (A) (A) (A) (A) (A)
                 (A) (A) (A) (A) (A) (A) (A) (A) (A) (A) (A) (A)
                 (A) (A) (A) (A) (A) (A) (A) (A) (A) (A) (A) (A)
                 (A) (A) (A) (A) (A) (A) (A) (A) (A) (A) (A) (A)
                 (A) (A) (A) (A) (A) (A) (A) (A) (A) (A) (A) (A)
                 (A) (A) (A) (A) (A) (A) (A) (A) (A) (A) (A) (A)
                 (A) (A) (A) (A) (A) (A) (A) (A) (A) (A) (A) (A)
                 (A) (A) (A) (A) (A) (A) (A) (A) (A) (A) (A) (A)
                 (A) (A) (A) (A) (A) (A) (A) (A) (A) (A) (A) (A)
                 (A) (A) (A) (A) (A) (A) (A) (A) (A) (A) (A) (A)
                 (A) (A) (A) (A) (A) (A) (A) (A) (A) (A) (A) (A)
                 (A) (A) (A) (A) (A) (A) (A) (A) (A) (A) (A) (A)
                 (A) (A) (A) (A) (A) (A) (A) (A) (A) (A) (A) (A)
                 (A) (A) (A) (A) (A) (A) (A) (A) (A) (A) (A) (A)
                 (A) (A) (A) (A) (A) (A) (A) (A) (A) (A) (A) (A)
                 (A) (A) (A) (A) (A) (A) (A) (A) (A) (A) (A) (A)
                 (A) (A) (A) (A) (A) (A) (A) (A) (A) (A) (A) (A)
                 (A) (A) (A) (A) (A) (A) (A) (A) (A) (A) (A) (A)
                 (A) (A) (A) (A) (A) (A) (A) (A) (A) (A) (A) (A)
                 (A) (A) (A) (A) (A) (A) (A) (A) (A) (A) (A) (A)
                 (A) (A) (A) (A) (A) (A) (A) (A) (A) (A) (A) (A)
                 (A) (A) (A) (A) (A) (A) (A) (A) (A) (A) (A) (A)
                 (A) (A) (A) (A) (A) (A) (A) (A) (A) (A) (A) (A)
                 (A) (A) (A) (A) (A) (A) (A) (A) (A) (A) (A) (A)
                 (A) (A) (A) (A) (A) (A) (A) (A) (A) (A) (A) (A)
                 (A) (A) (A) (A) (A) (A) (A) (A) (A) (A) (A) (A)
                 (A) (A) (A) (A) (A) (A) (A) (A) (A) (A) (A) (A)
                 (A) (A) (A) (A) (A) (A) (A) (A) (A) (A) (A) (A)
                 (A) (A) (A) (A) (A) (A) (A) (A) (A) (A) (A) (A)
                 (A) (A) (A) (A) (A) (A) (A) (A) (A) (A) (A) (A)
                 (A) (A) (A) (A) (A) (A) (A) (A) (A) (A) (A) (A)
                 (A) (A) (A) (A) (A) (A) (A) (A) (A) (A) (A) (A)
                 (A) (A) (A) (A) (A) (A) (A) (A) (A) (A) (A) (A)
                 (A) (A) (A) (A) (A) (A) (A) (A) (A) (A) (A) (A)
                 (A) (A) (A) (A) (A) (A) (A) (A) (A) (A) (A) (A)
                 (A) (A) (A) (A) (A) (A) (A) (A) (A) (A) (A) (A)
                 (A) (A) (A) (A) (A) (A) (A) (A) (A) (A) (A) (A)
 The electronic state is 1-A.
 Alpha  occ. eigenvalues -- -103.47370 -91.07447 -25.62246 -25.62245 -25.62218
 Alpha  occ. eigenvalues --  -25.62217 -25.62081 -19.94414 -19.87799 -19.80982
 Alpha  occ. eigenvalues --  -19.80105 -14.99422 -10.87701 -10.79773 -10.78711
 Alpha  occ. eigenvalues --  -10.78567 -10.78204 -10.77501 -10.75069 -10.73972
 Alpha  occ. eigenvalues --  -10.73808 -10.73384 -10.72627 -10.68812 -10.68673
 Alpha  occ. eigenvalues --  -10.04868  -8.81993  -7.62544  -7.62083  -7.62065
 Alpha  occ. eigenvalues --   -6.61086  -6.61072  -6.60651  -1.50154  -1.40748
 Alpha  occ. eigenvalues --   -1.40690  -1.37633  -1.36463  -1.23559  -1.13086
 Alpha  occ. eigenvalues --   -1.11187  -1.03924  -1.01242  -0.98777  -0.94014
 Alpha  occ. eigenvalues --   -0.89368  -0.88122  -0.83104  -0.81300  -0.81124
 Alpha  occ. eigenvalues --   -0.77102  -0.70673  -0.69455  -0.68160  -0.67954
 Alpha  occ. eigenvalues --   -0.66266  -0.64954  -0.62540  -0.60819  -0.59208
 Alpha  occ. eigenvalues --   -0.57978  -0.57451  -0.56130  -0.53662  -0.53034
 Alpha  occ. eigenvalues --   -0.52828  -0.52515  -0.50651  -0.50387  -0.50257
 Alpha  occ. eigenvalues --   -0.50156  -0.49600  -0.49413  -0.47478  -0.47254
 Alpha  occ. eigenvalues --   -0.47210  -0.46643  -0.46405  -0.45128  -0.44491
 Alpha  occ. eigenvalues --   -0.43923  -0.43420  -0.42601  -0.42454  -0.40491
 Alpha  occ. eigenvalues --   -0.40064  -0.39425  -0.38816  -0.38459  -0.36591
 Alpha  occ. eigenvalues --   -0.35835  -0.35769  -0.35683  -0.34802  -0.33970
 Alpha  occ. eigenvalues --   -0.33079  -0.30812  -0.30757  -0.30611  -0.30105
 Alpha  occ. eigenvalues --   -0.29059  -0.22351  -0.21539  -0.21085  -0.20037
 Alpha  occ. eigenvalues --   -0.18611
 Alpha virt. eigenvalues --    0.07369   0.08870   0.09444   0.09596   0.09770
 Alpha virt. eigenvalues --    0.10707   0.11319   0.11449   0.11622   0.12378
 Alpha virt. eigenvalues --    0.12614   0.12763   0.13098   0.13294   0.13739
 Alpha virt. eigenvalues --    0.14019   0.14058   0.14651   0.14878   0.15040
 Alpha virt. eigenvalues --    0.15069   0.15257   0.15665   0.16941   0.16985
 Alpha virt. eigenvalues --    0.17149   0.17610   0.18074   0.18194   0.18410
 Alpha virt. eigenvalues --    0.18420   0.18813   0.19046   0.19541   0.19642
 Alpha virt. eigenvalues --    0.19948   0.20001   0.20476   0.20678   0.21236
 Alpha virt. eigenvalues --    0.21304   0.21809   0.21871   0.22114   0.22317
 Alpha virt. eigenvalues --    0.22368   0.22459   0.22698   0.23134   0.23531
 Alpha virt. eigenvalues --    0.23573   0.24042   0.24278   0.24875   0.24997
 Alpha virt. eigenvalues --    0.25286   0.25666   0.25828   0.26210   0.26389
 Alpha virt. eigenvalues --    0.26701   0.26841   0.27215   0.27708   0.27914
 Alpha virt. eigenvalues --    0.28031   0.28221   0.28376   0.28500   0.28932
 Alpha virt. eigenvalues --    0.29106   0.29459   0.29838   0.30014   0.30484
 Alpha virt. eigenvalues --    0.30515   0.30912   0.31223   0.31365   0.31645
 Alpha virt. eigenvalues --    0.32164   0.32361   0.32728   0.32925   0.32951
 Alpha virt. eigenvalues --    0.33405   0.33692   0.34000   0.34040   0.34117
 Alpha virt. eigenvalues --    0.34465   0.34796   0.35362   0.35496   0.35576
 Alpha virt. eigenvalues --    0.35863   0.36019   0.36273   0.36565   0.36726
 Alpha virt. eigenvalues --    0.36818   0.37121   0.37534   0.37566   0.37778
 Alpha virt. eigenvalues --    0.37888   0.38160   0.38533   0.38669   0.38807
 Alpha virt. eigenvalues --    0.39098   0.39195   0.39411   0.39547   0.39670
 Alpha virt. eigenvalues --    0.39897   0.40440   0.40655   0.40758   0.41020
 Alpha virt. eigenvalues --    0.41486   0.41496   0.41682   0.41933   0.42319
 Alpha virt. eigenvalues --    0.42362   0.42598   0.42817   0.43146   0.43468
 Alpha virt. eigenvalues --    0.43567   0.43800   0.44158   0.44285   0.44366
 Alpha virt. eigenvalues --    0.44600   0.44805   0.45122   0.45273   0.45343
 Alpha virt. eigenvalues --    0.45476   0.45994   0.46075   0.46134   0.46514
 Alpha virt. eigenvalues --    0.47266   0.47496   0.47578   0.47769   0.47856
 Alpha virt. eigenvalues --    0.48154   0.48760   0.48929   0.49235   0.49388
 Alpha virt. eigenvalues --    0.49522   0.49791   0.49996   0.50179   0.50396
 Alpha virt. eigenvalues --    0.50665   0.50860   0.51305   0.51594   0.51828
 Alpha virt. eigenvalues --    0.52058   0.52543   0.52642   0.53069   0.53254
 Alpha virt. eigenvalues --    0.53370   0.53411   0.53871   0.54098   0.54213
 Alpha virt. eigenvalues --    0.54302   0.54608   0.54719   0.55024   0.55287
 Alpha virt. eigenvalues --    0.55526   0.55624   0.55699   0.55867   0.56394
 Alpha virt. eigenvalues --    0.56510   0.56718   0.57096   0.57354   0.57475
 Alpha virt. eigenvalues --    0.57714   0.57825   0.58329   0.58435   0.58869
 Alpha virt. eigenvalues --    0.59067   0.59187   0.59300   0.59534   0.59714
 Alpha virt. eigenvalues --    0.59929   0.60005   0.60328   0.60409   0.60469
 Alpha virt. eigenvalues --    0.60888   0.61232   0.61485   0.61876   0.62266
 Alpha virt. eigenvalues --    0.62568   0.62686   0.63114   0.63305   0.63720
 Alpha virt. eigenvalues --    0.63985   0.64042   0.64501   0.65061   0.65561
 Alpha virt. eigenvalues --    0.65662   0.65778   0.66005   0.66195   0.66429
 Alpha virt. eigenvalues --    0.66730   0.67269   0.67370   0.67642   0.68192
 Alpha virt. eigenvalues --    0.68654   0.68857   0.68889   0.69337   0.69385
 Alpha virt. eigenvalues --    0.70111   0.70471   0.70851   0.71138   0.71494
 Alpha virt. eigenvalues --    0.71820   0.72166   0.72562   0.72785   0.72826
 Alpha virt. eigenvalues --    0.73423   0.73547   0.73804   0.74273   0.74857
 Alpha virt. eigenvalues --    0.74990   0.75380   0.75776   0.76110   0.76388
 Alpha virt. eigenvalues --    0.76609   0.77033   0.77221   0.77914   0.78079
 Alpha virt. eigenvalues --    0.79066   0.79427   0.80144   0.80332   0.80470
 Alpha virt. eigenvalues --    0.80578   0.81123   0.81586   0.81715   0.81730
 Alpha virt. eigenvalues --    0.82035   0.82365   0.82758   0.82913   0.83270
 Alpha virt. eigenvalues --    0.83634   0.83960   0.84723   0.85174   0.85343
 Alpha virt. eigenvalues --    0.85777   0.85938   0.86234   0.86382   0.87011
 Alpha virt. eigenvalues --    0.87359   0.87866   0.88190   0.88428   0.88906
 Alpha virt. eigenvalues --    0.89245   0.89583   0.89956   0.90215   0.90497
 Alpha virt. eigenvalues --    0.90662   0.90806   0.91280   0.91737   0.92009
 Alpha virt. eigenvalues --    0.92129   0.92290   0.92695   0.92849   0.93140
 Alpha virt. eigenvalues --    0.93584   0.94026   0.94284   0.94543   0.94842
 Alpha virt. eigenvalues --    0.94881   0.95250   0.95627   0.95697   0.95832
 Alpha virt. eigenvalues --    0.95938   0.96171   0.96302   0.96812   0.96908
 Alpha virt. eigenvalues --    0.97218   0.97431   0.97523   0.97895   0.98281
 Alpha virt. eigenvalues --    0.98549   0.98835   0.99234   0.99353   0.99869
 Alpha virt. eigenvalues --    1.00209   1.00466   1.00806   1.00883   1.01491
 Alpha virt. eigenvalues --    1.01652   1.02035   1.02248   1.02572   1.02830
 Alpha virt. eigenvalues --    1.03073   1.03229   1.03826   1.03960   1.04653
 Alpha virt. eigenvalues --    1.04878   1.05160   1.05292   1.05850   1.05989
 Alpha virt. eigenvalues --    1.06192   1.06487   1.06747   1.06854   1.07787
 Alpha virt. eigenvalues --    1.07938   1.08124   1.08327   1.08504   1.08767
 Alpha virt. eigenvalues --    1.09064   1.09267   1.09383   1.09796   1.10106
 Alpha virt. eigenvalues --    1.10330   1.10727   1.11004   1.11270   1.11723
 Alpha virt. eigenvalues --    1.11896   1.12047   1.12228   1.12320   1.12958
 Alpha virt. eigenvalues --    1.13148   1.13761   1.13839   1.14041   1.14272
 Alpha virt. eigenvalues --    1.14775   1.14959   1.15169   1.15512   1.15601
 Alpha virt. eigenvalues --    1.15688   1.15989   1.16434   1.16541   1.16693
 Alpha virt. eigenvalues --    1.16949   1.17127   1.17433   1.17562   1.18295
 Alpha virt. eigenvalues --    1.18492   1.18821   1.18935   1.19445   1.19494
 Alpha virt. eigenvalues --    1.20115   1.20470   1.20638   1.20940   1.21540
 Alpha virt. eigenvalues --    1.21781   1.22342   1.22486   1.22679   1.22890
 Alpha virt. eigenvalues --    1.23149   1.23623   1.23776   1.24030   1.24436
 Alpha virt. eigenvalues --    1.24538   1.24883   1.25137   1.25374   1.25588
 Alpha virt. eigenvalues --    1.25956   1.26071   1.26667   1.27011   1.27391
 Alpha virt. eigenvalues --    1.27489   1.27758   1.28006   1.28513   1.28605
 Alpha virt. eigenvalues --    1.29067   1.29814   1.29896   1.30146   1.30238
 Alpha virt. eigenvalues --    1.30793   1.30819   1.31504   1.31694   1.31912
 Alpha virt. eigenvalues --    1.31990   1.32562   1.32950   1.33187   1.33774
 Alpha virt. eigenvalues --    1.33955   1.34236   1.34456   1.34934   1.35034
 Alpha virt. eigenvalues --    1.35211   1.35318   1.35925   1.36651   1.36868
 Alpha virt. eigenvalues --    1.37179   1.37402   1.37678   1.38117   1.38313
 Alpha virt. eigenvalues --    1.38505   1.38693   1.39093   1.39435   1.39961
 Alpha virt. eigenvalues --    1.40188   1.40684   1.40747   1.41269   1.41387
 Alpha virt. eigenvalues --    1.41785   1.42760   1.43455   1.43831   1.43931
 Alpha virt. eigenvalues --    1.44142   1.44627   1.44928   1.45414   1.45935
 Alpha virt. eigenvalues --    1.46347   1.46695   1.47096   1.47434   1.47528
 Alpha virt. eigenvalues --    1.47789   1.47999   1.48745   1.48909   1.49688
 Alpha virt. eigenvalues --    1.49930   1.50097   1.50232   1.50724   1.50942
 Alpha virt. eigenvalues --    1.51432   1.51628   1.52189   1.53257   1.53350
 Alpha virt. eigenvalues --    1.53719   1.54115   1.54373   1.55132   1.55515
 Alpha virt. eigenvalues --    1.55669   1.55978   1.56101   1.56810   1.57174
 Alpha virt. eigenvalues --    1.58057   1.58236   1.58417   1.58881   1.59049
 Alpha virt. eigenvalues --    1.59488   1.60352   1.60561   1.60906   1.61610
 Alpha virt. eigenvalues --    1.61788   1.62280   1.62621   1.62946   1.63057
 Alpha virt. eigenvalues --    1.63833   1.63989   1.64749   1.65142   1.65419
 Alpha virt. eigenvalues --    1.65789   1.66164   1.66226   1.66634   1.66948
 Alpha virt. eigenvalues --    1.67377   1.67590   1.68317   1.68625   1.68816
 Alpha virt. eigenvalues --    1.69236   1.69445   1.69957   1.70277   1.70495
 Alpha virt. eigenvalues --    1.70904   1.71374   1.71671   1.71916   1.72518
 Alpha virt. eigenvalues --    1.72600   1.72713   1.73219   1.73762   1.74172
 Alpha virt. eigenvalues --    1.74367   1.75042   1.75237   1.75759   1.75997
 Alpha virt. eigenvalues --    1.76223   1.76282   1.76560   1.77574   1.77672
 Alpha virt. eigenvalues --    1.78161   1.78306   1.78572   1.78807   1.79118
 Alpha virt. eigenvalues --    1.79748   1.79986   1.80241   1.80553   1.81039
 Alpha virt. eigenvalues --    1.82080   1.82193   1.82567   1.83069   1.83353
 Alpha virt. eigenvalues --    1.83783   1.84254   1.84612   1.84895   1.85003
 Alpha virt. eigenvalues --    1.85460   1.85553   1.85939   1.86534   1.87001
 Alpha virt. eigenvalues --    1.87326   1.87746   1.88080   1.88372   1.88807
 Alpha virt. eigenvalues --    1.88951   1.89445   1.89732   1.90216   1.90753
 Alpha virt. eigenvalues --    1.90997   1.91545   1.91666   1.92467   1.92763
 Alpha virt. eigenvalues --    1.93539   1.94201   1.94373   1.94657   1.94698
 Alpha virt. eigenvalues --    1.94974   1.95302   1.95609   1.96200   1.96702
 Alpha virt. eigenvalues --    1.97580   1.98396   1.98552   1.98775   1.98932
 Alpha virt. eigenvalues --    1.99367   1.99876   2.00413   2.00509   2.01436
 Alpha virt. eigenvalues --    2.01854   2.01946   2.02350   2.02598   2.03677
 Alpha virt. eigenvalues --    2.03914   2.04294   2.04537   2.04880   2.05541
 Alpha virt. eigenvalues --    2.06246   2.06641   2.06722   2.07475   2.07754
 Alpha virt. eigenvalues --    2.08169   2.09022   2.10083   2.10344   2.10937
 Alpha virt. eigenvalues --    2.11585   2.11728   2.11796   2.12702   2.13304
 Alpha virt. eigenvalues --    2.13538   2.14032   2.14743   2.14925   2.15153
 Alpha virt. eigenvalues --    2.15816   2.15995   2.17134   2.17659   2.17971
 Alpha virt. eigenvalues --    2.18723   2.19306   2.20218   2.20658   2.21017
 Alpha virt. eigenvalues --    2.21240   2.21618   2.22076   2.22287   2.23005
 Alpha virt. eigenvalues --    2.23620   2.24025   2.24729   2.25200   2.25424
 Alpha virt. eigenvalues --    2.26543   2.27096   2.27301   2.27878   2.28196
 Alpha virt. eigenvalues --    2.28968   2.29907   2.30654   2.30714   2.31519
 Alpha virt. eigenvalues --    2.31768   2.32090   2.32532   2.32819   2.33029
 Alpha virt. eigenvalues --    2.34077   2.34312   2.34772   2.35306   2.35981
 Alpha virt. eigenvalues --    2.36348   2.36880   2.38191   2.38638   2.39218
 Alpha virt. eigenvalues --    2.39744   2.40444   2.40986   2.41233   2.41536
 Alpha virt. eigenvalues --    2.42050   2.42646   2.43335   2.43813   2.43921
 Alpha virt. eigenvalues --    2.44578   2.44681   2.45604   2.45661   2.46282
 Alpha virt. eigenvalues --    2.47389   2.48317   2.48518   2.49265   2.49635
 Alpha virt. eigenvalues --    2.50135   2.51233   2.51758   2.53099   2.53788
 Alpha virt. eigenvalues --    2.53913   2.54134   2.55011   2.55192   2.56094
 Alpha virt. eigenvalues --    2.57488   2.57795   2.58457   2.59380   2.60024
 Alpha virt. eigenvalues --    2.60862   2.61131   2.61568   2.61723   2.62225
 Alpha virt. eigenvalues --    2.63131   2.64023   2.64129   2.64571   2.65630
 Alpha virt. eigenvalues --    2.66932   2.67220   2.68432   2.69106   2.69151
 Alpha virt. eigenvalues --    2.69396   2.70350   2.70770   2.71035   2.71426
 Alpha virt. eigenvalues --    2.72450   2.73361   2.73562   2.73829   2.74925
 Alpha virt. eigenvalues --    2.75467   2.75618   2.76705   2.77271   2.77521
 Alpha virt. eigenvalues --    2.78276   2.78907   2.79535   2.80103   2.80447
 Alpha virt. eigenvalues --    2.82147   2.82614   2.83114   2.83348   2.84022
 Alpha virt. eigenvalues --    2.84728   2.84920   2.85465   2.85768   2.86633
 Alpha virt. eigenvalues --    2.87146   2.87366   2.88002   2.89650   2.90131
 Alpha virt. eigenvalues --    2.90524   2.91823   2.92464   2.93595   2.93946
 Alpha virt. eigenvalues --    2.94090   2.94150   2.95015   2.95853   2.97538
 Alpha virt. eigenvalues --    2.98104   2.99369   2.99799   2.99883   3.00431
 Alpha virt. eigenvalues --    3.00564   3.01564   3.02464   3.03336   3.03641
 Alpha virt. eigenvalues --    3.05358   3.05607   3.06421   3.06682   3.08219
 Alpha virt. eigenvalues --    3.08676   3.09221   3.09515   3.09732   3.09885
 Alpha virt. eigenvalues --    3.10489   3.10785   3.11974   3.12282   3.13173
 Alpha virt. eigenvalues --    3.13546   3.13605   3.14816   3.15561   3.15837
 Alpha virt. eigenvalues --    3.16020   3.17149   3.17591   3.17860   3.18805
 Alpha virt. eigenvalues --    3.19198   3.20423   3.20621   3.21629   3.22088
 Alpha virt. eigenvalues --    3.22994   3.23472   3.23744   3.24218   3.25103
 Alpha virt. eigenvalues --    3.25303   3.25736   3.26992   3.28021   3.28819
 Alpha virt. eigenvalues --    3.29130   3.29724   3.29924   3.30241   3.31111
 Alpha virt. eigenvalues --    3.32081   3.32101   3.33075   3.33652   3.33944
 Alpha virt. eigenvalues --    3.34788   3.35174   3.35577   3.36335   3.36734
 Alpha virt. eigenvalues --    3.38157   3.38604   3.39210   3.40138   3.40395
 Alpha virt. eigenvalues --    3.40963   3.41361   3.41799   3.41984   3.42472
 Alpha virt. eigenvalues --    3.43480   3.43582   3.43712   3.44366   3.44666
 Alpha virt. eigenvalues --    3.45123   3.45449   3.45625   3.46076   3.47446
 Alpha virt. eigenvalues --    3.48339   3.48598   3.49578   3.50292   3.50638
 Alpha virt. eigenvalues --    3.51357   3.51734   3.52503   3.53715   3.54022
 Alpha virt. eigenvalues --    3.54685   3.56128   3.56713   3.56922   3.57245
 Alpha virt. eigenvalues --    3.58023   3.58148   3.58974   3.59582   3.59875
 Alpha virt. eigenvalues --    3.60092   3.60693   3.60843   3.61023   3.61676
 Alpha virt. eigenvalues --    3.63911   3.64116   3.64248   3.64498   3.65777
 Alpha virt. eigenvalues --    3.66089   3.67204   3.67457   3.67982   3.68698
 Alpha virt. eigenvalues --    3.69198   3.69501   3.69718   3.70975   3.71017
 Alpha virt. eigenvalues --    3.71326   3.71548   3.71762   3.72351   3.73052
 Alpha virt. eigenvalues --    3.73440   3.73716   3.74225   3.74342   3.74871
 Alpha virt. eigenvalues --    3.75320   3.75505   3.76473   3.76593   3.77246
 Alpha virt. eigenvalues --    3.77401   3.77953   3.79307   3.79558   3.79692
 Alpha virt. eigenvalues --    3.80507   3.80803   3.81654   3.81774   3.82567
 Alpha virt. eigenvalues --    3.84305   3.84607   3.85214   3.85702   3.86176
 Alpha virt. eigenvalues --    3.86821   3.87291   3.87419   3.87803   3.88570
 Alpha virt. eigenvalues --    3.89093   3.89752   3.89947   3.90250   3.90654
 Alpha virt. eigenvalues --    3.91117   3.91548   3.91666   3.92053   3.92476
 Alpha virt. eigenvalues --    3.92847   3.93396   3.94140   3.94338   3.95312
 Alpha virt. eigenvalues --    3.95707   3.96593   3.96764   3.96899   3.97672
 Alpha virt. eigenvalues --    3.98044   3.98435   3.98931   3.99478   3.99953
 Alpha virt. eigenvalues --    4.00979   4.01772   4.02555   4.02791   4.03715
 Alpha virt. eigenvalues --    4.04168   4.04278   4.04673   4.04865   4.06519
 Alpha virt. eigenvalues --    4.07478   4.07750   4.08497   4.09474   4.10134
 Alpha virt. eigenvalues --    4.10278   4.11149   4.11522   4.11714   4.12573
 Alpha virt. eigenvalues --    4.12781   4.13708   4.14108   4.14555   4.14737
 Alpha virt. eigenvalues --    4.15618   4.16406   4.16577   4.17853   4.18028
 Alpha virt. eigenvalues --    4.19020   4.19156   4.19434   4.19705   4.20015
 Alpha virt. eigenvalues --    4.20542   4.20647   4.21352   4.21665   4.22264
 Alpha virt. eigenvalues --    4.22347   4.23536   4.24573   4.25079   4.26244
 Alpha virt. eigenvalues --    4.26386   4.26594   4.27393   4.27578   4.27979
 Alpha virt. eigenvalues --    4.28265   4.29322   4.29415   4.31024   4.31456
 Alpha virt. eigenvalues --    4.31744   4.32004   4.33120   4.33417   4.33970
 Alpha virt. eigenvalues --    4.34480   4.34819   4.35697   4.35989   4.36144
 Alpha virt. eigenvalues --    4.36369   4.37859   4.37911   4.38558   4.39694
 Alpha virt. eigenvalues --    4.40704   4.41235   4.41983   4.42657   4.43561
 Alpha virt. eigenvalues --    4.44163   4.45275   4.45327   4.45942   4.47024
 Alpha virt. eigenvalues --    4.47109   4.48153   4.49109   4.49712   4.50292
 Alpha virt. eigenvalues --    4.51631   4.51887   4.52542   4.53018   4.53207
 Alpha virt. eigenvalues --    4.54729   4.54900   4.55863   4.56218   4.57291
 Alpha virt. eigenvalues --    4.57808   4.58904   4.59599   4.60154   4.60542
 Alpha virt. eigenvalues --    4.62097   4.62820   4.64233   4.64329   4.64953
 Alpha virt. eigenvalues --    4.65999   4.66276   4.67576   4.67864   4.68798
 Alpha virt. eigenvalues --    4.70302   4.70496   4.70638   4.70867   4.72633
 Alpha virt. eigenvalues --    4.73515   4.74063   4.74561   4.74715   4.74942
 Alpha virt. eigenvalues --    4.77035   4.77340   4.78267   4.79255   4.79603
 Alpha virt. eigenvalues --    4.79880   4.80142   4.81988   4.82726   4.83597
 Alpha virt. eigenvalues --    4.84040   4.84868   4.85216   4.86099   4.86860
 Alpha virt. eigenvalues --    4.87041   4.87864   4.88956   4.89112   4.89652
 Alpha virt. eigenvalues --    4.91130   4.92901   4.93403   4.93953   4.95482
 Alpha virt. eigenvalues --    4.97047   4.97286   4.98254   5.00210   5.02041
 Alpha virt. eigenvalues --    5.03648   5.04865   5.05280   5.05696   5.06098
 Alpha virt. eigenvalues --    5.06235   5.07128   5.07633   5.08669   5.09725
 Alpha virt. eigenvalues --    5.11179   5.11411   5.11792   5.12960   5.13485
 Alpha virt. eigenvalues --    5.13698   5.14281   5.15467   5.16384   5.18041
 Alpha virt. eigenvalues --    5.18394   5.18994   5.19679   5.20419   5.21355
 Alpha virt. eigenvalues --    5.21617   5.22053   5.23643   5.24149   5.24604
 Alpha virt. eigenvalues --    5.25131   5.25707   5.26546   5.26758   5.27147
 Alpha virt. eigenvalues --    5.27760   5.30037   5.30797   5.30877   5.31684
 Alpha virt. eigenvalues --    5.31897   5.32119   5.34394   5.35011   5.35352
 Alpha virt. eigenvalues --    5.35900   5.39010   5.40408   5.41954   5.43071
 Alpha virt. eigenvalues --    5.46172   5.46980   5.48669   5.49185   5.49954
 Alpha virt. eigenvalues --    5.50315   5.53027   5.54158   5.55449   5.55552
 Alpha virt. eigenvalues --    5.55728   5.57735   5.58890   5.59420   5.60998
 Alpha virt. eigenvalues --    5.61125   5.61318   5.64058   5.64403   5.64521
 Alpha virt. eigenvalues --    5.66291   5.67196   5.68248   5.68499   5.68689
 Alpha virt. eigenvalues --    5.70180   5.71632   5.73211   5.74266   5.77379
 Alpha virt. eigenvalues --    5.77603   5.78803   5.81505   5.82723   5.82918
 Alpha virt. eigenvalues --    5.83290   5.83623   5.84482   5.85304   5.85786
 Alpha virt. eigenvalues --    5.86151   5.87432   5.91883   5.93187   5.94034
 Alpha virt. eigenvalues --    5.94582   5.96259   5.97632   5.97923   5.99557
 Alpha virt. eigenvalues --    6.00780   6.01359   6.03904   6.05341   6.06185
 Alpha virt. eigenvalues --    6.08069   6.10368   6.10461   6.11806   6.12907
 Alpha virt. eigenvalues --    6.13904   6.14661   6.17435   6.18753   6.18876
 Alpha virt. eigenvalues --    6.20701   6.20827   6.22371   6.25827   6.31833
 Alpha virt. eigenvalues --    6.32607   6.33958   6.35851   6.36953   6.42238
 Alpha virt. eigenvalues --    6.43085   6.45563   6.45995   6.47057   6.48009
 Alpha virt. eigenvalues --    6.54000   6.54832   6.55659   6.60585   6.62227
 Alpha virt. eigenvalues --    6.66491   6.67418   6.67576   6.70497   6.72076
 Alpha virt. eigenvalues --    6.72739   6.73146   6.75612   6.79583   6.80363
 Alpha virt. eigenvalues --    6.81285   6.82485   6.86538   6.87854   6.88888
 Alpha virt. eigenvalues --    6.89138   6.91413   6.92342   6.93350   6.96542
 Alpha virt. eigenvalues --    6.97188   6.98684   7.00183   7.06013   7.07603
 Alpha virt. eigenvalues --    7.09883   7.10680   7.12765   7.13632   7.14992
 Alpha virt. eigenvalues --    7.21881   7.23578   7.23642   7.26437   7.27301
 Alpha virt. eigenvalues --    7.32032   7.32243   7.32491   7.36889   7.37348
 Alpha virt. eigenvalues --    7.38785   7.39988   7.42314   7.51727   7.54173
 Alpha virt. eigenvalues --    7.56870   7.60852   7.61423   7.66862   7.68509
 Alpha virt. eigenvalues --    7.69495   7.71254   7.76429   7.83850   7.84886
 Alpha virt. eigenvalues --    7.87153   7.92690   7.95116   7.99403   8.05484
 Alpha virt. eigenvalues --    8.08626   8.11753   8.20804   8.38711   8.55239
 Alpha virt. eigenvalues --    8.57803   8.62674   8.64983   8.66519   8.80248
 Alpha virt. eigenvalues --    8.83357   8.85065   8.85506   8.87831   8.88140
 Alpha virt. eigenvalues --    8.88384   8.91386   8.92711   8.92826   8.93480
 Alpha virt. eigenvalues --    9.01411   9.05056   9.06179   9.06904   9.07991
 Alpha virt. eigenvalues --    9.14009   9.16640   9.17701   9.19316   9.20238
 Alpha virt. eigenvalues --    9.21347   9.21417   9.23995   9.27080   9.27193
 Alpha virt. eigenvalues --    9.27536   9.28157   9.30267   9.31121   9.32419
 Alpha virt. eigenvalues --    9.35360   9.38530   9.38618   9.39733   9.40406
 Alpha virt. eigenvalues --    9.41108   9.41347   9.41960   9.44955   9.46157
 Alpha virt. eigenvalues --    9.47534   9.48750   9.49228   9.50700   9.53819
 Alpha virt. eigenvalues --    9.55857   9.56961   9.64548   9.69267   9.70617
 Alpha virt. eigenvalues --    9.76092   9.76419   9.82666   9.84656   9.84981
 Alpha virt. eigenvalues --    9.92949   9.98649  11.43520  14.95481  15.54824
 Alpha virt. eigenvalues --   15.56010  15.66424  16.05917  16.16023  16.33193
 Alpha virt. eigenvalues --   16.44609  16.84488  17.20593  17.38462  17.70799
 Alpha virt. eigenvalues --   17.97123  18.19350  18.31455  18.76060  18.91363
 Alpha virt. eigenvalues --   19.68871  19.86971  20.55817  21.07347  21.28168
 Alpha virt. eigenvalues --   21.94731
          Condensed to atoms (all electrons):
               1          2          3          4          5          6
     1  C   12.356992  -0.341235  -0.891062   0.124323  -0.005934  -0.089098
     2  N   -0.341235   9.363011   0.293746  -0.180108  -0.526562  -0.169066
     3  C   -0.891062   0.293746   6.614975   0.249905   0.410689  -0.144330
     4  O    0.124323  -0.180108   0.249905   9.185550  -0.201545   0.048807
     5  O   -0.005934  -0.526562   0.410689  -0.201545   8.870863   0.134485
     6  C   -0.089098  -0.169066  -0.144330   0.048807   0.134485   5.980827
     7  C   -0.023700  -0.000141   0.007777  -0.007504  -0.115959  -0.041581
     8  C    0.001952   0.002886  -0.001045  -0.004890   0.008875  -0.024550
     9  C   -1.841040  -0.377594  -0.129037  -0.174214  -0.138526  -0.057680
    10  C    0.578416   0.017013   0.004163   0.046502   0.048505   0.012697
    11  C   -0.240604   0.051714   0.026445  -0.005070  -0.004014   0.003388
    12  C   -0.276612   0.123236   0.015445   0.011970   0.005777  -0.002155
    13  C   -1.771836   0.042162  -0.166672   0.039800  -0.103351  -0.006422
    14  H   -0.103391  -0.390722  -0.297251  -0.010811   0.116731  -0.045353
    15  H   -0.013658   0.014468  -0.014612   0.000699  -0.050811   0.322873
    16  H   -0.011631   0.011659  -0.019945  -0.002166  -0.053902   0.334812
    17  H   -0.003906  -0.009744  -0.011630   0.005853  -0.057290   0.068002
    18  H   -0.003457  -0.010437  -0.014760   0.005292  -0.060338   0.074063
    19  H    0.000504  -0.000491   0.005920  -0.000063   0.002142  -0.009055
    20  H    0.000323  -0.000033   0.001687  -0.000173   0.001467  -0.002206
    21  H    0.000550  -0.000498   0.005907  -0.000178   0.003161  -0.010594
    22  H   -0.768599  -0.266862   0.036705  -0.216243   0.006010  -0.033292
    23  Cl   0.065199  -0.014575  -0.002546  -0.000101  -0.000956   0.000210
    24  H   -0.953407  -0.064859  -0.141806   0.008441  -0.062053  -0.004013
    25  S   -0.144568   0.008701  -0.020132  -0.000358   0.001574  -0.003850
    26  H   -0.058079   0.011320   0.007044  -0.000721  -0.000118  -0.000060
    27  F    0.010932  -0.002904   0.004648  -0.001734  -0.001019  -0.001408
    28  F    0.022492   0.000315   0.001347  -0.000106   0.000029   0.000188
    29  F    0.009772  -0.003258   0.004938  -0.001542  -0.001066  -0.001452
    30  F    0.020190   0.000382   0.001383  -0.000087   0.000039   0.000197
    31  F   -0.003803   0.000683   0.003042   0.000024  -0.000042  -0.000001
    32  O    0.019671   0.009524  -0.006387  -0.000198   0.007671  -0.002515
    33  O   -0.079876  -0.266277  -0.018402  -0.003163   0.041890   0.030536
    34  C   -0.052661  -0.031171  -0.027123   0.001998  -0.027136   0.000496
    35  C   -0.027012  -0.007018   0.000909   0.000374  -0.007074   0.000590
    36  C   -0.005118  -0.003879  -0.003345   0.000177   0.005511  -0.000756
    37  H   -0.001312  -0.000403   0.000299   0.000003  -0.001047  -0.000012
    38  H   -0.000748  -0.000240   0.000390   0.000016  -0.000946  -0.000010
    39  H   -0.001884  -0.000069  -0.001635   0.000066  -0.002387  -0.000554
    40  H    0.001364  -0.000805  -0.000289   0.000004   0.001313   0.000660
    41  H   -0.001906  -0.000933  -0.001191   0.000048  -0.001954  -0.000195
               7          8          9         10         11         12
     1  C   -0.023700   0.001952  -1.841040   0.578416  -0.240604  -0.276612
     2  N   -0.000141   0.002886  -0.377594   0.017013   0.051714   0.123236
     3  C    0.007777  -0.001045  -0.129037   0.004163   0.026445   0.015445
     4  O   -0.007504  -0.004890  -0.174214   0.046502  -0.005070   0.011970
     5  O   -0.115959   0.008875  -0.138526   0.048505  -0.004014   0.005777
     6  C   -0.041581  -0.024550  -0.057680   0.012697   0.003388  -0.002155
     7  C    5.784226   0.055644  -0.004397   0.002193  -0.000139   0.000458
     8  C    0.055644   5.861910  -0.001352   0.000252  -0.000049   0.000055
     9  C   -0.004397  -0.001352  11.432452  -2.564532   0.250594  -0.041759
    10  C    0.002193   0.000252  -2.564532  10.940126  -1.645673   0.060774
    11  C   -0.000139  -0.000049   0.250594  -1.645673   8.792363  -0.612953
    12  C    0.000458   0.000055  -0.041759   0.060774  -0.612953   7.498155
    13  C    0.008594   0.000616  -0.184054  -0.318371   0.088368  -0.615064
    14  H    0.001738  -0.002343   0.040195   0.035282  -0.006497   0.006689
    15  H    0.008178  -0.003865   0.004240  -0.001165   0.000139  -0.000455
    16  H    0.008082  -0.003356   0.003261  -0.000918   0.000151  -0.000425
    17  H    0.396173  -0.045654  -0.000409   0.000245   0.000031   0.000048
    18  H    0.393212  -0.044175  -0.000682   0.000248   0.000019   0.000060
    19  H    0.028741   0.371342  -0.000101   0.000062  -0.000012   0.000013
    20  H   -0.044597   0.454732  -0.000084  -0.000001   0.000001   0.000002
    21  H    0.030997   0.369964  -0.000090   0.000073  -0.000012   0.000017
    22  H   -0.002064  -0.000525   0.477393  -0.576834   0.111871  -0.047857
    23  Cl  -0.000006  -0.000000  -0.013373   0.000438  -0.208291  -0.069905
    24  H    0.002278   0.000265  -0.040073  -0.098966   0.105562  -0.333822
    25  S   -0.000016  -0.000015   0.222015  -0.934631   0.030064   0.021097
    26  H   -0.000006  -0.000002   0.124400  -0.457680   0.192528  -0.191783
    27  F   -0.000043  -0.000001   0.047888  -0.173728   0.012555   0.004211
    28  F    0.000001   0.000000  -0.030286  -0.101380   0.053388  -0.008447
    29  F   -0.000044  -0.000002   0.052948  -0.177766   0.015698   0.004706
    30  F    0.000001   0.000000  -0.025910  -0.105101   0.052801  -0.006991
    31  F    0.000000   0.000000  -0.027545   0.228707  -0.060597  -0.008246
    32  O   -0.000414  -0.000011  -0.008721  -0.004549  -0.008431  -0.010330
    33  O    0.004520  -0.000331  -0.056827   0.011646  -0.007591   0.011819
    34  C    0.004940   0.000192  -0.013125  -0.000459  -0.005793   0.030450
    35  C    0.001033  -0.000400   0.004211  -0.004590   0.001003   0.001015
    36  C    0.001131  -0.000541  -0.000160  -0.000504   0.000030   0.001213
    37  H    0.000136  -0.000037   0.000413  -0.000084  -0.000027   0.000554
    38  H    0.000136  -0.000028   0.000297  -0.000062  -0.000059   0.000451
    39  H   -0.000932   0.000145   0.000461  -0.000116   0.000018   0.000158
    40  H    0.000120   0.000019  -0.000230   0.000019  -0.000034   0.000012
    41  H   -0.000767   0.000063   0.000432  -0.000116   0.000039   0.000210
              13         14         15         16         17         18
     1  C   -1.771836  -0.103391  -0.013658  -0.011631  -0.003906  -0.003457
     2  N    0.042162  -0.390722   0.014468   0.011659  -0.009744  -0.010437
     3  C   -0.166672  -0.297251  -0.014612  -0.019945  -0.011630  -0.014760
     4  O    0.039800  -0.010811   0.000699  -0.002166   0.005853   0.005292
     5  O   -0.103351   0.116731  -0.050811  -0.053902  -0.057290  -0.060338
     6  C   -0.006422  -0.045353   0.322873   0.334812   0.068002   0.074063
     7  C    0.008594   0.001738   0.008178   0.008082   0.396173   0.393212
     8  C    0.000616  -0.002343  -0.003865  -0.003356  -0.045654  -0.044175
     9  C   -0.184054   0.040195   0.004240   0.003261  -0.000409  -0.000682
    10  C   -0.318371   0.035282  -0.001165  -0.000918   0.000245   0.000248
    11  C    0.088368  -0.006497   0.000139   0.000151   0.000031   0.000019
    12  C   -0.615064   0.006689  -0.000455  -0.000425   0.000048   0.000060
    13  C   10.402053  -0.316882  -0.000007  -0.000056   0.000358   0.000417
    14  H   -0.316882   1.681725   0.001832  -0.001336  -0.002305  -0.003315
    15  H   -0.000007   0.001832   0.437349   0.000480   0.025156  -0.026389
    16  H   -0.000056  -0.001336   0.000480   0.439275  -0.026214   0.025741
    17  H    0.000358  -0.002305   0.025156  -0.026214   0.439001  -0.004100
    18  H    0.000417  -0.003315  -0.026389   0.025741  -0.004100   0.439147
    19  H    0.000010   0.000155  -0.007166  -0.008502  -0.001288  -0.000190
    20  H   -0.000037   0.000101  -0.000488  -0.000231  -0.003573  -0.002947
    21  H    0.000009   0.000031  -0.008388  -0.007505   0.000230  -0.001689
    22  H   -0.217906   0.051922  -0.000498  -0.000214  -0.000343  -0.000446
    23  Cl   0.172487  -0.004896   0.000014   0.000018   0.000006   0.000009
    24  H   -0.099027  -0.262993  -0.000658  -0.000413   0.000079   0.000191
    25  S   -0.009053  -0.006115  -0.000339  -0.000332  -0.000002  -0.000002
    26  H   -0.026569   0.000567   0.000011   0.000008   0.000002   0.000002
    27  F   -0.000437   0.000498   0.000005   0.000009   0.000002  -0.000008
    28  F    0.004287   0.000147   0.000013  -0.000000   0.000001   0.000001
    29  F   -0.001222   0.000496   0.000014   0.000001  -0.000008   0.000001
    30  F    0.003956   0.000044   0.000001   0.000013   0.000001   0.000002
    31  F    0.004854  -0.000038   0.000019   0.000019  -0.000000  -0.000001
    32  O    0.055016   0.003194   0.000045   0.000007  -0.000343  -0.000303
    33  O    0.106388  -0.100890  -0.001686  -0.001252   0.000702   0.000290
    34  C    0.080491  -0.076484  -0.000814  -0.000674   0.001005   0.001119
    35  C   -0.009066   0.007989  -0.000137  -0.000003   0.000869   0.000969
    36  C   -0.000761  -0.007752   0.000240   0.000002   0.000424  -0.000095
    37  H    0.001823  -0.000345  -0.000031   0.000000   0.000225   0.000056
    38  H    0.002333   0.000224  -0.000005  -0.000018   0.000059   0.000197
    39  H    0.001498  -0.002362   0.000161  -0.000142  -0.000214   0.000114
    40  H   -0.000678   0.000629   0.000045   0.000036  -0.000131  -0.000276
    41  H    0.001042  -0.002316  -0.000137   0.000150  -0.000084   0.000099
              19         20         21         22         23         24
     1  C    0.000504   0.000323   0.000550  -0.768599   0.065199  -0.953407
     2  N   -0.000491  -0.000033  -0.000498  -0.266862  -0.014575  -0.064859
     3  C    0.005920   0.001687   0.005907   0.036705  -0.002546  -0.141806
     4  O   -0.000063  -0.000173  -0.000178  -0.216243  -0.000101   0.008441
     5  O    0.002142   0.001467   0.003161   0.006010  -0.000956  -0.062053
     6  C   -0.009055  -0.002206  -0.010594  -0.033292   0.000210  -0.004013
     7  C    0.028741  -0.044597   0.030997  -0.002064  -0.000006   0.002278
     8  C    0.371342   0.454732   0.369964  -0.000525  -0.000000   0.000265
     9  C   -0.000101  -0.000084  -0.000090   0.477393  -0.013373  -0.040073
    10  C    0.000062  -0.000001   0.000073  -0.576834   0.000438  -0.098966
    11  C   -0.000012   0.000001  -0.000012   0.111871  -0.208291   0.105562
    12  C    0.000013   0.000002   0.000017  -0.047857  -0.069905  -0.333822
    13  C    0.000010  -0.000037   0.000009  -0.217906   0.172487  -0.099027
    14  H    0.000155   0.000101   0.000031   0.051922  -0.004896  -0.262993
    15  H   -0.007166  -0.000488  -0.008388  -0.000498   0.000014  -0.000658
    16  H   -0.008502  -0.000231  -0.007505  -0.000214   0.000018  -0.000413
    17  H   -0.001288  -0.003573   0.000230  -0.000343   0.000006   0.000079
    18  H   -0.000190  -0.002947  -0.001689  -0.000446   0.000009   0.000191
    19  H    0.320743   0.000920   0.018625   0.000017  -0.000001   0.000013
    20  H    0.000920   0.312963   0.000401  -0.000020   0.000000   0.000021
    21  H    0.018625   0.000401   0.321066   0.000055  -0.000001   0.000013
    22  H    0.000017  -0.000020   0.000055   1.822414  -0.003347  -0.040090
    23  Cl  -0.000001   0.000000  -0.000001  -0.003347  17.687147  -0.149969
    24  H    0.000013   0.000021   0.000013  -0.040090  -0.149969   2.350263
    25  S    0.000005  -0.000002   0.000006   0.125772  -0.006308  -0.011898
    26  H   -0.000001   0.000000  -0.000001  -0.007139  -0.039082  -0.036680
    27  F   -0.000001  -0.000000   0.000001  -0.007900   0.000242  -0.000044
    28  F   -0.000000   0.000000  -0.000000   0.002622  -0.000896  -0.000415
    29  F    0.000000  -0.000000  -0.000001  -0.011468   0.000256  -0.000070
    30  F   -0.000000   0.000000  -0.000000   0.003731  -0.000876  -0.000247
    31  F    0.000000   0.000000   0.000000  -0.025555  -0.000033   0.000500
    32  O    0.000008  -0.000008   0.000006  -0.000558   0.013281  -0.297980
    33  O   -0.000049  -0.000098   0.000037  -0.007387   0.003158   0.017847
    34  C   -0.000048  -0.000029  -0.000020  -0.008110   0.000041  -0.016970
    35  C   -0.000050   0.000022  -0.000024  -0.000712   0.002995   0.008605
    36  C   -0.000019  -0.000088  -0.000034  -0.000102   0.000246   0.005342
    37  H   -0.000010   0.000001  -0.000000  -0.000024  -0.000180   0.001841
    38  H   -0.000001   0.000000  -0.000006  -0.000026  -0.000205   0.000648
    39  H    0.000050  -0.000026   0.000000   0.000019   0.000038   0.002076
    40  H   -0.000004   0.000005  -0.000001  -0.000015   0.000007  -0.000332
    41  H    0.000002  -0.000016   0.000029   0.000017   0.000035   0.002083
              25         26         27         28         29         30
     1  C   -0.144568  -0.058079   0.010932   0.022492   0.009772   0.020190
     2  N    0.008701   0.011320  -0.002904   0.000315  -0.003258   0.000382
     3  C   -0.020132   0.007044   0.004648   0.001347   0.004938   0.001383
     4  O   -0.000358  -0.000721  -0.001734  -0.000106  -0.001542  -0.000087
     5  O    0.001574  -0.000118  -0.001019   0.000029  -0.001066   0.000039
     6  C   -0.003850  -0.000060  -0.001408   0.000188  -0.001452   0.000197
     7  C   -0.000016  -0.000006  -0.000043   0.000001  -0.000044   0.000001
     8  C   -0.000015  -0.000002  -0.000001   0.000000  -0.000002   0.000000
     9  C    0.222015   0.124400   0.047888  -0.030286   0.052948  -0.025910
    10  C   -0.934631  -0.457680  -0.173728  -0.101380  -0.177766  -0.105101
    11  C    0.030064   0.192528   0.012555   0.053388   0.015698   0.052801
    12  C    0.021097  -0.191783   0.004211  -0.008447   0.004706  -0.006991
    13  C   -0.009053  -0.026569  -0.000437   0.004287  -0.001222   0.003956
    14  H   -0.006115   0.000567   0.000498   0.000147   0.000496   0.000044
    15  H   -0.000339   0.000011   0.000005   0.000013   0.000014   0.000001
    16  H   -0.000332   0.000008   0.000009  -0.000000   0.000001   0.000013
    17  H   -0.000002   0.000002   0.000002   0.000001  -0.000008   0.000001
    18  H   -0.000002   0.000002  -0.000008   0.000001   0.000001   0.000002
    19  H    0.000005  -0.000001  -0.000001  -0.000000   0.000000  -0.000000
    20  H   -0.000002   0.000000  -0.000000   0.000000  -0.000000   0.000000
    21  H    0.000006  -0.000001   0.000001  -0.000000  -0.000001  -0.000000
    22  H    0.125772  -0.007139  -0.007900   0.002622  -0.011468   0.003731
    23  Cl  -0.006308  -0.039082   0.000242  -0.000896   0.000256  -0.000876
    24  H   -0.011898  -0.036680  -0.000044  -0.000415  -0.000070  -0.000247
    25  S   14.041899   0.063192  -0.030774  -0.062271  -0.030591  -0.061644
    26  H    0.063192   0.973109   0.008115  -0.029828   0.008496  -0.030274
    27  F   -0.030774   0.008115   9.771056  -0.011666   0.018717   0.049032
    28  F   -0.062271  -0.029828  -0.011666   9.786963   0.049015   0.020084
    29  F   -0.030591   0.008496   0.018717   0.049015   9.771449  -0.011467
    30  F   -0.061644  -0.030274   0.049032   0.020084  -0.011467   9.787004
    31  F    0.132623  -0.021599  -0.103026  -0.099333  -0.102944  -0.099640
    32  O   -0.000562  -0.001080   0.000005   0.000001   0.000005   0.000000
    33  O   -0.000653  -0.000350  -0.000030   0.000021  -0.000045   0.000022
    34  C   -0.001694  -0.000804   0.000003   0.000190  -0.000010   0.000175
    35  C   -0.000042   0.000085   0.000001   0.000008   0.000000   0.000008
    36  C   -0.000018  -0.000011  -0.000001   0.000001  -0.000001   0.000001
    37  H    0.000004   0.000019  -0.000001  -0.000000   0.000000   0.000001
    38  H    0.000001   0.000017   0.000001   0.000002  -0.000001  -0.000000
    39  H   -0.000001   0.000000  -0.000000   0.000000  -0.000000  -0.000000
    40  H   -0.000003  -0.000003  -0.000000   0.000000  -0.000000   0.000000
    41  H    0.000002   0.000001  -0.000000  -0.000000  -0.000000   0.000000
              31         32         33         34         35         36
     1  C   -0.003803   0.019671  -0.079876  -0.052661  -0.027012  -0.005118
     2  N    0.000683   0.009524  -0.266277  -0.031171  -0.007018  -0.003879
     3  C    0.003042  -0.006387  -0.018402  -0.027123   0.000909  -0.003345
     4  O    0.000024  -0.000198  -0.003163   0.001998   0.000374   0.000177
     5  O   -0.000042   0.007671   0.041890  -0.027136  -0.007074   0.005511
     6  C   -0.000001  -0.002515   0.030536   0.000496   0.000590  -0.000756
     7  C    0.000000  -0.000414   0.004520   0.004940   0.001033   0.001131
     8  C    0.000000  -0.000011  -0.000331   0.000192  -0.000400  -0.000541
     9  C   -0.027545  -0.008721  -0.056827  -0.013125   0.004211  -0.000160
    10  C    0.228707  -0.004549   0.011646  -0.000459  -0.004590  -0.000504
    11  C   -0.060597  -0.008431  -0.007591  -0.005793   0.001003   0.000030
    12  C   -0.008246  -0.010330   0.011819   0.030450   0.001015   0.001213
    13  C    0.004854   0.055016   0.106388   0.080491  -0.009066  -0.000761
    14  H   -0.000038   0.003194  -0.100890  -0.076484   0.007989  -0.007752
    15  H    0.000019   0.000045  -0.001686  -0.000814  -0.000137   0.000240
    16  H    0.000019   0.000007  -0.001252  -0.000674  -0.000003   0.000002
    17  H   -0.000000  -0.000343   0.000702   0.001005   0.000869   0.000424
    18  H   -0.000001  -0.000303   0.000290   0.001119   0.000969  -0.000095
    19  H    0.000000   0.000008  -0.000049  -0.000048  -0.000050  -0.000019
    20  H    0.000000  -0.000008  -0.000098  -0.000029   0.000022  -0.000088
    21  H    0.000000   0.000006   0.000037  -0.000020  -0.000024  -0.000034
    22  H   -0.025555  -0.000558  -0.007387  -0.008110  -0.000712  -0.000102
    23  Cl  -0.000033   0.013281   0.003158   0.000041   0.002995   0.000246
    24  H    0.000500  -0.297980   0.017847  -0.016970   0.008605   0.005342
    25  S    0.132623  -0.000562  -0.000653  -0.001694  -0.000042  -0.000018
    26  H   -0.021599  -0.001080  -0.000350  -0.000804   0.000085  -0.000011
    27  F   -0.103026   0.000005  -0.000030   0.000003   0.000001  -0.000001
    28  F   -0.099333   0.000001   0.000021   0.000190   0.000008   0.000001
    29  F   -0.102944   0.000005  -0.000045  -0.000010   0.000000  -0.000001
    30  F   -0.099640   0.000000   0.000022   0.000175   0.000008   0.000001
[...]
  1220. RY*(  24) O  33                  0.00000     6.80017   
  1221. RY*(  25) O  33                  0.00001     5.96146   
  1222. RY*(  26) O  33                  0.00000     3.51463   
  1223. RY*(  27) O  33                  0.00000    11.86545   
  1224. RY*(  28) O  33                  0.00000     3.56760   
  1225. RY*(  29) O  33                  0.00000     5.87017   
  1226. RY*(  30) O  33                  0.00000     3.60098   
  1227. RY*(  31) O  33                  0.00000     3.18687   
  1228. RY*(  32) O  33                  0.00000     4.12044   
  1229. RY*(  33) O  33                  0.00000     6.36816   
  1230. RY*(  34) O  33                  0.00000     3.44583   
  1231. RY*(  35) O  33                  0.00000     5.49108   
  1232. RY*(  36) O  33                  0.00000     3.49457   
  1233. RY*(  37) O  33                  0.00000     6.22446   
  1234. RY*(  38) O  33                  0.00000     3.93527   
  1235. RY*(  39) O  33                  0.00000     6.77660   
  1236. RY*(  40) O  33                  0.00000     4.23784   
  1237. RY*(  41) O  33                  0.00000     6.95047   
  1238. RY*(   1) C  34                  0.01837     1.72261   
  1239. RY*(   2) C  34                  0.01013     1.66643   
  1240. RY*(   3) C  34                  0.00445     2.33847   
  1241. RY*(   4) C  34                  0.00230     2.94820   
  1242. RY*(   5) C  34                  0.00145     3.28467   
  1243. RY*(   6) C  34                  0.00093     1.86515   
  1244. RY*(   7) C  34                  0.00039     1.58137   
  1245. RY*(   8) C  34                  0.00029     2.36250   
  1246. RY*(   9) C  34                  0.00010     2.18502   
  1247. RY*(  10) C  34                  0.00006     2.99339   
  1248. RY*(  11) C  34                  0.00004     2.36836   
  1249. RY*(  12) C  34                  0.00003     0.68048   
  1250. RY*(  13) C  34                  0.00004     1.51187   
  1251. RY*(  14) C  34                  0.00000     2.68939   
  1252. RY*(  15) C  34                  0.00000     4.45542   
  1253. RY*(  16) C  34                  0.00000     2.25324   
  1254. RY*(  17) C  34                  0.00000     3.44502   
  1255. RY*(  18) C  34                  0.00001     1.04325   
  1256. RY*(  19) C  34                  0.00000     1.37782   
  1257. RY*(  20) C  34                  0.00000     2.54797   
  1258. RY*(  21) C  34                  0.00000     2.69028   
  1259. RY*(  22) C  34                  0.00001     2.52332   
  1260. RY*(  23) C  34                  0.00001     3.49184   
  1261. RY*(  24) C  34                  0.00000     3.82934   
  1262. RY*(  25) C  34                  0.00001     1.42894   
  1263. RY*(  26) C  34                  0.00001     5.03738   
  1264. RY*(  27) C  34                  0.00001     3.08348   
  1265. RY*(  28) C  34                  0.00000     2.93425   
  1266. RY*(  29) C  34                  0.00000     3.88673   
  1267. RY*(  30) C  34                  0.00001     3.61833   
  1268. RY*(  31) C  34                  0.00000     3.56973   
  1269. RY*(  32) C  34                  0.00000     3.13214   
  1270. RY*(  33) C  34                  0.00000     5.27134   
  1271. RY*(  34) C  34                  0.00000     3.39886   
  1272. RY*(  35) C  34                  0.00000     3.11276   
  1273. RY*(  36) C  34                  0.00000     3.81072   
  1274. RY*(  37) C  34                  0.00000     3.62732   
  1275. RY*(  38) C  34                  0.00000     4.02679   
  1276. RY*(  39) C  34                  0.00000     5.23217   
  1277. RY*(  40) C  34                  0.00000     5.16134   
  1278. RY*(  41) C  34                  0.00000     6.41409   
  1279. RY*(   1) C  35                  0.00293     1.92206   
  1280. RY*(   2) C  35                  0.00181     2.54088   
  1281. RY*(   3) C  35                  0.00180     2.13774   
  1282. RY*(   4) C  35                  0.00095     1.51006   
  1283. RY*(   5) C  35                  0.00046     1.26026   
  1284. RY*(   6) C  35                  0.00030     1.88071   
  1285. RY*(   7) C  35                  0.00028     1.56557   
  1286. RY*(   8) C  35                  0.00019     1.89537   
  1287. RY*(   9) C  35                  0.00011     0.92546   
  1288. RY*(  10) C  35                  0.00010     0.70347   
  1289. RY*(  11) C  35                  0.00000     2.33999   
  1290. RY*(  12) C  35                  0.00000     1.61374   
  1291. RY*(  13) C  35                  0.00000     2.80226   
  1292. RY*(  14) C  35                  0.00000     3.59029   
  1293. RY*(  15) C  35                  0.00000     2.44544   
  1294. RY*(  16) C  35                  0.00000     1.38261   
  1295. RY*(  17) C  35                  0.00000     2.03826   
  1296. RY*(  18) C  35                  0.00000     2.48179   
  1297. RY*(  19) C  35                  0.00000     6.25111   
  1298. RY*(  20) C  35                  0.00000     4.02804   
  1299. RY*(  21) C  35                  0.00000     3.43420   
  1300. RY*(  22) C  35                  0.00001     2.15524   
  1301. RY*(  23) C  35                  0.00000     0.56923   
  1302. RY*(  24) C  35                  0.00001     2.92710   
  1303. RY*(  25) C  35                  0.00000     0.87328   
  1304. RY*(  26) C  35                  0.00000     3.60645   
  1305. RY*(  27) C  35                  0.00001     2.42835   
  1306. RY*(  28) C  35                  0.00000     4.20793   
  1307. RY*(  29) C  35                  0.00000     2.93131   
  1308. RY*(  30) C  35                  0.00000     4.15355   
  1309. RY*(  31) C  35                  0.00000     3.64170   
  1310. RY*(  32) C  35                  0.00000     4.53896   
  1311. RY*(  33) C  35                  0.00000     1.44209   
  1312. RY*(  34) C  35                  0.00000     4.25425   
  1313. RY*(  35) C  35                  0.00000     3.52028   
  1314. RY*(  36) C  35                  0.00000     4.24077   
  1315. RY*(  37) C  35                  0.00000     2.60530   
  1316. RY*(  38) C  35                  0.00000     2.91486   
  1317. RY*(  39) C  35                  0.00000     3.34472   
  1318. RY*(  40) C  35                  0.00000     4.34095   
  1319. RY*(  41) C  35                  0.00000     4.14856   
  1320. RY*(   1) C  36                  0.00191     1.30324   
  1321. RY*(   2) C  36                  0.00074     2.34949   
  1322. RY*(   3) C  36                  0.00034     2.00435   
  1323. RY*(   4) C  36                  0.00016     2.39511   
  1324. RY*(   5) C  36                  0.00010     1.07295   
  1325. RY*(   6) C  36                  0.00006     2.13515   
  1326. RY*(   7) C  36                  0.00004     2.81568   
  1327. RY*(   8) C  36                  0.00004    -1.96888   
  1328. RY*(   9) C  36                  0.00003     2.44852   
  1329. RY*(  10) C  36                  0.00001     2.58150   
  1330. RY*(  11) C  36                  0.00000    -0.15958   
  1331. RY*(  12) C  36                  0.00000    -0.89525   
  1332. RY*(  13) C  36                  0.00000    -2.31937   
  1333. RY*(  14) C  36                  0.00000     3.89426   
  1334. RY*(  15) C  36                  0.00000     0.24268   
  1335. RY*(  16) C  36                  0.00000    -1.66368   
  1336. RY*(  17) C  36                  0.00000     4.32789   
  1337. RY*(  18) C  36                  0.00000     2.66015   
  1338. RY*(  19) C  36                  0.00000     5.70614   
  1339. RY*(  20) C  36                  0.00000     4.73218   
  1340. RY*(  21) C  36                  0.00000     3.01050   
  1341. RY*(  22) C  36                  0.00000    -2.53639   
  1342. RY*(  23) C  36                  0.00001     3.70387   
  1343. RY*(  24) C  36                  0.00000    15.94505   
  1344. RY*(  25) C  36                  0.00001     2.18057   
  1345. RY*(  26) C  36                  0.00000     5.88256   
  1346. RY*(  27) C  36                  0.00000    13.72142   
  1347. RY*(  28) C  36                  0.00000     5.63120   
  1348. RY*(  29) C  36                  0.00000     3.94021   
  1349. RY*(  30) C  36                  0.00000     5.48997   
  1350. RY*(  31) C  36                  0.00000     4.57194   
  1351. RY*(  32) C  36                  0.00000     5.00701   
  1352. RY*(  33) C  36                  0.00000     2.43968   
  1353. RY*(  34) C  36                  0.00000     4.45168   
  1354. RY*(  35) C  36                  0.00000     3.29693   
  1355. RY*(  36) C  36                  0.00000     4.93909   
  1356. RY*(  37) C  36                  0.00000     3.09933   
  1357. RY*(  38) C  36                  0.00000     4.41892   
  1358. RY*(  39) C  36                  0.00000    -6.36434   
  1359. RY*(  40) C  36                  0.00000     4.73542   
  1360. RY*(  41) C  36                  0.00001     4.89056   
  1361. RY*(   1) H  37                  0.00108    -2.25670   
  1362. RY*(   2) H  37                  0.00037    -0.23058   
  1363. RY*(   3) H  37                  0.00033     1.16025   
  1364. RY*(   4) H  37                  0.00014     1.87077   
  1365. RY*(   5) H  37                  0.00014     2.51874   
  1366. RY*(   6) H  37                  0.00009    -1.70220   
  1367. RY*(   7) H  37                  0.00003     2.58509   
  1368. RY*(   8) H  37                  0.00001     3.99601   
  1369. RY*(   9) H  37                  0.00001     2.85407   
  1370. RY*(  10) H  37                  0.00000     0.51711   
  1371. RY*(  11) H  37                  0.00000     4.00101   
  1372. RY*(  12) H  37                  0.00000     1.33533   
  1373. RY*(  13) H  37                  0.00000    -0.79775   
  1374. RY*(  14) H  37                  0.00000     4.07160   
  1375. RY*(  15) H  37                  0.00000     2.65069   
  1376. RY*(  16) H  37                  0.00000     4.60381   
  1377. RY*(  17) H  37                  0.00000     2.11155   
  1378. RY*(  18) H  37                  0.00000     3.96670   
  1379. RY*(  19) H  37                  0.00001     5.60006   
  1380. RY*(  20) H  37                  0.00000     3.92880   
  1381. RY*(  21) H  37                  0.00000     4.84141   
  1382. RY*(  22) H  37                  0.00001    15.15846   
  1383. RY*(   1) H  38                  0.00107     0.88839   
  1384. RY*(   2) H  38                  0.00037     4.31879   
  1385. RY*(   3) H  38                  0.00033    14.50655   
  1386. RY*(   4) H  38                  0.00015     2.42592   
  1387. RY*(   5) H  38                  0.00013     3.88150   
  1388. RY*(   6) H  38                  0.00008     2.72041   
  1389. RY*(   7) H  38                  0.00003     5.80473   
  1390. RY*(   8) H  38                  0.00001     4.54994   
  1391. RY*(   9) H  38                  0.00001     3.19207   
  1392. RY*(  10) H  38                  0.00001     3.20214   
  1393. RY*(  11) H  38                  0.00000     4.87559   
  1394. RY*(  12) H  38                  0.00001     3.49218   
  1395. RY*(  13) H  38                  0.00000     2.85153   
  1396. RY*(  14) H  38                  0.00000     4.15382   
  1397. RY*(  15) H  38                  0.00000     4.49897   
  1398. RY*(  16) H  38                  0.00000     3.96691   
  1399. RY*(  17) H  38                  0.00000     3.95049   
  1400. RY*(  18) H  38                  0.00000     4.58829   
  1401. RY*(  19) H  38                  0.00001     2.41811   
  1402. RY*(  20) H  38                  0.00000     3.93483   
  1403. RY*(  21) H  38                  0.00000    -0.14260   
  1404. RY*(  22) H  38                  0.00001     3.79441   
  1405. RY*(   1) H  39                  0.00093     0.82194   
  1406. RY*(   2) H  39                  0.00036     1.10042   
  1407. RY*(   3) H  39                  0.00022     1.87535   
  1408. RY*(   4) H  39                  0.00020     2.30646   
  1409. RY*(   5) H  39                  0.00010     2.23026   
  1410. RY*(   6) H  39                  0.00007     2.86193   
  1411. RY*(   7) H  39                  0.00003     3.15438   
  1412. RY*(   8) H  39                  0.00001     3.43515   
  1413. RY*(   9) H  39                  0.00001     2.65095   
  1414. RY*(  10) H  39                  0.00000     2.29204   
  1415. RY*(  11) H  39                  0.00000     5.08237   
  1416. RY*(  12) H  39                  0.00000     3.14487   
  1417. RY*(  13) H  39                  0.00001     1.94269   
  1418. RY*(  14) H  39                  0.00000     4.10998   
  1419. RY*(  15) H  39                  0.00000     2.26562   
  1420. RY*(  16) H  39                  0.00000     4.18599   
  1421. RY*(  17) H  39                  0.00000     2.82820   
  1422. RY*(  18) H  39                  0.00000     5.36268   
  1423. RY*(  19) H  39                  0.00001     2.73023   
  1424. RY*(  20) H  39                  0.00000     4.39947   
  1425. RY*(  21) H  39                  0.00001     1.29197   
  1426. RY*(  22) H  39                  0.00000     4.81795   
  1427. RY*(   1) H  40                  0.00095     0.63043   
  1428. RY*(   2) H  40                  0.00032    -2.80499   
  1429. RY*(   3) H  40                  0.00016    -9.80411   
  1430. RY*(   4) H  40                  0.00013     2.15260   
  1431. RY*(   5) H  40                  0.00007    -1.09532   
  1432. RY*(   6) H  40                  0.00004     1.21585   
  1433. RY*(   7) H  40                  0.00002    -0.00933   
  1434. RY*(   8) H  40                  0.00000     2.82303   
  1435. RY*(   9) H  40                  0.00000     4.04814   
  1436. RY*(  10) H  40                  0.00000     3.66436   
  1437. RY*(  11) H  40                  0.00001   -51.45976   
  1438. RY*(  12) H  40                  0.00000     3.82257   
  1439. RY*(  13) H  40                  0.00000    -2.22419   
  1440. RY*(  14) H  40                  0.00000     4.91930   
  1441. RY*(  15) H  40                  0.00000     1.59081   
  1442. RY*(  16) H  40                  0.00000     4.24455   
  1443. RY*(  17) H  40                  0.00000     2.05323   
  1444. RY*(  18) H  40                  0.00000     3.94865   
  1445. RY*(  19) H  40                  0.00001     2.34462   
  1446. RY*(  20) H  40                  0.00000     4.49217   
  1447. RY*(  21) H  40                  0.00000     2.11826   
  1448. RY*(  22) H  40                  0.00000     5.28840   
  1449. RY*(   1) H  41                  0.00091     3.23185   
  1450. RY*(   2) H  41                  0.00035     1.47672   
  1451. RY*(   3) H  41                  0.00022     1.46976   
  1452. RY*(   4) H  41                  0.00020   -27.49408   
  1453. RY*(   5) H  41                  0.00010    -5.51542   
  1454. RY*(   6) H  41                  0.00007    -7.92850   
  1455. RY*(   7) H  41                  0.00003   -30.35643   
  1456. RY*(   8) H  41                  0.00001   -16.99747   
  1457. RY*(   9) H  41                  0.00001     2.04407   
  1458. RY*(  10) H  41                  0.00000  -128.69569   
  1459. RY*(  11) H  41                  0.00000     3.52214   
  1460. RY*(  12) H  41                  0.00000     8.65105   
  1461. RY*(  13) H  41                  0.00000     2.65266   
  1462. RY*(  14) H  41                  0.00000     0.83015   
  1463. RY*(  15) H  41                  0.00000     2.27538   
  1464. RY*(  16) H  41                  0.00000     2.53188   
  1465. RY*(  17) H  41                  0.00000   -14.79831   
  1466. RY*(  18) H  41                  0.00000     3.86025   
  1467. RY*(  19) H  41                  0.00001   -15.47177   
  1468. RY*(  20) H  41                  0.00000     1.14991   
  1469. RY*(  21) H  41                  0.00000   -12.39104   
  1470. RY*(  22) H  41                  0.00000     3.75403   
  1506. BD*(   1) O  32 - C  34          0.03953     7.70511   
  1507. BD*(   1) O  33 - C  34          0.05192     8.39656   
  1508. BD*(   1) C  34 - C  35          0.08128     8.66810   
  1509. BD*(   1) C  35 - C  36          0.00675   -13.01752   
  1510. BD*(   1) C  35 - H  37          0.01140     4.25442   
  1511. BD*(   1) C  35 - H  38          0.01140     5.51851   
  1512. BD*(   1) C  36 - H  39          0.00773     6.25782   
  1513. BD*(   1) C  36 - H  40          0.00760    -1.76574   
  1514. BD*(   1) C  36 - H  41          0.00775     8.09502   
       -------------------------------
              Total Lewis   38.92409  ( 97.5653%)
        Valence non-Lewis    0.90198  (  2.2609%)
        Rydberg non-Lewis    0.06936  (  0.1739%)
       -------------------------------
            Total unit  2   39.89544  (100.0000%)
           Charge unit  2   -0.89544
 Unable to Open any file for archive entry.
 1\1\GINC-GADI-HMEM-CLX-0043\SP\RDSDPBEP86-FC\Aug-CC-pVTZ\C13H16Cl1F5N1
 O4S1(1-)\HIO507\28-Apr-2021\0\\# DSDPBEP86/AUG-cc-PVTZ SCF=Tight INT(g
 rid=ultrafine) Pop=NBO MaxDisk=1400000MB\\CP22CA_carboxy.DSDPBEP86_AUG
 -cc-PVTZ\\-1,1\C,0,-6.0062025428,1.216951585,0.3583081686\N,0,-4.76701
 16268,0.5920467868,0.3032998643\C,0,-3.5731743167,1.2256842326,0.17602
 1174\O,0,-3.3684609225,2.4198266384,0.0869424007\O,0,-2.5790177922,0.3
 147230012,0.1584093075\C,0,-1.2641883616,0.8377485842,0.0314826506\C,0
 ,-0.3125319849,-0.3416442718,0.0330789546\C,0,1.137319498,0.1152668615
 ,-0.0985734963\C,0,-6.181864727,2.608402834,0.3050667669\C,0,-7.473687
 6149,3.1035293443,0.3721374396\C,0,-8.6049143043,2.3153243073,0.488766
 3938\C,0,-8.3882956163,0.9428175481,0.5377591461\C,0,-7.1293085929,0.3
 781889229,0.4754184378\H,0,-4.7455335574,-0.4698414966,0.3737272343\H,
 0,-1.0583452917,1.5207228722,0.8617075371\H,0,-1.1858906288,1.41564300
 18,-0.8947846238\H,0,-0.5827957362,-1.0114413859,-0.7873299208\H,0,-0.
 4573909202,-0.9078240707,0.9567377274\H,0,1.2962082097,0.6679809932,-1
 .0286966151\H,0,1.8222271037,-0.7348607606,-0.0975819977\H,0,1.4228624
 087,0.7720207381,0.7278598488\H,0,-5.3287785356,3.2617579112,0.2140998
 704\Cl,0,-9.7798539489,-0.10269407,0.6837526164\H,0,-7.0077562,-0.7084
 360366,0.513439331\S,0,-7.6996553024,4.895844832,0.3032351469\H,0,-9.6
 014511301,2.729632154,0.538966077\F,0,-6.6648750295,5.0774129845,-0.92
 43792115\F,0,-8.9275754665,4.7888015161,-0.7524810691\F,0,-6.506249763
 4,5.1849693682,1.3536261633\F,0,-8.7690150514,4.8962913594,1.524048579
 \F,0,-7.9146914293,6.5031661107,0.2423816093\O,0,-6.747708106,-2.71197
 78744,0.5606372914\O,0,-4.6023576054,-2.062627928,0.4903356031\C,0,-5.
 523228178,-2.9248780382,0.5535706627\C,0,-5.0766630471,-4.3977110331,0
 .6277710514\C,0,-3.5677444621,-4.6029548806,0.6396178807\H,0,-5.537883
 5484,-4.9129075321,-0.2210295589\H,0,-5.5416536542,-4.8281586682,1.520
 3105406\H,0,-3.1135205241,-4.1746692759,-0.2554181063\H,0,-3.308095542
 5,-5.6655852253,0.6892433346\H,0,-3.1159261579,-4.0945419397,1.4931257
 895\\Version=ES64L-G16RevC.01\State=1-A\HF=-2213.6411542\MP2=-2216.161
 9517\RMSD=3.344e-09\PG=C01 [X(C13H16Cl1F5N1O4S1)]\\@
 The archive entry for this job was punched.


 THERE IS AN OLD, OLD RECIPE IN MAINE FOR STEWING COOT. PLACE THE
 BIRD IN A KETTLE OF WATER WITH A RED BUILDING BRICK FREE OF MORTAR AND
 BLEMISHES. PARBOIL THE COOT AND BRICK TOGETHER FOR THREE HOURS.
 POUR OFF THE WATER, REFILL THE KETTLE, AND AGAIN PARBOIL FOR THREE HOURS.
 ONCE AGAIN POUR OFF THE WATER, FOR THE LAST TIME ADD FRESH WATER,
 AND LET THE COOT AND BRICK SIMMER TOGETHER OVERNIGHT. IN THE MORNING,
 THROW AWAY THE COOT AND EAT THE BRICK.
 Job cpu time:      10 days  1 hours 20 minutes  6.2 seconds.
 Elapsed time:       0 days  7 hours 36 minutes  8.5 seconds.
 File lengths (MBytes):  RWF=   1198 Int=      0 D2E=      0 Chk=    152 Scr=      1
 Normal termination of Gaussian 16 at Wed Apr 28 19:40:00 2021.
