Process 0 of 1 is on r3719 - thread support 0
initial socket setup ...start
initial socket setup ...done 
now start server 0 ... 
r3719 10.9.65
Q-Chem Developer Version! Running on 10.9.65.*
                  Welcome to Q-Chem
     A Quantum Leap Into The Future Of Chemistry


 Q-Chem 5.0, Q-Chem, Inc., Pleasanton, CA (2017)

 Yihan Shao,  Zhengting Gan,  E. Epifanovsky,  A. T. B. Gilbert,  M. Wormit,  
 J. Kussmann,  A. W. Lange,  A. Behn,  Jia Deng,  Xintian Feng,  D. Ghosh,  
 M. Goldey,  P. R. Horn,  L. D. Jacobson,  I. Kaliman,  T. Kus,  A. Landau,  
 Jie Liu,  E. I. Proynov,  R. M. Richard,  R. P. Steele,  E. J. Sundstrom,  
 H. L. Woodcock III,  P. M. Zimmerman,  D. Zuev,  B. Albrecht,  E. Alguire,  
 S. A. Baeppler,  Z. Benda,  Y. A. Bernard,  E. J. Berquist,  K. B. Bravaya,  
 D. Casanova,  Chun-Min Chang,  Yunqing Chen,  A. Chien,  K. D. Closser,  
 M. P. Coons,  S. Dasgupta,  M. Diedenhofen,  Hainam Do,  R. G. Edgar,  
 Po-Tung Fang,  S. Fatehi,  Qingguo Feng,  Qinghui Ge,  A. Ghysels,  
 J. Gomes,  J. Gonthier,  A. Gunina,  M. W. D. Hanson-Heine,  
 P. H. P. Harbach,  A. W. Hauser,  J. E. Herr,  E. G. Hohenstein,  
 Z. C. Holden,  Kerwin Hui,  T.-C. Jagau,  Hyunjun Ji,  B. Kaduk,  
 K. Khistyaev,  Jaehoon Kim,  P. Klunzinger,  K. Koh,  D. Kosenkov,  
 T. Kowalczyk,  C. M. Krauter,  A. Kunitsa,  Ka Un Lao,  A. Laurent,  
 K. V. Lawler,  Joonho Lee,  D. Lefrancois,  S. Lehtola,  D. S. Levine,  
 Yi-Pei Li,  You-Sheng Lin,  Fenglai Liu,  E. Livshits,  A. Luenser,  
 P. Manohar,  E. Mansoor,  S. F. Manzer,  Shan-Ping Mao,  Yuezhi Mao,  
 N. Mardirossian,  A. V. Marenich,  L. A. Martinez-Martinez,  S. A. Maurer,  
 N. J. Mayhall,  S. C. McKenzie,  J.-M. Mewes,  A. F. Morrison,  K. Nanda,  
 T. S. Nguyen-Beck,  R. Olivares-Amaya,  J. A. Parkhill,  T. M. Perrine,  
 F. Plasser,  S. Prager,  A. Prociuk,  D. R. Rehn,  F. Rob,  M. Schneider,  
 N. Sergueev,  S. M. Sharada,  S. Sharma,  D. W. Small,  T. Stauch,  
 T. Stein,  Yu-Chuan Su,  A. J. W. Thom,  T. Tsuchimochi,  L. Vogt,  
 O. Vydrov,  M. A. Watson,  J. Wenzel,  M. de Wergifosse,  T. A. Wesolowski,  
 A. White,  J. Witte,  A. Yamada,  Jun Yang,  K. Yao,  S. Yeganeh,  
 S. R. Yost,  Zhi-Qiang You,  A. Zech,  Igor Ying Zhang,  Xing Zhang,  
 Yan Zhao,  Ying Zhu,  B. R. Brooks,  G. K. L. Chan,  C. J. Cramer,  
 M. S. Gordon,  W. J. Hehre,  A. Klamt,  M. W. Schmidt,  C. D. Sherrill,  
 D. G. Truhlar,  A. Aspuru-Guzik,  R. Baer,  A. T. Bell,  N. A. Besley,  
 Jeng-Da Chai,  A. Dreuw,  B. D. Dunietz,  T. R. Furlani,  Chao-Ping Hsu,  
 Yousung Jung,  Jing Kong,  D. S. Lambrecht,  WanZhen Liang,  C. Ochsenfeld,  
 V. A. Rassolov,  L. V. Slipchenko,  J. E. Subotnik,  T. Van Voorhis,  
 J. M. Herbert,  A. I. Krylov,  P. M. W. Gill,  M. Head-Gordon

 Contributors to earlier versions of Q-Chem not listed above: 
 R. D. Adamson,  B. Austin,  J. Baker,  G. J. O. Beran,  K. Brandhorst,  
 S. T. Brown,  E. F. C. Byrd,  A. K. Chakraborty,  C.-L. Cheng,  
 Siu Hung Chien,  D. M. Chipman,  D. L. Crittenden,  H. Dachsel,  
 R. A. DiStasio Jr.,  R. J. Doerksen,  A. D. Dutoi,  L. Fusti-Molnar,  
 W. A. Goddard III,  A. Golubeva-Zadorozhnaya,  S. R. Gwaltney,  G. Hawkins,  
 A. Heyden,  S. Hirata,  G. Kedziora,  F. J. Keil,  C. Kelley,  Jihan Kim,  
 R. A. King,  R. Z. Khaliullin,  P. P. Korambath,  W. Kurlancheek,  
 A. M. Lee,  M. S. Lee,  S. V. Levchenko,  Ching Yeh Lin,  D. Liotard,  
 R. C. Lochan,  I. Lotan,  P. E. Maslen,  N. Nair,  D. P. O'Neill,  
 D. Neuhauser,  E. Neuscamman,  C. M. Oana,  R. Olson,  B. Peters,  
 R. Peverati,  P. A. Pieniazek,  Y. M. Rhee,  J. Ritchie,  M. A. Rohrdanz,  
 E. Rosta,  N. J. Russ,  H. F. Schaefer III,  N. E. Schultz,  N. Shenvi,  
 A. C. Simmonett,  A. Sodt,  D. Stuck,  K. S. Thanthiriwatte,  V. Vanovschi,  
 Tao Wang,  A. Warshel,  C. F. Williams,  Q. Wu,  X. Xu,  W. Zhang

 Please cite Q-Chem as follows:
 Y. Shao et al., Mol. Phys. 113, 184-215 (2015)
 DOI: 10.1080/00268976.2014.952696

 Q-Chem 5.0.0 for Intel X86 EM64T Linux

 Parts of Q-Chem use Armadillo 5.200.1 (Boston Tea Smuggler).
 http://arma.sourceforge.net/

 Q-Chem begins on Mon Dec  9 10:08:29 2019  

Host: r3719
0

     Scratch files written to /jobfs/local/4046302.r-man2/29.CCSD-T_6-31pGd.mo//
 Parallel job on  1  processors
Core orbitals will be frozen

Checking the input file for inconsistencies... 	...done.

--------------------------------------------------------------
User input:
--------------------------------------------------------------
$molecule
  0 1
    C     -6.2009231637    1.1990203291    0.6560703402
    N     -4.9142114676    0.6459745048    0.6490924609
    C     -3.7212946558    1.3045173835    0.3685412452
    O     -3.6480555079    2.4834609009    0.1015979647
    N     -2.6215149277    0.4852927514    0.4523941644
    C     -1.3212566893    1.0160004795    0.0609797986
    C     -0.2179881904    0.0273533668    0.4078676260
    C      1.1560335356    0.5626239616    0.0173066045
    C     -6.5036395506    2.4537168803    0.1204754150
    C     -7.8141412702    2.9187704705    0.1366871993
    C     -8.8361418833    2.1438200575    0.6825167252
    C     -8.5369664744    0.8980357944    1.2152670638
    C     -7.2333003554    0.4324190255    1.2026408709
    H     -4.8375477155   -0.2673863287    1.0705467710
    H     -2.7588539891   -0.5051818099    0.3100634237
    H     -1.1749202459    1.9567526753    0.5939704971
    H     -1.3057767869    1.2514197699   -1.0098178583
    H     -0.4005045032   -0.9230921437   -0.1077813095
    H     -0.2525923503   -0.1831702818    1.4808797339
    H      1.2131551346    0.7584071106   -1.0560819950
    H      1.9440043725   -0.1489565459    0.2681185016
    H      1.3740347313    1.4983193806    0.5373684005
    H     -5.7199573762    3.0661907029   -0.2970930212
    C     -8.1075334885    4.2777464305   -0.4514059011
    Cl   -10.4860670074    2.6888579962    0.7210369835
    H     -9.3301565174    0.2966433893    1.6414681285
    H     -7.0169405040   -0.5443075120    1.6245592595
    F     -8.9756300916    4.2012870317   -1.4696151085
    F     -8.6324983511    5.1107595171    0.4569397779
    F     -7.0023947108    4.8632747122   -0.9255337623

$end

$rem

    JOBTYPE               sp
    METHOD                CCSD(T)
    BASIS                 6-31+G*
    CC_BACKEND            XM

    MEM_TOTAL             60000
$end
--------------------------------------------------------------
 ----------------------------------------------------------------
             Standard Nuclear Orientation (Angstroms)
    I     Atom           X                Y                Z
 ----------------------------------------------------------------
    1      C      -0.0437786203    -1.0767308162     0.0500117141
    2      N      -1.4385855805    -1.1834202173     0.1183218808
    3      C      -2.3657556522    -0.1594528324    -0.0468588701
    4      O      -2.0670655268     0.9877719052    -0.2942252291
    5      N      -3.6662562909    -0.5865681640     0.0712357632
    6      C      -4.7344425272     0.4053010462     0.0447589925
    7      C      -6.0926956069    -0.2784116242    -0.0066337562
    8      C      -7.2295758860     0.7379609429    -0.0450819110
    9      C       0.6375845053     0.1432490936     0.0624969518
   10      C       2.0275854417     0.1636640084     0.0246413189
   11      C       2.7543415530    -1.0247707024    -0.0244683549
   12      C       2.0791335948    -2.2368887564    -0.0375570949
   13      C       0.6954302270    -2.2612561097    -0.0018503991
   14      H      -1.7982223194    -2.1257643152     0.0988771953
   15      H      -3.8426838892    -1.4157480492     0.6203203966
   16      H      -4.5846485088     1.0279003442    -0.8386661597
   17      H      -4.6687744547     1.0680897488     0.9157746822
   18      H      -6.2112332405    -0.9269995507     0.8696283213
   19      H      -6.1324628977    -0.9261894000    -0.8873579775
   20      H      -7.2157897080     1.3796316166     0.8391271660
   21      H      -8.2013828007     0.2436376845    -0.0823284275
   22      H      -7.1493791315     1.3820757282    -0.9238306431
   23      H       0.0859608223     1.0697991342     0.0918511234
   24      C       2.7328572978     1.4982319185     0.0410196809
   25      Cl      4.4916549006    -1.0415429732    -0.0720509473
   26      H       2.6431807552    -3.1602975428    -0.0780247441
   27      H       0.1833205894    -3.2185577049    -0.0136324210
   28      F       3.5409912719     1.6197966601     1.1032481099
   29      F       3.4846586580     1.6777428736    -1.0531289899
   30      F       1.8677159396     2.5170181627     0.0917871339
 ----------------------------------------------------------------
 Molecular Point Group                 C1    NOp =  1
 Largest Abelian Subgroup              C1    NOp =  1
 Nuclear Repulsion Energy =  1445.6692702927 hartrees
 There are       72 alpha and       72 beta electrons
 Requested basis set is 6-31+G(d)
 There are 115 shells and 370 basis functions
 Total memory of 50485MB is distributed as follows: 
   QALLOC including MEM_STATIC uses 30062MB
   MEM_STATIC is set to 62MB
   CCMAN JOB total memory use is  50423MB
 Warning: actual memory use might exceed 50485MB

 Total QAlloc Memory Limit  30062 MB
 Mega-Array Size        61 MB
 MEM_STATIC part        62 MB
 A cutoff of  1.0D-14 yielded   4985 shell pairs
 There are     55506 function pairs
 
 -------------------------------------------------------
 OpenMP Integral Computing Module                       
 Release: version 1.0, May 2013, Q-Chem Inc. Pittsburgh 
 -------------------------------------------------------
 Integral Job Info:
 Integral job number is                      11
 Integral operator is                         1
 short-range coefficients                     0
 long-range coefficients              100000000
 Omega coefficients                           0
 if combine SR and LR in K                    0
 Integral screening is                        0
 Integral computing path is                   2
 max size of driver memory is            800000
 size of driver memory is                593474
 size of scratch memory is             15166112
 max col of scratch BK array               1296
 max len of scratch array in speh3          155
 max len of scratch index in speh4           18
 max int batch size is                      520
 min int batch size is                       52
 fixed nKL is                                52
 max L of basis functions is                  2
 order of int derivative is                   0
 number of shells is                        115
 number of basis is                         370
 number of cartesian basis is               370
 number of contracted shell pairs          4985
 number of primitive shell pairs          16065
 maxK2 (contraction) of shell pair           36
 max number of K2 of shell pair               1
 max number of CS2 of shell pair            688
 max number of PS2 of shell pair           3870
 mem total for path MDJ                  138728
 -------------------------------------------------------
 Smallest overlap matrix eigenvalue = 3.50E-07
 Linear dependence detected in AO basis
 Number of orthogonalized atomic orbitals = 369
 Maximum deviation from orthogonality = 2.473E-10

 Scale SEOQF with 1.000000e-02/1.000000e-01/1.000000e-01

 Standard Electronic Orientation quadrupole field applied
 Nucleus-field energy     =     0.0000000234 hartrees
 Guess from superposition of atomic densities
 Warning:  Energy on first SCF cycle will be non-variational
 A restricted Hartree-Fock SCF calculation will be
 performed using Pulay DIIS extrapolation
 SCF converges when DIIS error is below 1.0E-08
 -------------------------------------------------------
 OpenMP Integral computing Module                
 Release: version 1.0, May 2013, Q-Chem Inc. Pittsburgh 
 -------------------------------------------------------
 ---------------------------------------
  Cycle       Energy         DIIS Error
 ---------------------------------------
    1   -1371.4003510976      3.92E-02
    2   -1364.8031483514      4.53E-03
    3   -1365.0592070205      2.79E-03
    4   -1365.1551671057      5.31E-04
    5   -1365.1607195030      1.78E-04
    6   -1365.1613160137      4.34E-05
    7   -1365.1613723768      1.87E-05
    8   -1365.1613849672      5.77E-06
    9   -1365.1613864460      2.42E-06
   10   -1365.1613866561      8.33E-07
   11   -1365.1613866853      3.21E-07
   12   -1365.1613866902      1.17E-07
   13   -1365.1613866907      4.04E-08
   14   -1365.1613866908      2.04E-08
   15   -1365.1613866908      9.44E-09 Convergence criterion met
 ---------------------------------------
 SCF time:  CPU 208.81 s  wall 55.30 s
 SCF   energy in the final basis set = -1365.1613866908
 Total energy in the final basis set = -1365.1613866908


 ------------------------------------------------------------------------------

   CCMAN2: suite of methods based on coupled cluster
           and equation of motion theories.

   Components:
   * libvmm-1.3-trunk
     by Evgeny Epifanovsky, Ilya Kaliman.
   * libtensor-2.5-release
     by Evgeny Epifanovsky, Michael Wormit, Dmitry Zuev, Sam Manzer, 
        Ilya Kaliman.
   * libcc-2.5-trunk
     by Evgeny Epifanovsky, Arik Landau, Tomasz Kus, Kirill Khistyaev, 
        Dmitry Zuev, Prashant Manohar, Xintian Feng, Anna Krylov, 
        Matthew Goldey, Alec White, Thomas Jagau, Kaushik Nanda, 
        Anastasia Gunina, Alexander Kunitsa, Joonho Lee.

   CCMAN original authors:
   Anna I. Krylov, C. David Sherrill, Steven R. Gwaltney,
   Edward F. C. Byrd (2000)
   Sergey V. Levchenko, Lyudmila V. Slipchenko, Tao Wang,
   Ana-Maria C. Cristian (2003)
   Piotr A. Pieniazek, C. Melania Oana, Evgeny Epifanovsky (2007)
   Prashant Manohar (2009)

 ------------------------------------------------------------------------------


================================================================================
This program uses libxm tensor contraction code.
See https://github.com/ilyak/libxm for more info.
libxm is (c) Ilya Kaliman 2014-2016.
================================================================================

 Calculation will run on 4 cores using libxm for tensor contractions

 
 Alpha MOs, Restricted
 -- Occupied --                  
-104.84  -26.35  -26.34  -26.34  -20.55  -15.63  -15.61  -11.52
  1 A     2 A     3 A     4 A     5 A     6 A     7 A     8 A                  
-11.406 -11.321 -11.319 -11.287 -11.274 -11.273 -11.271 -11.262
  9 A    10 A    11 A    12 A    13 A    14 A    15 A    16 A                  
-11.244 -11.231 -10.569  -8.039  -8.035  -8.035  -1.731  -1.633
 17 A    18 A    19 A    20 A    21 A    22 A    23 A    24 A                  
 -1.630  -1.425  -1.286  -1.246  -1.207  -1.129  -1.083  -1.072
 25 A    26 A    27 A    28 A    29 A    30 A    31 A    32 A                  
 -1.018  -0.969  -0.943  -0.887  -0.866  -0.834  -0.827  -0.818
 33 A    34 A    35 A    36 A    37 A    38 A    39 A    40 A                  
 -0.814  -0.794  -0.765  -0.718  -0.705  -0.705  -0.683  -0.676
 41 A    42 A    43 A    44 A    45 A    46 A    47 A    48 A                  
 -0.670  -0.656  -0.653  -0.647  -0.640  -0.631  -0.627  -0.617
 49 A    50 A    51 A    52 A    53 A    54 A    55 A    56 A                  
 -0.595  -0.583  -0.569  -0.553  -0.550  -0.541  -0.524  -0.509
 57 A    58 A    59 A    60 A    61 A    62 A    63 A    64 A                  
 -0.500  -0.493  -0.463  -0.457  -0.447  -0.415  -0.375  -0.322
 65 A    66 A    67 A    68 A    69 A    70 A    71 A    72 A                  
 -- Virtual --                   
  0.043   0.068   0.077   0.080   0.082   0.086   0.091   0.096
 73 A    74 A    75 A    76 A    77 A    78 A    79 A    80 A                  
  0.103   0.107   0.113   0.118   0.123   0.128   0.131   0.135
 81 A    82 A    83 A    84 A    85 A    86 A    87 A    88 A                  
  0.138   0.140   0.147   0.149   0.154   0.158   0.173   0.177
 89 A    90 A    91 A    92 A    93 A    94 A    95 A    96 A                  
  0.180   0.185   0.193   0.196   0.202   0.209   0.212   0.217
 97 A    98 A    99 A   100 A   101 A   102 A   103 A   104 A                  
  0.221   0.228   0.238   0.241   0.251   0.257   0.260   0.265
105 A   106 A   107 A   108 A   109 A   110 A   111 A   112 A                  
  0.272   0.285   0.286   0.291   0.296   0.299   0.301   0.312
113 A   114 A   115 A   116 A   117 A   118 A   119 A   120 A                  
  0.314   0.324   0.325   0.331   0.333   0.337   0.338   0.351
121 A   122 A   123 A   124 A   125 A   126 A   127 A   128 A                  
  0.352   0.355   0.364   0.367   0.378   0.380   0.388   0.394
129 A   130 A   131 A   132 A   133 A   134 A   135 A   136 A                  
  0.406   0.410   0.416   0.416   0.422   0.427   0.427   0.433
137 A   138 A   139 A   140 A   141 A   142 A   143 A   144 A                  
  0.441   0.446   0.449   0.453   0.460   0.464   0.468   0.475
145 A   146 A   147 A   148 A   149 A   150 A   151 A   152 A                  
  0.478   0.484   0.495   0.499   0.502   0.506   0.510   0.522
153 A   154 A   155 A   156 A   157 A   158 A   159 A   160 A                  
  0.528   0.532   0.547   0.567   0.573   0.580   0.582   0.591
161 A   162 A   163 A   164 A   165 A   166 A   167 A   168 A                  
  0.604   0.609   0.629   0.655   0.668   0.699   0.737   0.745
169 A   170 A   171 A   172 A   173 A   174 A   175 A   176 A                  
  0.784   0.835   0.847   0.850   0.859   0.889   0.892   0.905
177 A   178 A   179 A   180 A   181 A   182 A   183 A   184 A                  
  0.912   0.918   0.923   0.925   0.940   0.944   0.949   0.968
185 A   186 A   187 A   188 A   189 A   190 A   191 A   192 A                  
  0.971   0.977   0.997   1.004   1.015   1.024   1.036   1.056
193 A   194 A   195 A   196 A   197 A   198 A   199 A   200 A                  
  1.062   1.071   1.074   1.084   1.095   1.124   1.138   1.161
201 A   202 A   203 A   204 A   205 A   206 A   207 A   208 A                  
  1.171   1.178   1.188   1.190   1.208   1.212   1.224   1.232
209 A   210 A   211 A   212 A   213 A   214 A   215 A   216 A                  
  1.240   1.247   1.254   1.262   1.275   1.280   1.290   1.307
217 A   218 A   219 A   220 A   221 A   222 A   223 A   224 A                  
  1.332   1.343   1.367   1.367   1.368   1.377   1.386   1.394
225 A   226 A   227 A   228 A   229 A   230 A   231 A   232 A                  
  1.402   1.440   1.449   1.464   1.471   1.490   1.506   1.530
233 A   234 A   235 A   236 A   237 A   238 A   239 A   240 A                  
  1.539   1.579   1.592   1.601   1.612   1.628   1.646   1.667
241 A   242 A   243 A   244 A   245 A   246 A   247 A   248 A                  
  1.671   1.691   1.697   1.709   1.721   1.740   1.763   1.772
249 A   250 A   251 A   252 A   253 A   254 A   255 A   256 A                  
  1.789   1.814   1.831   1.885   1.893   1.919   1.925   1.939
257 A   258 A   259 A   260 A   261 A   262 A   263 A   264 A                  
  1.949   1.979   1.981   1.985   2.004   2.013   2.018   2.036
265 A   266 A   267 A   268 A   269 A   270 A   271 A   272 A                  
  2.055   2.058   2.083   2.107   2.109   2.124   2.131   2.137
273 A   274 A   275 A   276 A   277 A   278 A   279 A   280 A                  
  2.138   2.142   2.166   2.168   2.184   2.193   2.198   2.225
281 A   282 A   283 A   284 A   285 A   286 A   287 A   288 A                  
  2.241   2.256   2.264   2.289   2.305   2.317   2.325   2.351
289 A   290 A   291 A   292 A   293 A   294 A   295 A   296 A                  
  2.360   2.363   2.391   2.395   2.399   2.400   2.426   2.438
297 A   298 A   299 A   300 A   301 A   302 A   303 A   304 A                  
  2.445   2.449   2.495   2.507   2.515   2.529   2.555   2.576
305 A   306 A   307 A   308 A   309 A   310 A   311 A   312 A                  
  2.590   2.594   2.609   2.635   2.661   2.683   2.702   2.717
313 A   314 A   315 A   316 A   317 A   318 A   319 A   320 A                  
  2.746   2.747   2.789   2.815   2.834   2.880   2.915   2.949
321 A   322 A   323 A   324 A   325 A   326 A   327 A   328 A                  
  2.976   2.989   3.008   3.017   3.056   3.082   3.094   3.111
329 A   330 A   331 A   332 A   333 A   334 A   335 A   336 A                  
  3.114   3.149   3.164   3.179   3.251   3.312   3.339   3.466
337 A   338 A   339 A   340 A   341 A   342 A   343 A   344 A                  
  3.473   3.525   3.596   3.629   3.675   3.713   3.802   4.550
345 A   346 A   347 A   348 A   349 A   350 A   351 A   352 A                  
  4.650   4.659   4.699   4.711   4.780   4.802   4.811   4.847
353 A   354 A   355 A   356 A   357 A   358 A   359 A   360 A                  
  4.869   4.889   4.970   4.992   5.065   5.199   6.024   6.610
361 A   362 A   363 A   364 A   365 A   366 A   367 A   368 A                  
  7.426
369 A                                                                          
 
 Beta MOs, Restricted
 -- Occupied --                  
-104.84  -26.35  -26.34  -26.34  -20.55  -15.63  -15.61  -11.52
  1 A     2 A     3 A     4 A     5 A     6 A     7 A     8 A                  
-11.406 -11.321 -11.319 -11.287 -11.274 -11.273 -11.271 -11.262
  9 A    10 A    11 A    12 A    13 A    14 A    15 A    16 A                  
-11.244 -11.231 -10.569  -8.039  -8.035  -8.035  -1.731  -1.633
 17 A    18 A    19 A    20 A    21 A    22 A    23 A    24 A                  
 -1.630  -1.425  -1.286  -1.246  -1.207  -1.129  -1.083  -1.072
 25 A    26 A    27 A    28 A    29 A    30 A    31 A    32 A                  
 -1.018  -0.969  -0.943  -0.887  -0.866  -0.834  -0.827  -0.818
 33 A    34 A    35 A    36 A    37 A    38 A    39 A    40 A                  
 -0.814  -0.794  -0.765  -0.718  -0.705  -0.705  -0.683  -0.676
 41 A    42 A    43 A    44 A    45 A    46 A    47 A    48 A                  
 -0.670  -0.656  -0.653  -0.647  -0.640  -0.631  -0.627  -0.617
 49 A    50 A    51 A    52 A    53 A    54 A    55 A    56 A                  
 -0.595  -0.583  -0.569  -0.553  -0.550  -0.541  -0.524  -0.509
 57 A    58 A    59 A    60 A    61 A    62 A    63 A    64 A                  
 -0.500  -0.493  -0.463  -0.457  -0.447  -0.415  -0.375  -0.322
 65 A    66 A    67 A    68 A    69 A    70 A    71 A    72 A                  
 -- Virtual --                   
  0.043   0.068   0.077   0.080   0.082   0.086   0.091   0.096
 73 A    74 A    75 A    76 A    77 A    78 A    79 A    80 A                  
  0.103   0.107   0.113   0.118   0.123   0.128   0.131   0.135
 81 A    82 A    83 A    84 A    85 A    86 A    87 A    88 A                  
  0.138   0.140   0.147   0.149   0.154   0.158   0.173   0.177
 89 A    90 A    91 A    92 A    93 A    94 A    95 A    96 A                  
  0.180   0.185   0.193   0.196   0.202   0.209   0.212   0.217
 97 A    98 A    99 A   100 A   101 A   102 A   103 A   104 A                  
  0.221   0.228   0.238   0.241   0.251   0.257   0.260   0.265
105 A   106 A   107 A   108 A   109 A   110 A   111 A   112 A                  
  0.272   0.285   0.286   0.291   0.296   0.299   0.301   0.312
113 A   114 A   115 A   116 A   117 A   118 A   119 A   120 A                  
  0.314   0.324   0.325   0.331   0.333   0.337   0.338   0.351
121 A   122 A   123 A   124 A   125 A   126 A   127 A   128 A                  
  0.352   0.355   0.364   0.367   0.378   0.380   0.388   0.394
129 A   130 A   131 A   132 A   133 A   134 A   135 A   136 A                  
  0.406   0.410   0.416   0.416   0.422   0.427   0.427   0.433
137 A   138 A   139 A   140 A   141 A   142 A   143 A   144 A                  
  0.441   0.446   0.449   0.453   0.460   0.464   0.468   0.475
145 A   146 A   147 A   148 A   149 A   150 A   151 A   152 A                  
  0.478   0.484   0.495   0.499   0.502   0.506   0.510   0.522
153 A   154 A   155 A   156 A   157 A   158 A   159 A   160 A                  
  0.528   0.532   0.547   0.567   0.573   0.580   0.582   0.591
161 A   162 A   163 A   164 A   165 A   166 A   167 A   168 A                  
  0.604   0.609   0.629   0.655   0.668   0.699   0.737   0.745
169 A   170 A   171 A   172 A   173 A   174 A   175 A   176 A                  
  0.784   0.835   0.847   0.850   0.859   0.889   0.892   0.905
177 A   178 A   179 A   180 A   181 A   182 A   183 A   184 A                  
  0.912   0.918   0.923   0.925   0.940   0.944   0.949   0.968
185 A   186 A   187 A   188 A   189 A   190 A   191 A   192 A                  
  0.971   0.977   0.997   1.004   1.015   1.024   1.036   1.056
193 A   194 A   195 A   196 A   197 A   198 A   199 A   200 A                  
  1.062   1.071   1.074   1.084   1.095   1.124   1.138   1.161
201 A   202 A   203 A   204 A   205 A   206 A   207 A   208 A                  
  1.171   1.178   1.188   1.190   1.208   1.212   1.224   1.232
209 A   210 A   211 A   212 A   213 A   214 A   215 A   216 A                  
  1.240   1.247   1.254   1.262   1.275   1.280   1.290   1.307
217 A   218 A   219 A   220 A   221 A   222 A   223 A   224 A                  
  1.332   1.343   1.367   1.367   1.368   1.377   1.386   1.394
225 A   226 A   227 A   228 A   229 A   230 A   231 A   232 A                  
  1.402   1.440   1.449   1.464   1.471   1.490   1.506   1.530
233 A   234 A   235 A   236 A   237 A   238 A   239 A   240 A                  
  1.539   1.579   1.592   1.601   1.612   1.628   1.646   1.667
241 A   242 A   243 A   244 A   245 A   246 A   247 A   248 A                  
  1.671   1.691   1.697   1.709   1.721   1.740   1.763   1.772
249 A   250 A   251 A   252 A   253 A   254 A   255 A   256 A                  
  1.789   1.814   1.831   1.885   1.893   1.919   1.925   1.939
257 A   258 A   259 A   260 A   261 A   262 A   263 A   264 A                  
  1.949   1.979   1.981   1.985   2.004   2.013   2.018   2.036
265 A   266 A   267 A   268 A   269 A   270 A   271 A   272 A                  
  2.055   2.058   2.083   2.107   2.109   2.124   2.131   2.137
273 A   274 A   275 A   276 A   277 A   278 A   279 A   280 A                  
  2.138   2.142   2.166   2.168   2.184   2.193   2.198   2.225
281 A   282 A   283 A   284 A   285 A   286 A   287 A   288 A                  
  2.241   2.256   2.264   2.289   2.305   2.317   2.325   2.351
289 A   290 A   291 A   292 A   293 A   294 A   295 A   296 A                  
  2.360   2.363   2.391   2.395   2.399   2.400   2.426   2.438
297 A   298 A   299 A   300 A   301 A   302 A   303 A   304 A                  
  2.445   2.449   2.495   2.507   2.515   2.529   2.555   2.576
305 A   306 A   307 A   308 A   309 A   310 A   311 A   312 A                  
  2.590   2.594   2.609   2.635   2.661   2.683   2.702   2.717
313 A   314 A   315 A   316 A   317 A   318 A   319 A   320 A                  
  2.746   2.747   2.789   2.815   2.834   2.880   2.915   2.949
321 A   322 A   323 A   324 A   325 A   326 A   327 A   328 A                  
  2.976   2.989   3.008   3.017   3.056   3.082   3.094   3.111
329 A   330 A   331 A   332 A   333 A   334 A   335 A   336 A                  
  3.114   3.149   3.164   3.179   3.251   3.312   3.339   3.466
337 A   338 A   339 A   340 A   341 A   342 A   343 A   344 A                  
  3.473   3.525   3.596   3.629   3.675   3.713   3.802   4.550
345 A   346 A   347 A   348 A   349 A   350 A   351 A   352 A                  
  4.650   4.659   4.699   4.711   4.780   4.802   4.811   4.847
353 A   354 A   355 A   356 A   357 A   358 A   359 A   360 A                  
  4.869   4.889   4.970   4.992   5.065   5.199   6.024   6.610
361 A   362 A   363 A   364 A   365 A   366 A   367 A   368 A                  
  7.426
369 A                                                                          

 Occupation and symmetry of molecular orbitals

 Point group: C1 (1 irreducible representation).

                           A     All 
 -------------------------------------
 All molecular orbitals:
  - Alpha                  369   369 
  - Beta                   369   369 
 -------------------------------------
 Alpha orbitals:
  - Frozen occupied        22    22  
  - Active occupied        50    50  
  - Active virtual         297   297 
  - Frozen virtual         0     0   
 -------------------------------------
 Beta orbitals:
  - Frozen occupied        22    22  
  - Active occupied        50    50  
  - Active virtual         297   297 
  - Frozen virtual         0     0   
 -------------------------------------

 Import integrals:   CPU 0.00 s  wall 0.00 s

 Import integrals:   CPU 1427.56 s  wall 553.97 s

 MP2 amplitudes:   CPU 21.77 s  wall 84.71 s

           CCSD T amplitudes will be solved using DIIS.

           Start     Size      MaxIter   EConv     TConv     
           3         7         100       1.00e-06  1.00e-04  
 ------------------------------------------------------------------------------
           Energy (a.u.)   Ediff      Tdiff       Comment
 ------------------------------------------------------------------------------
         -1367.74269049                           
     1   -1367.73632432   6.37e-03   1.49e+00     Step took 40.51.
     2   -1367.81432554   7.80e-02   2.01e-01     
     3   -1367.81373422   5.91e-04   7.38e-02     
     4   -1367.82140368   7.67e-03   2.44e-02     Switched to DIIS steps.
     5   -1367.82405509   2.65e-03   1.65e-02     
     6   -1367.82421896   1.64e-04   3.52e-03     
     7   -1367.82420300   1.60e-05   1.75e-03     
     8   -1367.82419268   1.03e-05   4.52e-04     
     9   -1367.82419340   7.20e-07   1.77e-04     
    10   -1367.82419345   5.36e-08   5.21e-05     
 ------------------------------------------------------------------------------
         -1367.82419345                           CCSD T converged.


 ------------------------------------------------------------------------------
 == (T) code is based on LIBPT ==
 == Author: Ilya Kaliman, 2016 ==

 Starting (T) calculation...
 (T) calculation completed in 59528 sec
 ------------------------------------------------------------------------------

 SCF energy                 = -1365.16138669
 MP2 energy                 = -1367.74269049
 CCSD correlation energy     =    -2.66280676
 CCSD total energy           = -1367.82419345
 CCSD(T) correlation energy =    -0.09988021
 CCSD(T) total energy       = -1367.92407367

 CCSD  T1^2 = 0.0358  T2^2 = 0.8942  Leading amplitudes:

 Amplitude    Orbitals with energies
  0.0167       69 (A) A                  ->    80 (A) A                   
              -0.4474                          0.0958                     
  0.0167       69 (A) B                  ->    80 (A) B                   
              -0.4474                          0.0958                     
 -0.0153       54 (A) A                  ->    101 (A) A                  
              -0.6313                          0.2018                     
 -0.0153       54 (A) B                  ->    101 (A) B                  
              -0.6313                          0.2018                     

 Amplitude    Orbitals with energies
 -0.0270       72 (A) A      72 (A) B    ->    80 (A) A      80 (A) B     
              -0.3220       -0.3220            0.0958        0.0958       
  0.0270       72 (A) A      72 (A) B    ->    80 (A) B      80 (A) A     
              -0.3220       -0.3220            0.0958        0.0958       
  0.0270       72 (A) B      72 (A) A    ->    80 (A) A      80 (A) B     
              -0.3220       -0.3220            0.0958        0.0958       
 -0.0270       72 (A) B      72 (A) A    ->    80 (A) B      80 (A) A     
              -0.3220       -0.3220            0.0958        0.0958       

 CCSD calculation:   CPU 305197.17 s  wall 91702.84 s

 Total ccman2 time:   CPU 306656.27 s  wall 92371.01 s

 
 --------------------------------------------------------------
 
                    Orbital Energies (a.u.)
 --------------------------------------------------------------
 
 Alpha MOs
 -- Occupied --
******* -26.349 -26.344 -26.344 -20.548 -15.629 -15.606 -11.517
-11.406 -11.321 -11.319 -11.287 -11.274 -11.273 -11.271 -11.262
-11.244 -11.231 -10.569  -8.039  -8.035  -8.035  -1.731  -1.633
 -1.630  -1.425  -1.286  -1.246  -1.207  -1.129  -1.083  -1.072
 -1.018  -0.969  -0.943  -0.887  -0.866  -0.834  -0.827  -0.818
 -0.814  -0.794  -0.765  -0.718  -0.705  -0.705  -0.683  -0.676
 -0.670  -0.656  -0.653  -0.647  -0.640  -0.631  -0.627  -0.617
 -0.595  -0.583  -0.569  -0.553  -0.550  -0.541  -0.524  -0.509
 -0.500  -0.493  -0.463  -0.457  -0.447  -0.415  -0.375  -0.322
 -- Virtual --
  0.043   0.068   0.077   0.080   0.082   0.086   0.091   0.096
  0.103   0.107   0.113   0.118   0.123   0.128   0.131   0.135
  0.138   0.140   0.147   0.149   0.154   0.158   0.173   0.177
  0.180   0.185   0.193   0.196   0.202   0.209   0.212   0.217
  0.221   0.228   0.238   0.241   0.251   0.257   0.260   0.265
  0.272   0.285   0.286   0.291   0.296   0.299   0.301   0.312
  0.314   0.324   0.325   0.331   0.333   0.337   0.338   0.351
  0.352   0.355   0.364   0.367   0.378   0.380   0.388   0.394
  0.406   0.410   0.416   0.416   0.422   0.427   0.427   0.433
  0.441   0.446   0.449   0.453   0.460   0.464   0.468   0.475
  0.478   0.484   0.495   0.499   0.502   0.506   0.510   0.522
  0.528   0.532   0.547   0.567   0.573   0.580   0.582   0.591
  0.604   0.609   0.629   0.655   0.668   0.699   0.737   0.745
  0.784   0.835   0.847   0.850   0.859   0.889   0.892   0.905
  0.912   0.918   0.923   0.925   0.940   0.944   0.949   0.968
  0.971   0.977   0.997   1.004   1.015   1.024   1.036   1.056
  1.062   1.071   1.074   1.084   1.095   1.124   1.138   1.161
  1.171   1.178   1.188   1.190   1.208   1.212   1.224   1.232
  1.240   1.247   1.254   1.262   1.275   1.280   1.290   1.307
  1.332   1.343   1.367   1.367   1.368   1.377   1.386   1.394
  1.402   1.440   1.449   1.464   1.471   1.490   1.506   1.530
  1.539   1.579   1.592   1.601   1.612   1.628   1.646   1.667
  1.671   1.691   1.697   1.709   1.721   1.740   1.763   1.772
  1.789   1.814   1.831   1.885   1.893   1.919   1.925   1.939
  1.949   1.979   1.981   1.985   2.004   2.013   2.018   2.036
  2.055   2.058   2.083   2.107   2.109   2.124   2.131   2.137
  2.138   2.142   2.166   2.168   2.184   2.193   2.198   2.225
  2.241   2.256   2.264   2.289   2.305   2.317   2.325   2.351
  2.360   2.363   2.391   2.395   2.399   2.400   2.426   2.438
  2.445   2.449   2.495   2.507   2.515   2.529   2.555   2.576
  2.590   2.594   2.609   2.635   2.661   2.683   2.702   2.717
  2.746   2.747   2.789   2.815   2.834   2.880   2.915   2.949
  2.976   2.989   3.008   3.017   3.056   3.082   3.094   3.111
  3.114   3.149   3.164   3.179   3.251   3.312   3.339   3.466
  3.473   3.525   3.596   3.629   3.675   3.713   3.802   4.550
  4.650   4.659   4.699   4.711   4.780   4.802   4.811   4.847
  4.869   4.889   4.970   4.992   5.065   5.199   6.024   6.610
  7.426
 --------------------------------------------------------------
 
          Ground-State Mulliken Net Atomic Charges

     Atom                 Charge (a.u.)
  ----------------------------------------
      1 C                    -0.211686
      2 N                    -0.824581
      3 C                     0.680216
      4 O                    -0.632682
      5 N                    -0.664216
      6 C                    -0.044694
      7 C                    -0.280151
      8 C                    -0.672471
      9 C                     0.146728
     10 C                    -0.923723
     11 C                     0.427647
     12 C                    -0.366779
     13 C                    -0.577305
     14 H                     0.457169
     15 H                     0.416334
     16 H                     0.225604
     17 H                     0.202841
     18 H                     0.179971
     19 H                     0.207039
     20 H                     0.197012
     21 H                     0.199556
     22 H                     0.198840
     23 H                     0.348719
     24 C                     1.663254
     25 Cl                    0.310842
     26 H                     0.265289
     27 H                     0.233519
     28 F                    -0.363317
     29 F                    -0.361565
     30 F                    -0.437409
  ----------------------------------------
  Sum of atomic charges =    -0.000000

 -----------------------------------------------------------------
                    Cartesian Multipole Moments
 -----------------------------------------------------------------
    Charge (ESU x 10^10)
                -0.0000
    Dipole Moment (Debye)
         X      -5.9976      Y      -5.7809      Z       1.1209
       Tot       8.4051
    Quadrupole Moments (Debye-Ang)
        XX    -105.4599     XY       2.6394     YY    -106.5439
        XZ      -3.8253     YZ      -0.4902     ZZ    -115.4787
    Octopole Moments (Debye-Ang^2)
       XXX     -98.3252    XXY     -15.0272    XYY       7.8245
       YYY      -5.8524    XXZ      10.6557    XYZ       4.5492
       YYZ       2.4951    XZZ       7.1556    YZZ      16.5332
       ZZZ       0.1350
    Hexadecapole Moments (Debye-Ang^3)
      XXXX   -8605.0592   XXXY     101.3297   XXYY   -1703.7543
      XYYY      94.2117   YYYY   -1187.5327   XXXZ     -36.3494
      XXYZ     -19.9553   XYYZ     -11.9349   YYYZ      -1.9095
      XXZZ   -1555.2149   XYZZ      30.3814   YYZZ    -260.4946
      XZZZ       1.3719   YZZZ      -0.0456   ZZZZ    -212.1242
 -----------------------------------------------------------------
Archival summary:
1\1\r3719\SP\ProcedureUnspecified\6-31+G*\l13121112\hio507\TueDec1011:49:002019TueDec1011:49:002019\0\\#,ProcedureUnspecified,6-31+G*,\\0,1\Cl\C,1,1.73805\C,2,1.38755,1,118.537\H,3,1.08281,2,119.461,1,-0.0746722,0\C,3,1.38438,2,120.1,1,-179.942,0\H,5,1.08574,3,119.123,2,179.946,0\C,2,1.3939,1,122.029,3,-179.932,0\C,7,1.39067,2,120.636,1,-179.97,0\H,8,1.07872,7,119.951,2,-179.478,0\C,5,1.39722,3,120.986,2,-0.111968,0\N,10,1.40055,5,117.653,3,-178.405,0\H,11,1.00883,10,115.166,5,-1.59915,0\C,11,1.3912,10,127.003,5,-168.363,0\O,13,1.211,11,123.858,10,0.92141,0\N,13,1.37393,11,113.068,10,179.617,0\H,15,1.01003,13,117.858,11,25.2892,0\C,15,1.45792,13,118.716,11,174.331,0\H,17,1.0911,15,107.597,13,51.3438,0\H,17,1.09648,15,110.667,13,-65.069,0\C,7,1.50955,2,120.701,1,-0.111858,0\F,20,1.33752,7,111.815,2,-179.885,0\F,20,1.33962,7,111.827,2,60.1779,0\F,20,1.34022,7,111.747,2,-60.0855,0\C,17,1.5215,15,110.424,13,172.123,0\H,24,1.09402,17,109.009,15,-57.5631,0\H,24,1.09661,17,109.59,15,59.0021,0\C,24,1.52545,17,111.516,15,-179.6,0\H,27,1.09094,24,111.275,17,179.974,0\H,27,1.09248,24,111.002,17,59.9624,0\H,27,1.09259,24,111.192,17,-59.8936,0\\HF=-1365.16139\\@

 Total job time:  92431.33s(wall), 306865.81s(cpu) 
 Tue Dec 10 11:49:00 2019

        *************************************************************
        *                                                           *
        *  Thank you very much for using Q-Chem.  Have a nice day.  *
        *                                                           *
        *************************************************************


0 sent ACK to 0 
now end server 0 ... 
