 Entering Gaussian System, Link 0=/apps/gaussian/g09e01/g09/g09
 Initial command:
 /apps/gaussian/g09e01/g09/l1.exe "/jobfs/local/3578924.r-man2/Gau-22462.inp" -scrdir="/jobfs/local/3578924.r-man2/"
 Entering Link 1 = /apps/gaussian/g09e01/g09/l1.exe PID=     22464.
  
 Copyright (c) 1988,1990,1992,1993,1995,1998,2003,2009,2015,
            Gaussian, Inc.  All Rights Reserved.
  
 This is part of the Gaussian(R) 09 program.  It is based on
 the Gaussian(R) 03 system (copyright 2003, Gaussian, Inc.),
 the Gaussian(R) 98 system (copyright 1998, Gaussian, Inc.),
 the Gaussian(R) 94 system (copyright 1995, Gaussian, Inc.),
 the Gaussian 92(TM) system (copyright 1992, Gaussian, Inc.),
 the Gaussian 90(TM) system (copyright 1990, Gaussian, Inc.),
 the Gaussian 88(TM) system (copyright 1988, Gaussian, Inc.),
 the Gaussian 86(TM) system (copyright 1986, Carnegie Mellon
 University), and the Gaussian 82(TM) system (copyright 1983,
 Carnegie Mellon University). Gaussian is a federally registered
 trademark of Gaussian, Inc.
  
 This software contains proprietary and confidential information,
 including trade secrets, belonging to Gaussian, Inc.
  
 This software is provided under written license and may be
 used, copied, transmitted, or stored only in accord with that
 written license.
  
 The following legend is applicable only to US Government
 contracts under FAR:
  
                    RESTRICTED RIGHTS LEGEND
  
 Use, reproduction and disclosure by the US Government is
 subject to restrictions as set forth in subparagraphs (a)
 and (c) of the Commercial Computer Software - Restricted
 Rights clause in FAR 52.227-19.
  
 Gaussian, Inc.
 340 Quinnipiac St., Bldg. 40, Wallingford CT 06492
  
  
 ---------------------------------------------------------------
 Warning -- This program may not be used in any manner that
 competes with the business of Gaussian, Inc. or will provide
 assistance to any competitor of Gaussian, Inc.  The licensee
 of this program is prohibited from giving any competitor of
 Gaussian, Inc. access to this program.  By using this program,
 the user acknowledges that Gaussian, Inc. is engaged in the
 business of creating and licensing software in the field of
 computational chemistry and represents and warrants to the
 licensee that it is not a competitor of Gaussian, Inc. and that
 it will not use this program in any manner prohibited above.
 ---------------------------------------------------------------
  

 Cite this work as:
 Gaussian 09, Revision E.01,
 M. J. Frisch, G. W. Trucks, H. B. Schlegel, G. E. Scuseria, 
 M. A. Robb, J. R. Cheeseman, G. Scalmani, V. Barone, B. Mennucci, 
 G. A. Petersson, H. Nakatsuji, M. Caricato, X. Li, H. P. Hratchian, 
 A. F. Izmaylov, J. Bloino, G. Zheng, J. L. Sonnenberg, M. Hada, 
 M. Ehara, K. Toyota, R. Fukuda, J. Hasegawa, M. Ishida, T. Nakajima, 
 Y. Honda, O. Kitao, H. Nakai, T. Vreven, J. A. Montgomery, Jr., 
 J. E. Peralta, F. Ogliaro, M. Bearpark, J. J. Heyd, E. Brothers, 
 K. N. Kudin, V. N. Staroverov, T. Keith, R. Kobayashi, J. Normand, 
 K. Raghavachari, A. Rendell, J. C. Burant, S. S. Iyengar, J. Tomasi, 
 M. Cossi, N. Rega, J. M. Millam, M. Klene, J. E. Knox, J. B. Cross, 
 V. Bakken, C. Adamo, J. Jaramillo, R. Gomperts, R. E. Stratmann, 
 O. Yazyev, A. J. Austin, R. Cammi, C. Pomelli, J. W. Ochterski, 
 R. L. Martin, K. Morokuma, V. G. Zakrzewski, G. A. Voth, 
 P. Salvador, J. J. Dannenberg, S. Dapprich, A. D. Daniels, 
 O. Farkas, J. B. Foresman, J. V. Ortiz, J. Cioslowski, 
 and D. J. Fox, Gaussian, Inc., Wallingford CT, 2013.
 
 ******************************************
 Gaussian 09:  ES64L-G09RevE.01 30-Nov-2015
                14-Nov-2019 
 ******************************************
 %chk=29.M062X_6-311pGd_opt_water_GD3.chk
 %mem=196608000
 %nproc=4
 Will use up to    4 processors via shared memory.
 ----------------------------------------------------------------------
 # M062X/6-311+G* SCF=Tight INT(grid=ultrafine) OPT IOP(2/17=4) Empiric
 alDispersion=GD3 SCRF=(SMD,Solvent=h2o) maxdisk=2147483648
 ----------------------------------------------------------------------
 1/14=-1,18=20,19=15,26=4,38=1/1,3;
 2/9=110,12=2,17=4,18=5,40=1/2;
 3/5=4,6=6,7=11,11=2,16=1,25=1,30=1,70=32201,71=1,72=1,74=-55,75=-5,124=31/1,2,3;
 4//1;
 5/5=2,32=2,38=5,53=1/2;
 6/7=2,8=2,9=2,10=2,28=1/1;
 7//1,2,3,16;
 1/14=-1,18=20,19=15,26=4/3(2);
 2/9=110,17=4/2;
 99//99;
 2/9=110,17=4/2;
 3/5=4,6=6,7=11,11=2,16=1,25=1,30=1,70=32205,71=1,72=1,74=-55,75=-5,124=31/1,2,3;
 4/5=5,16=3,69=1/1;
 5/5=2,32=2,38=5,53=1/2;
 7//1,2,3,16;
 1/14=-1,18=20,19=15,26=4/3(-5);
 2/9=110,17=4/2;
 6/7=2,8=2,9=2,10=2,19=2,28=1/1;
 99/9=1/99;
 -------------------------------
 29.M062X_6-311pGd_opt_water_GD3
 -------------------------------
 Symbolic Z-matrix:
 Charge =  0 Multiplicity = 1
 C                    -6.17582   1.25118   0.73856 
 N                    -4.86496   0.80366   0.93073 
 C                    -3.74125   1.26677   0.27015 
 O                    -3.78083   2.18135  -0.55691 
 N                    -2.59789   0.63586   0.60132 
 C                    -1.32957   0.9874   -0.02502 
 C                    -0.21915   0.08891   0.49347 
 C                     1.11665   0.43957  -0.15014 
 C                    -6.48085   2.55744   0.34918 
 C                    -7.80692   2.94944   0.20458 
 C                    -8.8394    2.04938   0.4638 
 C                    -8.54168   0.75757   0.87226 
 C                    -7.22051   0.36199   1.00476 
 H                    -4.77395  -0.07767   1.42163 
 H                    -2.60461  -0.08241   1.31309 
 H                    -1.09538   2.03536   0.18436 
 H                    -1.42194   0.88403  -1.10977 
 H                    -0.47379  -0.95495   0.28559 
 H                    -0.14998   0.19151   1.58098 
 H                     1.07121   0.32392  -1.2361 
 H                     1.91359  -0.20701   0.22166 
 H                     1.39692   1.47387   0.06514 
 H                    -5.6899    3.26908   0.16986 
 C                    -8.10364   4.36099  -0.22093 
 Cl                   -10.51472   2.50349   0.28626 
 H                    -9.34174   0.05729   1.07802 
 H                    -6.99471  -0.65194   1.31713 
 F                    -8.78707   4.40931  -1.37761 
 F                    -8.84091   5.0219    0.68829 
 F                    -6.99079   5.08129  -0.4053 
 

 GradGradGradGradGradGradGradGradGradGradGradGradGradGradGradGradGradGrad
 Berny optimization.
 Initialization pass.
                           ----------------------------
                           !    Initial Parameters    !
                           ! (Angstroms and Degrees)  !
 --------------------------                            --------------------------
 ! Name  Definition              Value          Derivative Info.                !
 --------------------------------------------------------------------------------
 ! R1    R(1,2)                  1.3984         estimate D2E/DX2                !
 ! R2    R(1,9)                  1.3968         estimate D2E/DX2                !
 ! R3    R(1,13)                 1.3975         estimate D2E/DX2                !
 ! R4    R(2,3)                  1.3833         estimate D2E/DX2                !
 ! R5    R(2,14)                 1.0129         estimate D2E/DX2                !
 ! R6    R(3,4)                  1.2337         estimate D2E/DX2                !
 ! R7    R(3,5)                  1.3472         estimate D2E/DX2                !
 ! R8    R(5,6)                  1.4576         estimate D2E/DX2                !
 ! R9    R(5,15)                 1.0112         estimate D2E/DX2                !
 ! R10   R(6,7)                  1.5196         estimate D2E/DX2                !
 ! R11   R(6,16)                 1.094          estimate D2E/DX2                !
 ! R12   R(6,17)                 1.0936         estimate D2E/DX2                !
 ! R13   R(7,8)                  1.5237         estimate D2E/DX2                !
 ! R14   R(7,18)                 1.0944         estimate D2E/DX2                !
 ! R15   R(7,19)                 1.0945         estimate D2E/DX2                !
 ! R16   R(8,20)                 1.093          estimate D2E/DX2                !
 ! R17   R(8,21)                 1.0915         estimate D2E/DX2                !
 ! R18   R(8,22)                 1.093          estimate D2E/DX2                !
 ! R19   R(9,10)                 1.3903         estimate D2E/DX2                !
 ! R20   R(9,23)                 1.079          estimate D2E/DX2                !
 ! R21   R(10,11)                1.394          estimate D2E/DX2                !
 ! R22   R(10,24)                1.5039         estimate D2E/DX2                !
 ! R23   R(11,12)                1.3872         estimate D2E/DX2                !
 ! R24   R(11,25)                1.7448         estimate D2E/DX2                !
 ! R25   R(12,13)                1.3855         estimate D2E/DX2                !
 ! R26   R(12,26)                1.083          estimate D2E/DX2                !
 ! R27   R(13,27)                1.0847         estimate D2E/DX2                !
 ! R28   R(24,28)                1.3444         estimate D2E/DX2                !
 ! R29   R(24,29)                1.3443         estimate D2E/DX2                !
 ! R30   R(24,30)                1.3384         estimate D2E/DX2                !
 ! A1    A(2,1,9)              122.8404         estimate D2E/DX2                !
 ! A2    A(2,1,13)             118.0965         estimate D2E/DX2                !
 ! A3    A(9,1,13)             119.0062         estimate D2E/DX2                !
 ! A4    A(1,2,3)              126.0657         estimate D2E/DX2                !
 ! A5    A(1,2,14)             115.421          estimate D2E/DX2                !
 ! A6    A(3,2,14)             116.7267         estimate D2E/DX2                !
 ! A7    A(2,3,4)              122.8371         estimate D2E/DX2                !
 ! A8    A(2,3,5)              114.5345         estimate D2E/DX2                !
 ! A9    A(4,3,5)              122.6283         estimate D2E/DX2                !
 ! A10   A(3,5,6)              121.3261         estimate D2E/DX2                !
 ! A11   A(3,5,15)             120.0014         estimate D2E/DX2                !
 ! A12   A(6,5,15)             118.6567         estimate D2E/DX2                !
 ! A13   A(5,6,7)              110.2816         estimate D2E/DX2                !
 ! A14   A(5,6,16)             109.5758         estimate D2E/DX2                !
 ! A15   A(5,6,17)             109.2654         estimate D2E/DX2                !
 ! A16   A(7,6,16)             110.1605         estimate D2E/DX2                !
 ! A17   A(7,6,17)             110.1381         estimate D2E/DX2                !
 ! A18   A(16,6,17)            107.3656         estimate D2E/DX2                !
 ! A19   A(6,7,8)              111.1268         estimate D2E/DX2                !
 ! A20   A(6,7,18)             109.2163         estimate D2E/DX2                !
 ! A21   A(6,7,19)             109.2547         estimate D2E/DX2                !
 ! A22   A(8,7,18)             110.0763         estimate D2E/DX2                !
 ! A23   A(8,7,19)             110.043          estimate D2E/DX2                !
 ! A24   A(18,7,19)            107.0282         estimate D2E/DX2                !
 ! A25   A(7,8,20)             111.031          estimate D2E/DX2                !
 ! A26   A(7,8,21)             111.0935         estimate D2E/DX2                !
 ! A27   A(7,8,22)             111.0627         estimate D2E/DX2                !
 ! A28   A(20,8,21)            107.8242         estimate D2E/DX2                !
 ! A29   A(20,8,22)            107.8465         estimate D2E/DX2                !
 ! A30   A(21,8,22)            107.832          estimate D2E/DX2                !
 ! A31   A(1,9,10)             120.0632         estimate D2E/DX2                !
 ! A32   A(1,9,23)             120.2024         estimate D2E/DX2                !
 ! A33   A(10,9,23)            119.7311         estimate D2E/DX2                !
 ! A34   A(9,10,11)            120.3335         estimate D2E/DX2                !
 ! A35   A(9,10,24)            118.8324         estimate D2E/DX2                !
 ! A36   A(11,10,24)           120.831          estimate D2E/DX2                !
 ! A37   A(10,11,12)           119.8061         estimate D2E/DX2                !
 ! A38   A(10,11,25)           121.6132         estimate D2E/DX2                !
 ! A39   A(12,11,25)           118.5807         estimate D2E/DX2                !
 ! A40   A(11,12,13)           119.9145         estimate D2E/DX2                !
 ! A41   A(11,12,26)           119.9717         estimate D2E/DX2                !
 ! A42   A(13,12,26)           120.1113         estimate D2E/DX2                !
 ! A43   A(1,13,12)            120.8624         estimate D2E/DX2                !
 ! A44   A(1,13,27)            119.6044         estimate D2E/DX2                !
 ! A45   A(12,13,27)           119.5331         estimate D2E/DX2                !
 ! A46   A(10,24,28)           112.1778         estimate D2E/DX2                !
 ! A47   A(10,24,29)           112.2287         estimate D2E/DX2                !
 ! A48   A(10,24,30)           112.3385         estimate D2E/DX2                !
 ! A49   A(28,24,29)           106.5862         estimate D2E/DX2                !
 ! A50   A(28,24,30)           106.5491         estimate D2E/DX2                !
 ! A51   A(29,24,30)           106.5357         estimate D2E/DX2                !
 ! D1    D(9,1,2,3)            -30.0161         estimate D2E/DX2                !
 ! D2    D(9,1,2,14)           165.7964         estimate D2E/DX2                !
 ! D3    D(13,1,2,3)           152.7583         estimate D2E/DX2                !
 ! D4    D(13,1,2,14)          -11.4291         estimate D2E/DX2                !
 ! D5    D(2,1,9,10)          -178.5187         estimate D2E/DX2                !
 ! D6    D(2,1,9,23)             0.8152         estimate D2E/DX2                !
 ! D7    D(13,1,9,10)           -1.3172         estimate D2E/DX2                !
 ! D8    D(13,1,9,23)          178.0167         estimate D2E/DX2                !
 ! D9    D(2,1,13,12)          178.0592         estimate D2E/DX2                !
 ! D10   D(2,1,13,27)           -2.076          estimate D2E/DX2                !
 ! D11   D(9,1,13,12)            0.7244         estimate D2E/DX2                !
 ! D12   D(9,1,13,27)         -179.4108         estimate D2E/DX2                !
 ! D13   D(1,2,3,4)              2.2376         estimate D2E/DX2                !
 ! D14   D(1,2,3,5)           -177.6456         estimate D2E/DX2                !
 ! D15   D(14,2,3,4)           166.243          estimate D2E/DX2                !
 ! D16   D(14,2,3,5)           -13.6402         estimate D2E/DX2                !
 ! D17   D(2,3,5,6)            178.7707         estimate D2E/DX2                !
 ! D18   D(2,3,5,15)            -2.6993         estimate D2E/DX2                !
 ! D19   D(4,3,5,6)             -1.1128         estimate D2E/DX2                !
 ! D20   D(4,3,5,15)           177.4173         estimate D2E/DX2                !
 ! D21   D(3,5,6,7)           -177.8901         estimate D2E/DX2                !
 ! D22   D(3,5,6,16)            60.6846         estimate D2E/DX2                !
 ! D23   D(3,5,6,17)           -56.6935         estimate D2E/DX2                !
 ! D24   D(15,5,6,7)             3.5606         estimate D2E/DX2                !
 ! D25   D(15,5,6,16)         -117.8647         estimate D2E/DX2                !
 ! D26   D(15,5,6,17)          124.7572         estimate D2E/DX2                !
 ! D27   D(5,6,7,8)            179.9624         estimate D2E/DX2                !
 ! D28   D(5,6,7,18)            58.3342         estimate D2E/DX2                !
 ! D29   D(5,6,7,19)           -58.4254         estimate D2E/DX2                !
 ! D30   D(16,6,7,8)           -58.9605         estimate D2E/DX2                !
 ! D31   D(16,6,7,18)          179.4113         estimate D2E/DX2                !
 ! D32   D(16,6,7,19)           62.6517         estimate D2E/DX2                !
 ! D33   D(17,6,7,8)            59.2872         estimate D2E/DX2                !
 ! D34   D(17,6,7,18)          -62.341          estimate D2E/DX2                !
 ! D35   D(17,6,7,19)         -179.1007         estimate D2E/DX2                !
 ! D36   D(6,7,8,20)           -59.9366         estimate D2E/DX2                !
 ! D37   D(6,7,8,21)          -179.9237         estimate D2E/DX2                !
 ! D38   D(6,7,8,22)            60.0582         estimate D2E/DX2                !
 ! D39   D(18,7,8,20)           61.1881         estimate D2E/DX2                !
 ! D40   D(18,7,8,21)          -58.799          estimate D2E/DX2                !
 ! D41   D(18,7,8,22)         -178.8171         estimate D2E/DX2                !
 ! D42   D(19,7,8,20)          178.9127         estimate D2E/DX2                !
 ! D43   D(19,7,8,21)           58.9256         estimate D2E/DX2                !
 ! D44   D(19,7,8,22)          -61.0925         estimate D2E/DX2                !
 ! D45   D(1,9,10,11)            0.8609         estimate D2E/DX2                !
 ! D46   D(1,9,10,24)         -179.7712         estimate D2E/DX2                !
 ! D47   D(23,9,10,11)        -178.4762         estimate D2E/DX2                !
 ! D48   D(23,9,10,24)           0.8917         estimate D2E/DX2                !
 ! D49   D(9,10,11,12)           0.212          estimate D2E/DX2                !
 ! D50   D(9,10,11,25)        -179.722          estimate D2E/DX2                !
 ! D51   D(24,10,11,12)       -179.1431         estimate D2E/DX2                !
 ! D52   D(24,10,11,25)          0.9229         estimate D2E/DX2                !
 ! D53   D(9,10,24,28)         119.7418         estimate D2E/DX2                !
 ! D54   D(9,10,24,29)        -120.2843         estimate D2E/DX2                !
 ! D55   D(9,10,24,30)          -0.2618         estimate D2E/DX2                !
 ! D56   D(11,10,24,28)        -60.8936         estimate D2E/DX2                !
 ! D57   D(11,10,24,29)         59.0803         estimate D2E/DX2                !
 ! D58   D(11,10,24,30)        179.1028         estimate D2E/DX2                !
 ! D59   D(10,11,12,13)         -0.8093         estimate D2E/DX2                !
 ! D60   D(10,11,12,26)        179.7665         estimate D2E/DX2                !
 ! D61   D(25,11,12,13)        179.1267         estimate D2E/DX2                !
 ! D62   D(25,11,12,26)         -0.2976         estimate D2E/DX2                !
 ! D63   D(11,12,13,1)           0.3387         estimate D2E/DX2                !
 ! D64   D(11,12,13,27)       -179.5262         estimate D2E/DX2                !
 ! D65   D(26,12,13,1)         179.7621         estimate D2E/DX2                !
 ! D66   D(26,12,13,27)         -0.1028         estimate D2E/DX2                !
 --------------------------------------------------------------------------------
 Trust Radius=3.00D-01 FncErr=1.00D-07 GrdErr=1.00D-06
 Number of steps in this run=    157 maximum allowed number of steps=    180.
 GradGradGradGradGradGradGradGradGradGradGradGradGradGradGradGradGradGrad

                          Input orientation:                          
 ---------------------------------------------------------------------
 Center     Atomic      Atomic             Coordinates (Angstroms)
 Number     Number       Type             X           Y           Z
 ---------------------------------------------------------------------
      1          6           0       -6.175817    1.251181    0.738565
      2          7           0       -4.864962    0.803664    0.930733
      3          6           0       -3.741249    1.266774    0.270147
      4          8           0       -3.780826    2.181348   -0.556906
      5          7           0       -2.597889    0.635862    0.601322
      6          6           0       -1.329566    0.987402   -0.025019
      7          6           0       -0.219146    0.088907    0.493467
      8          6           0        1.116647    0.439566   -0.150142
      9          6           0       -6.480847    2.557441    0.349181
     10          6           0       -7.806923    2.949440    0.204584
     11          6           0       -8.839396    2.049385    0.463796
     12          6           0       -8.541684    0.757572    0.872265
     13          6           0       -7.220506    0.361991    1.004760
     14          1           0       -4.773953   -0.077672    1.421634
     15          1           0       -2.604614   -0.082415    1.313089
     16          1           0       -1.095376    2.035355    0.184357
     17          1           0       -1.421943    0.884029   -1.109768
     18          1           0       -0.473790   -0.954954    0.285591
     19          1           0       -0.149977    0.191508    1.580984
     20          1           0        1.071205    0.323916   -1.236097
     21          1           0        1.913593   -0.207006    0.221658
     22          1           0        1.396923    1.473868    0.065140
     23          1           0       -5.689903    3.269076    0.169858
     24          6           0       -8.103637    4.360994   -0.220930
     25         17           0      -10.514719    2.503492    0.286259
     26          1           0       -9.341744    0.057286    1.078017
     27          1           0       -6.994711   -0.651937    1.317134
     28          9           0       -8.787068    4.409311   -1.377614
     29          9           0       -8.840911    5.021898    0.688293
     30          9           0       -6.990792    5.081291   -0.405296
 ---------------------------------------------------------------------
                    Distance matrix (angstroms):
                    1          2          3          4          5
     1  C    0.000000
     2  N    1.398406   0.000000
     3  C    2.479270   1.383321   0.000000
     4  O    2.877401   2.299225   1.233705   0.000000
     5  N    3.633046   2.297018   1.347219   2.264809   0.000000
     6  C    4.913123   3.666912   2.445687   2.777964   1.457575
     7  C    6.073951   4.720772   3.720544   4.262294   2.443196
     8  C    7.391112   6.089377   4.945712   5.213876   3.794865
     9  C    1.396774   2.454592   3.029434   2.872726   4.339748
    10  C    2.414483   3.713055   4.400610   4.168848   5.713500
    11  C    2.794152   4.191178   5.161501   5.162207   6.401045
    12  C    2.420507   3.677475   4.864772   5.170632   5.951212
    13  C    1.397460   2.397737   3.669267   4.192882   4.648264
    14  H    2.048819   1.012927   2.049375   3.162925   2.432550
    15  H    3.855132   2.457744   2.049384   3.163065   1.011226
    16  H    5.170391   4.035334   2.756577   2.789700   2.095229
    17  H    5.113751   4.003059   2.725773   2.748276   2.090996
    18  H    6.130687   4.774028   3.951279   4.634941   2.672485
    19  H    6.176028   4.798817   3.971363   4.659732   2.673847
    20  H    7.568252   6.337460   5.130055   5.239614   4.115297
    21  H    8.236022   6.890069   5.843938   6.223890   4.605219
    22  H    7.605884   6.356857   5.146428   5.262751   4.116827
    23  H    2.152078   2.708821   2.795805   2.314285   4.084181
    24  C    3.782600   4.946710   5.370828   4.852879   6.698207
    25  Cl   4.538605   5.935024   6.885465   6.794117   8.140240
    26  H    3.400546   4.540963   5.786282   6.173202   6.785394
    27  H    2.151090   2.608430   3.919522   4.676386   4.637117
    28  F    4.612009   5.806209   6.168545   5.540743   7.514057
    29  F    4.617744   5.801762   6.346838   5.934957   7.630217
    30  F    4.079502   4.960062   5.056312   4.328572   6.330302
                    6          7          8          9         10
     6  C    0.000000
     7  C    1.519590   0.000000
     8  C    2.509928   1.523659   0.000000
     9  C    5.398217   6.732264   7.902951   0.000000
    10  C    6.771888   8.114213   9.276605   1.390341   0.000000
    11  C    7.600283   8.840422  10.104021   2.415369   1.394020
    12  C    7.271353   8.357944   9.717499   2.785712   2.406233
    13  C    6.012883   7.025314   8.417122   2.407671   2.771112
    14  H    3.884712   4.651399   6.118593   3.317750   4.454607
    15  H    2.135600   2.528159   4.032529   4.787812   6.122495
    16  H    1.094025   2.156847   2.747996   5.413228   6.773538
    17  H    1.093572   2.156223   2.750067   5.524613   6.838231
    18  H    2.145129   1.094396   2.159638   6.958858   8.308170
    19  H    2.145722   1.094534   2.159321   6.869854   8.254059
    20  H    2.769590   2.170628   1.093040   8.033383   9.369637
    21  H    3.464901   2.170258   1.091519   8.838838  10.220170
    22  H    2.771015   2.171004   1.093016   7.957014   9.322421
    23  H    4.925094   6.336196   7.378187   1.078969   2.141295
    24  C    7.570175   8.995904  10.019793   2.492244   1.503857
    25  Cl   9.314636  10.576955  11.821121   4.034723   2.745487
    26  H    8.141056   9.141362  10.537194   3.868683   3.388675
    27  H    6.048361   6.865534   8.314950   3.391326   3.855823
    28  F    8.315847   9.776304  10.740071   3.424894   2.365430
    29  F    8.556067   9.935149  10.993348   3.429059   2.366049
    30  F    6.996715   8.460902   9.345656   2.683113   2.362797
                   11         12         13         14         15
    11  C    0.000000
    12  C    1.387177   0.000000
    13  C    2.400156   1.385478   0.000000
    14  H    4.687180   3.898107   2.520458   0.000000
    15  H    6.643672   6.012379   4.647475   2.172058   0.000000
    16  H    7.749073   7.586398   6.402376   4.419012   2.834922
    17  H    7.671556   7.391559   6.194117   4.309157   2.864080
    18  H    8.890511   8.268485   6.911565   4.533389   2.521406
    19  H    8.955771   8.440584   7.096019   4.634544   2.484360
    20  H   10.202299   9.850933   8.589259   6.433559   4.491670
    21  H   10.989846  10.519815   9.185248   6.795582   4.649832
    22  H   10.260233   9.997021   8.739522   6.505925   4.471207
    23  H    3.390185   3.864412   3.389830   3.688717   4.696645
    24  C    2.520660   3.790991   4.274841   5.786759   7.234387
    25  Cl   1.744832   2.698982   3.994259   6.395927   8.385169
    26  H    2.144314   1.082973   2.144263   4.582685   6.742677
    27  H    3.380561   2.139568   1.084717   2.296185   4.426887
    28  F    2.993790   4.296203   4.950820   6.638818   8.101742
    29  F    2.980979   4.278768   4.943743   6.563806   8.083055
    30  F    3.655832   4.767805   4.930803   5.904824   6.989654
                   16         17         18         19         20
    16  H    0.000000
    17  H    1.762657   0.000000
    18  H    3.055907   2.495572   0.000000
    19  H    2.498824   3.055753   1.759907   0.000000
    20  H    3.104962   2.558412   2.517549   3.073233   0.000000
    21  H    3.752795   3.753512   2.502621   2.502979   1.765374
    22  H    2.557545   3.110358   3.073653   2.516969   1.766834
    23  H    4.757305   5.053847   6.712947   6.492571   7.507547
    24  C    7.395172   7.584481   9.312918   9.159270  10.075033
    25  Cl   9.431519   9.340777  10.619845  10.698105  11.887041
    26  H    8.527248   8.257914   8.960646   9.206496  10.670320
    27  H    6.580796   6.269353   6.608957   6.901550   8.516471
    28  F    8.199850   8.169725  10.032556  10.056963  10.672208
    29  F    8.316652   8.683091  10.290464   9.983081  11.136623
    30  F    6.661932   7.008949   8.909820   8.640141   9.397800
                   21         22         23         24         25
    21  H    0.000000
    22  H    1.765442   0.000000
    23  H    8.360561   7.311419   0.000000
    24  C   11.018503   9.933679   2.677894   0.000000
    25  Cl  12.720610  11.958103   4.886565   3.085591   0.000000
    26  H   11.290961  10.878952   4.947352   4.662840   2.826071
    27  H    8.986429   8.746774   4.288718   5.359556   4.838377
    28  F   11.763171  10.696356   3.645166   1.344370   3.063560
    29  F   11.967395  10.853114   3.642803   1.344267   3.050514
    30  F   10.375318   9.142679   2.303744   1.338373   4.420561
                   26         27         28         29         30
    26  H    0.000000
    27  H    2.463481   0.000000
    28  F    5.027715   6.007532   0.000000
    29  F    5.005007   5.999691   2.155490   0.000000
    30  F    5.741761   5.986374   2.150248   2.149978   0.000000
 Stoichiometry    C11H12ClF3N2O
 Framework group  C1[X(C11H12ClF3N2O)]
 Deg. of freedom    84
 Full point group                 C1      NOp   1
 Largest Abelian subgroup         C1      NOp   1
 Largest concise Abelian subgroup C1      NOp   1
                         Standard orientation:                         
 ---------------------------------------------------------------------
 Center     Atomic      Atomic             Coordinates (Angstroms)
 Number     Number       Type             X           Y           Z
 ---------------------------------------------------------------------
      1          6           0       -0.058821   -1.049724   -0.182801
      2          7           0       -1.445682   -1.125155   -0.345478
      3          6           0       -2.362316   -0.155264    0.018760
      4          8           0       -2.031302    0.928739    0.505993
      5          7           0       -3.648625   -0.491109   -0.199458
      6          6           0       -4.737784    0.410487    0.154634
      7          6           0       -6.078108   -0.237317   -0.150380
      8          6           0       -7.231474    0.689337    0.213758
      9          6           0        0.642284    0.158070   -0.208546
     10          6           0        2.025821    0.163353   -0.071269
     11          6           0        2.723401   -1.034716    0.074687
     12          6           0        2.033569   -2.238201    0.078503
     13          6           0        0.653687   -2.244064   -0.045752
     14          1           0       -1.811895   -2.050983   -0.531896
     15          1           0       -3.873284   -1.374629   -0.637062
     16          1           0       -4.635416    1.345910   -0.403393
     17          1           0       -4.671633    0.656004    1.218234
     18          1           0       -6.159783   -1.175662    0.406883
     19          1           0       -6.122479   -0.491347   -1.214103
     20          1           0       -7.213731    0.938223    1.277937
     21          1           0       -8.193956    0.222974   -0.004296
     22          1           0       -7.177205    1.624255   -0.349861
     23          1           0        0.114605    1.089165   -0.345629
     24          6           0        2.752225    1.479871   -0.097793
     25         17           0        4.458437   -1.066528    0.256557
     26          1           0        2.573189   -3.170763    0.187916
     27          1           0        0.119809   -3.188232   -0.034251
     28          9           0        3.427930    1.709684    1.041478
     29          9           0        3.649926    1.545345   -1.096241
     30          9           0        1.921477    2.515971   -0.263921
 ---------------------------------------------------------------------
 Rotational constants (GHZ):      0.8799726      0.1409608      0.1252113
 Standard basis: 6-311+G(d) (5D, 7F)
 There are   458 symmetry adapted cartesian basis functions of A   symmetry.
 There are   440 symmetry adapted basis functions of A   symmetry.
   440 basis functions,   725 primitive gaussians,   458 cartesian basis functions
    72 alpha electrons       72 beta electrons
       nuclear repulsion energy      1445.8784511663 Hartrees.
 NAtoms=   30 NActive=   30 NUniq=   30 SFac= 1.00D+00 NAtFMM=   60 NAOKFM=F Big=F
 Integral buffers will be    131072 words long.
 Raffenetti 2 integral format.
 Two-electron integral symmetry is turned on.
 Nuclear repulsion after empirical dispersion term =     1445.8771266238 Hartrees.
 ------------------------------------------------------------------------------
 Polarizable Continuum Model (PCM)
 =================================
 Model                : PCM (using non-symmetric T matrix).
 Atomic radii         : SMD-Coulomb.
 Polarization charges : Total charges.
 Charge compensation  : None.
 Solution method      : On-the-fly selection.
 Cavity type          : VdW (van der Waals Surface) (Alpha=1.000).
 Cavity algorithm     : GePol (No added spheres)
                        Default sphere list used, NSphG=   30.
                        Lebedev-Laikov grids with approx.  5.0 points / Ang**2.
                        Smoothing algorithm: York/Karplus (Gamma=1.0000).
                        Polarization charges: spherical gaussians, with
                                              point-specific exponents (IZeta= 3).
                        Self-potential: point-specific (ISelfS= 7).
                        Self-field    : sphere-specific E.n sum rule (ISelfD= 2).
 1st derivatives      : Analytical E(r).r(x)/FMM algorithm (CHGder, D1EAlg=3).
                        Cavity 1st derivative terms included.
 Solvent              : Water, Eps=  78.355300 Eps(inf)=   1.777849
 ------------------------------------------------------------------------------
 ------------------------------------------------------------------------------
 Atomic radii for non-electrostatic terms: SMD-CDS.
 ------------------------------------------------------------------------------
 Nuclear repulsion after PCM non-electrostatic terms =     1445.8878562433 Hartrees.
 One-electron integrals computed using PRISM.
 NBasis=   440 RedAO= T EigKep=  1.39D-06  NBF=   440
 NBsUse=   439 1.00D-06 EigRej=  4.50D-07 NBFU=   439
 ExpMin= 4.38D-02 ExpMax= 1.06D+05 ExpMxC= 3.62D+03 IAcc=3 IRadAn=         5 AccDes= 0.00D+00
 Harris functional with IExCor= 1009 and IRadAn=       5 diagonalized for initial guess.
 HarFok:  IExCor= 1009 AccDes= 0.00D+00 IRadAn=         5 IDoV= 1 UseB2=F ITyADJ=14
 ICtDFT=  3500011 ScaDFX=  1.000000  1.000000  1.000000  1.000000
 FoFCou: FMM=F IPFlag=           0 FMFlag=      100000 FMFlg1=           0
         NFxFlg=           0 DoJE=T BraDBF=F KetDBF=T FulRan=T
         wScrn=  0.000000 ICntrl=     500 IOpCl=  0 I1Cent=   200000004 NGrid=           0
         NMat0=    1 NMatS0=      1 NMatT0=    0 NMatD0=    1 NMtDS0=    0 NMtDT0=    0
 Petite list used in FoFCou.
 Requested convergence on RMS density matrix=1.00D-08 within 128 cycles.
 Requested convergence on MAX density matrix=1.00D-06.
 Requested convergence on             energy=1.00D-06.
 No special actions if energy rises.
 Inv3:  Mode=1 IEnd=    17208075.
 Iteration    1 A*A^-1 deviation from unit magnitude is 6.77D-15 for   2384.
 Iteration    1 A*A^-1 deviation from orthogonality  is 2.95D-15 for   2386    150.
 Iteration    1 A^-1*A deviation from unit magnitude is 7.33D-15 for   2384.
 Iteration    1 A^-1*A deviation from orthogonality  is 2.68D-11 for   2086   2077.
 Error on total polarization charges =  0.04473
 SCF Done:  E(RM062X) =  -1370.81485347     A.U. after   15 cycles
            NFock= 15  Conv=0.47D-08     -V/T= 2.0029
 SMD-CDS (non-electrostatic) energy       (kcal/mol) =       6.73
 (included in total energy above)

 **********************************************************************

            Population analysis using the SCF density.

 **********************************************************************

 Orbital symmetries:
       Occupied  (A) (A) (A) (A) (A) (A) (A) (A) (A) (A) (A) (A)
                 (A) (A) (A) (A) (A) (A) (A) (A) (A) (A) (A) (A)
                 (A) (A) (A) (A) (A) (A) (A) (A) (A) (A) (A) (A)
                 (A) (A) (A) (A) (A) (A) (A) (A) (A) (A) (A) (A)
                 (A) (A) (A) (A) (A) (A) (A) (A) (A) (A) (A) (A)
                 (A) (A) (A) (A) (A) (A) (A) (A) (A) (A) (A) (A)
       Virtual   (A) (A) (A) (A) (A) (A) (A) (A) (A) (A) (A) (A)
                 (A) (A) (A) (A) (A) (A) (A) (A) (A) (A) (A) (A)
                 (A) (A) (A) (A) (A) (A) (A) (A) (A) (A) (A) (A)
                 (A) (A) (A) (A) (A) (A) (A) (A) (A) (A) (A) (A)
                 (A) (A) (A) (A) (A) (A) (A) (A) (A) (A) (A) (A)
                 (A) (A) (A) (A) (A) (A) (A) (A) (A) (A) (A) (A)
                 (A) (A) (A) (A) (A) (A) (A) (A) (A) (A) (A) (A)
                 (A) (A) (A) (A) (A) (A) (A) (A) (A) (A) (A) (A)
                 (A) (A) (A) (A) (A) (A) (A) (A) (A) (A) (A) (A)
                 (A) (A) (A) (A) (A) (A) (A) (A) (A) (A) (A) (A)
                 (A) (A) (A) (A) (A) (A) (A) (A) (A) (A) (A) (A)
                 (A) (A) (A) (A) (A) (A) (A) (A) (A) (A) (A) (A)
                 (A) (A) (A) (A) (A) (A) (A) (A) (A) (A) (A) (A)
                 (A) (A) (A) (A) (A) (A) (A) (A) (A) (A) (A) (A)
                 (A) (A) (A) (A) (A) (A) (A) (A) (A) (A) (A) (A)
                 (A) (A) (A) (A) (A) (A) (A) (A) (A) (A) (A) (A)
                 (A) (A) (A) (A) (A) (A) (A) (A) (A) (A) (A) (A)
                 (A) (A) (A) (A) (A) (A) (A) (A) (A) (A) (A) (A)
                 (A) (A) (A) (A) (A) (A) (A) (A) (A) (A) (A) (A)
                 (A) (A) (A) (A) (A) (A) (A) (A) (A) (A) (A) (A)
                 (A) (A) (A) (A) (A) (A) (A) (A) (A) (A) (A) (A)
                 (A) (A) (A) (A) (A) (A) (A) (A) (A) (A) (A) (A)
                 (A) (A) (A) (A) (A) (A) (A) (A) (A) (A) (A) (A)
                 (A) (A) (A) (A) (A) (A) (A) (A) (A) (A) (A) (A)
                 (A) (A) (A) (A) (A) (A) (A) (A) (A) (A) (A) (A)
                 (A) (A) (A) (A) (A) (A) (A) (A) (A) (A) (A) (A)
                 (A) (A) (A) (A) (A) (A) (A) (A) (A) (A) (A) (A)
                 (A) (A) (A) (A) (A) (A) (A) (A) (A) (A) (A) (A)
                 (A) (A) (A) (A) (A) (A) (A) (A) (A) (A) (A) (A)
                 (A) (A) (A) (A) (A) (A) (A) (A) (A) (A) (A) (A)
                 (A) (A) (A) (A) (A) (A) (A)
 The electronic state is 1-A.
 Alpha  occ. eigenvalues -- -102.68853 -25.28821 -25.28445 -25.28438 -19.60026
 Alpha  occ. eigenvalues --  -14.78766 -14.77067 -10.81429 -10.68527 -10.62320
 Alpha  occ. eigenvalues --  -10.61079 -10.59042 -10.56700 -10.56682 -10.56651
 Alpha  occ. eigenvalues --  -10.56287 -10.53052 -10.51749  -9.83131  -7.55646
 Alpha  occ. eigenvalues --   -7.54966  -7.54956  -1.48060  -1.38660  -1.38313
 Alpha  occ. eigenvalues --   -1.18789  -1.06757  -1.03654  -1.01362  -0.94961
 Alpha  occ. eigenvalues --   -0.90431  -0.88208  -0.84637  -0.81860  -0.77811
 Alpha  occ. eigenvalues --   -0.74610  -0.72541  -0.70386  -0.70225  -0.68691
 Alpha  occ. eigenvalues --   -0.68394  -0.66251  -0.63656  -0.59780  -0.58623
 Alpha  occ. eigenvalues --   -0.58559  -0.57355  -0.56352  -0.55764  -0.54360
 Alpha  occ. eigenvalues --   -0.54007  -0.53743  -0.52363  -0.52267  -0.51699
 Alpha  occ. eigenvalues --   -0.51178  -0.49307  -0.48611  -0.46785  -0.45984
 Alpha  occ. eigenvalues --   -0.45895  -0.44285  -0.42698  -0.42096  -0.39986
 Alpha  occ. eigenvalues --   -0.39284  -0.39002  -0.37442  -0.36634  -0.33637
 Alpha  occ. eigenvalues --   -0.32940  -0.28037
 Alpha virt. eigenvalues --   -0.01209   0.00002   0.01162   0.01944   0.02694
 Alpha virt. eigenvalues --    0.03073   0.03605   0.03857   0.04302   0.05140
 Alpha virt. eigenvalues --    0.05324   0.05650   0.06329   0.06677   0.07131
 Alpha virt. eigenvalues --    0.07413   0.07649   0.08108   0.08410   0.08652
 Alpha virt. eigenvalues --    0.09170   0.09370   0.09726   0.10497   0.11475
 Alpha virt. eigenvalues --    0.11703   0.11802   0.12839   0.13012   0.13387
 Alpha virt. eigenvalues --    0.13799   0.14490   0.14993   0.15733   0.16103
 Alpha virt. eigenvalues --    0.16997   0.17235   0.17828   0.18401   0.18672
 Alpha virt. eigenvalues --    0.18761   0.19640   0.20034   0.20178   0.20595
 Alpha virt. eigenvalues --    0.21060   0.21161   0.21388   0.21805   0.22182
 Alpha virt. eigenvalues --    0.22447   0.22864   0.23191   0.23548   0.24079
 Alpha virt. eigenvalues --    0.24436   0.24980   0.25348   0.25774   0.26010
 Alpha virt. eigenvalues --    0.26087   0.27135   0.27166   0.27766   0.27845
 Alpha virt. eigenvalues --    0.28034   0.28734   0.29149   0.29821   0.29973
 Alpha virt. eigenvalues --    0.30214   0.30436   0.30602   0.31486   0.31728
 Alpha virt. eigenvalues --    0.31975   0.32559   0.32727   0.33011   0.33585
 Alpha virt. eigenvalues --    0.34465   0.34836   0.35498   0.35878   0.36643
 Alpha virt. eigenvalues --    0.37081   0.37281   0.38266   0.38898   0.39788
 Alpha virt. eigenvalues --    0.40151   0.41228   0.42048   0.42401   0.43349
 Alpha virt. eigenvalues --    0.44057   0.44590   0.45159   0.45411   0.46677
 Alpha virt. eigenvalues --    0.47368   0.48718   0.48971   0.50219   0.50473
 Alpha virt. eigenvalues --    0.50733   0.51012   0.52589   0.54140   0.55136
 Alpha virt. eigenvalues --    0.56386   0.57986   0.59067   0.60056   0.60665
 Alpha virt. eigenvalues --    0.61252   0.62203   0.62467   0.63562   0.64229
 Alpha virt. eigenvalues --    0.65439   0.65668   0.67072   0.68132   0.68457
 Alpha virt. eigenvalues --    0.68792   0.69246   0.70324   0.70503   0.70646
 Alpha virt. eigenvalues --    0.71963   0.72464   0.73374   0.73816   0.74211
 Alpha virt. eigenvalues --    0.74768   0.76242   0.76625   0.76978   0.77755
 Alpha virt. eigenvalues --    0.78927   0.79110   0.79839   0.80287   0.81650
 Alpha virt. eigenvalues --    0.83744   0.84946   0.85718   0.88045   0.89106
 Alpha virt. eigenvalues --    0.90453   0.91720   0.92696   0.93910   0.94192
 Alpha virt. eigenvalues --    0.94712   0.95051   0.95437   0.96168   0.96908
 Alpha virt. eigenvalues --    0.97315   0.99088   1.00594   1.02753   1.03593
 Alpha virt. eigenvalues --    1.04205   1.04984   1.06275   1.08795   1.09288
 Alpha virt. eigenvalues --    1.11380   1.12027   1.12306   1.14820   1.18740
 Alpha virt. eigenvalues --    1.20854   1.21918   1.22895   1.23803   1.25734
 Alpha virt. eigenvalues --    1.26935   1.28466   1.30561   1.31137   1.34086
 Alpha virt. eigenvalues --    1.34336   1.35028   1.38620   1.40451   1.41351
 Alpha virt. eigenvalues --    1.45547   1.46159   1.46643   1.47542   1.49137
 Alpha virt. eigenvalues --    1.49817   1.50181   1.51654   1.52942   1.53362
 Alpha virt. eigenvalues --    1.54113   1.55500   1.56545   1.57250   1.57664
 Alpha virt. eigenvalues --    1.58456   1.61104   1.61643   1.62490   1.63711
 Alpha virt. eigenvalues --    1.63921   1.67120   1.68677   1.73103   1.73916
 Alpha virt. eigenvalues --    1.75391   1.77996   1.78410   1.79727   1.80524
 Alpha virt. eigenvalues --    1.81125   1.82604   1.84840   1.85410   1.86660
 Alpha virt. eigenvalues --    1.86890   1.89561   1.92130   1.94441   1.96537
 Alpha virt. eigenvalues --    1.96729   1.97636   1.99963   2.00074   2.04040
 Alpha virt. eigenvalues --    2.07364   2.08056   2.09023   2.10638   2.14068
 Alpha virt. eigenvalues --    2.15652   2.18687   2.23407   2.25866   2.26751
 Alpha virt. eigenvalues --    2.28219   2.31354   2.31556   2.33895   2.35775
 Alpha virt. eigenvalues --    2.35816   2.39134   2.41383   2.47711   2.49596
 Alpha virt. eigenvalues --    2.52360   2.55712   2.56137   2.57401   2.58020
 Alpha virt. eigenvalues --    2.58973   2.60649   2.60948   2.63765   2.65567
 Alpha virt. eigenvalues --    2.68061   2.72036   2.73463   2.77538   2.81600
 Alpha virt. eigenvalues --    2.82459   2.85041   2.86828   2.87808   2.91420
 Alpha virt. eigenvalues --    2.94564   2.95907   2.97757   3.00484   3.01110
 Alpha virt. eigenvalues --    3.03205   3.03795   3.07104   3.10270   3.12828
 Alpha virt. eigenvalues --    3.13770   3.18357   3.20513   3.24201   3.25818
 Alpha virt. eigenvalues --    3.27241   3.29823   3.30471   3.35591   3.38323
 Alpha virt. eigenvalues --    3.39461   3.40991   3.41575   3.44587   3.52528
 Alpha virt. eigenvalues --    3.56548   3.65110   3.67428   3.69258   3.75378
 Alpha virt. eigenvalues --    3.79645   3.80371   3.82376   3.83407   3.83726
 Alpha virt. eigenvalues --    3.85993   3.86597   3.87815   3.95604   3.98990
 Alpha virt. eigenvalues --    3.99887   4.00441   4.01948   4.03749   4.06572
 Alpha virt. eigenvalues --    4.07596   4.10842   4.22223   4.26882   4.30875
 Alpha virt. eigenvalues --    4.54783   4.58191   4.76018   4.81139   4.90166
 Alpha virt. eigenvalues --    4.97743   5.01693   5.19504   5.20515   5.40268
 Alpha virt. eigenvalues --    5.88206   6.45070   6.48223   6.49500   6.52569
 Alpha virt. eigenvalues --    6.54928   6.57144   6.62646   6.86713   6.90686
 Alpha virt. eigenvalues --    9.99722  23.43389  23.59416  23.65193  23.74482
 Alpha virt. eigenvalues --   23.82264  23.92452  23.94071  23.95230  24.08237
 Alpha virt. eigenvalues --   24.12546  24.19885  25.95695  26.30556  26.79932
 Alpha virt. eigenvalues --   35.60357  35.70289  50.12815  66.88238  66.91273
 Alpha virt. eigenvalues --   66.96537 216.10667
          Condensed to atoms (all electrons):
               1          2          3          4          5          6
     1  C   18.893888   0.072989  -0.657868  -0.054150  -0.246740  -0.348591
     2  N    0.072989   7.622234   0.355194  -0.131991  -0.426480  -0.341336
     3  C   -0.657868   0.355194   7.001560   0.626306   0.315112  -0.902587
     4  O   -0.054150  -0.131991   0.626306   8.313746  -0.189746  -0.091106
     5  N   -0.246740  -0.426480   0.315112  -0.189746   7.528981   0.388482
     6  C   -0.348591  -0.341336  -0.902587  -0.091106   0.388482   7.934679
     7  C   -0.006723   0.020047   0.155839   0.016837  -0.112821  -0.830710
     8  C   -0.010775  -0.012270  -0.216936  -0.002694  -0.001879   0.370537
     9  C   -1.963811   0.126533   0.229021   0.116805  -0.005752  -0.133643
    10  C   -3.501462  -0.008050  -0.343548  -0.010204   0.032519  -0.013282
    11  C   -2.349799   0.015627  -0.486663   0.002600  -0.041504  -0.055292
    12  C    0.663979   0.067509   0.473393   0.021191   0.015279   0.031007
    13  C   -1.442388  -0.348039  -0.749296  -0.068705  -0.079492  -0.036096
    14  H    0.022445   0.252367  -0.026660  -0.000360   0.048686   0.011379
    15  H   -0.001049   0.053314   0.016844  -0.001697   0.270236  -0.058087
    16  H    0.008175  -0.001112   0.014750  -0.000675  -0.059942   0.414210
    17  H   -0.004127   0.013753   0.075690   0.002025  -0.054337   0.310920
    18  H    0.000432  -0.001563   0.000789  -0.000174   0.007351  -0.072640
    19  H   -0.000801  -0.000273   0.003947  -0.000107   0.007069  -0.069883
    20  H   -0.000125  -0.000060  -0.003011  -0.000042  -0.000387  -0.043862
    21  H    0.000084   0.000012   0.005186   0.000021  -0.001258   0.082302
    22  H    0.000046  -0.000016   0.001015  -0.000045   0.000399  -0.051708
    23  H   -0.034459  -0.010258   0.038214  -0.007266  -0.000538   0.003058
    24  C   -2.608401   0.015313   0.007971  -0.011647   0.015717   0.009601
    25  Cl   0.207160  -0.002734  -0.029486   0.000256   0.000082  -0.000539
    26  H   -0.051602  -0.002024  -0.000958  -0.000003  -0.000039  -0.000012
    27  H    0.039942  -0.011935   0.006078  -0.000038  -0.000601  -0.000170
    28  F    0.028880   0.000450   0.002918   0.000085  -0.000013   0.000019
    29  F   -0.005950   0.000539  -0.000205  -0.000032   0.000017   0.000003
    30  F    0.198872   0.000079   0.003860  -0.000904  -0.000069   0.000038
               7          8          9         10         11         12
     1  C   -0.006723  -0.010775  -1.963811  -3.501462  -2.349799   0.663979
     2  N    0.020047  -0.012270   0.126533  -0.008050   0.015627   0.067509
     3  C    0.155839  -0.216936   0.229021  -0.343548  -0.486663   0.473393
     4  O    0.016837  -0.002694   0.116805  -0.010204   0.002600   0.021191
     5  N   -0.112821  -0.001879  -0.005752   0.032519  -0.041504   0.015279
     6  C   -0.830710   0.370537  -0.133643  -0.013282  -0.055292   0.031007
     7  C    6.354808  -0.208451  -0.002638  -0.003237   0.001449   0.000063
     8  C   -0.208451   6.122034  -0.007689  -0.000499  -0.000410   0.000278
     9  C   -0.002638  -0.007689  15.657729   1.678540  -6.691902   2.118689
    10  C   -0.003237  -0.000499   1.678540  37.127723 -14.451850 -10.247941
    11  C    0.001449  -0.000410  -6.691902 -14.451850  39.289096  -5.491836
    12  C    0.000063   0.000278   2.118689 -10.247941  -5.491836  20.535803
    13  C    0.007526   0.001056  -5.482576  -1.080068  -0.139875  -1.521756
    14  H   -0.001536  -0.000040   0.066762   0.016100  -0.013989   0.013844
    15  H   -0.015398   0.002692   0.005910  -0.000502   0.000073  -0.000283
    16  H   -0.036492  -0.010761  -0.008177  -0.000197   0.000067   0.000101
    17  H   -0.001489  -0.025177   0.011873   0.000807   0.000183  -0.000196
    18  H    0.461683  -0.049720  -0.001130  -0.000056  -0.000002   0.000047
    19  H    0.453479  -0.047197   0.001689   0.000101   0.000004  -0.000041
    20  H    0.007881   0.384287   0.000080   0.000005   0.000000  -0.000001
    21  H   -0.120351   0.383755   0.000007   0.000000   0.000000  -0.000000
    22  H    0.022786   0.373026  -0.000077  -0.000008  -0.000000   0.000001
    23  H   -0.000083   0.000015   0.353039  -0.025761  -0.049089  -0.033121
    24  C   -0.000925   0.000050  -0.146052  -2.891928  -2.512669  -0.469275
    25  Cl  -0.000002  -0.000001  -0.052410   0.800547  -1.554539  -0.095722
    26  H    0.000001  -0.000000  -0.031533   0.133901   0.130449   0.116696
    27  H    0.000035  -0.000000   0.004201  -0.018436  -0.066925   0.050351
    28  F   -0.000001  -0.000000   0.064549   0.106434  -0.151169   0.100052
    29  F   -0.000000   0.000000  -0.009119   0.117426  -0.102982   0.079429
    30  F    0.000005  -0.000000   0.169626  -0.318120  -0.157232  -0.009372
              13         14         15         16         17         18
     1  C   -1.442388   0.022445  -0.001049   0.008175  -0.004127   0.000432
     2  N   -0.348039   0.252367   0.053314  -0.001112   0.013753  -0.001563
     3  C   -0.749296  -0.026660   0.016844   0.014750   0.075690   0.000789
     4  O   -0.068705  -0.000360  -0.001697  -0.000675   0.002025  -0.000174
     5  N   -0.079492   0.048686   0.270236  -0.059942  -0.054337   0.007351
     6  C   -0.036096   0.011379  -0.058087   0.414210   0.310920  -0.072640
     7  C    0.007526  -0.001536  -0.015398  -0.036492  -0.001489   0.461683
     8  C    0.001056  -0.000040   0.002692  -0.010761  -0.025177  -0.049720
     9  C   -5.482576   0.066762   0.005910  -0.008177   0.011873  -0.001130
    10  C   -1.080068   0.016100  -0.000502  -0.000197   0.000807  -0.000056
    11  C   -0.139875  -0.013989   0.000073   0.000067   0.000183  -0.000002
    12  C   -1.521756   0.013844  -0.000283   0.000101  -0.000196   0.000047
    13  C   15.722511  -0.104734  -0.003866  -0.000207  -0.001042   0.000760
    14  H   -0.104734   0.281166   0.001951   0.000133  -0.000080   0.000014
    15  H   -0.003866   0.001951   0.276182   0.001744   0.002252  -0.001345
    16  H   -0.000207   0.000133   0.001744   0.444522  -0.044057   0.005739
    17  H   -0.001042  -0.000080   0.002252  -0.044057   0.435566  -0.008216
    18  H    0.000760   0.000014  -0.001345   0.005739  -0.008216   0.436177
    19  H   -0.000791   0.000020  -0.000586  -0.008016   0.005174  -0.041203
    20  H   -0.000038   0.000000  -0.000039  -0.000519   0.003524  -0.008215
    21  H   -0.000002   0.000000  -0.000028  -0.000043  -0.000081  -0.003211
    22  H    0.000034  -0.000000  -0.000014   0.003371  -0.000427   0.005873
    23  H    0.021751  -0.000015   0.000025   0.000025  -0.000013   0.000000
    24  C    0.901974   0.002402  -0.000020  -0.000059   0.000003  -0.000001
    25  Cl   0.135572   0.000039  -0.000005  -0.000000   0.000000   0.000000
    26  H    0.022072  -0.000010   0.000000   0.000000   0.000000  -0.000000
    27  H    0.321831   0.004290   0.000015  -0.000000   0.000000  -0.000000
    28  F   -0.030568   0.000002  -0.000000  -0.000000   0.000000  -0.000000
    29  F   -0.002176   0.000001   0.000000   0.000000  -0.000000   0.000000
    30  F    0.001554   0.000001   0.000000  -0.000000   0.000000  -0.000000
              19         20         21         22         23         24
     1  C   -0.000801  -0.000125   0.000084   0.000046  -0.034459  -2.608401
     2  N   -0.000273  -0.000060   0.000012  -0.000016  -0.010258   0.015313
     3  C    0.003947  -0.003011   0.005186   0.001015   0.038214   0.007971
     4  O   -0.000107  -0.000042   0.000021  -0.000045  -0.007266  -0.011647
     5  N    0.007069  -0.000387  -0.001258   0.000399  -0.000538   0.015717
     6  C   -0.069883  -0.043862   0.082302  -0.051708   0.003058   0.009601
     7  C    0.453479   0.007881  -0.120351   0.022786  -0.000083  -0.000925
     8  C   -0.047197   0.384287   0.383755   0.373026   0.000015   0.000050
     9  C    0.001689   0.000080   0.000007  -0.000077   0.353039  -0.146052
    10  C    0.000101   0.000005   0.000000  -0.000008  -0.025761  -2.891928
    11  C    0.000004   0.000000   0.000000  -0.000000  -0.049089  -2.512669
    12  C   -0.000041  -0.000001  -0.000000   0.000001  -0.033121  -0.469275
    13  C   -0.000791  -0.000038  -0.000002   0.000034   0.021751   0.901974
    14  H    0.000020   0.000000   0.000000  -0.000000  -0.000015   0.002402
    15  H   -0.000586  -0.000039  -0.000028  -0.000014   0.000025  -0.000020
    16  H   -0.008016  -0.000519  -0.000043   0.003371   0.000025  -0.000059
    17  H    0.005174   0.003524  -0.000081  -0.000427  -0.000013   0.000003
    18  H   -0.041203  -0.008215  -0.003211   0.005873   0.000000  -0.000001
    19  H    0.435963   0.005906  -0.003202  -0.008327  -0.000000   0.000003
    20  H    0.005906   0.445402  -0.024201  -0.036520  -0.000000  -0.000000
    21  H   -0.003202  -0.024201   0.425245  -0.024397   0.000000   0.000000
    22  H   -0.008327  -0.036520  -0.024397   0.445732   0.000000  -0.000000
    23  H   -0.000000  -0.000000   0.000000   0.000000   0.345067   0.057948
    24  C    0.000003  -0.000000   0.000000  -0.000000   0.057948  13.137519
    25  Cl   0.000000  -0.000000   0.000000  -0.000000  -0.001037  -0.505220
    26  H   -0.000000   0.000000  -0.000000   0.000000   0.000039   0.017413
    27  H   -0.000000  -0.000000  -0.000000   0.000000  -0.000064   0.003717
    28  F   -0.000000  -0.000000   0.000000  -0.000000   0.000185   0.043214
    29  F    0.000000  -0.000000  -0.000000  -0.000000   0.000245   0.088812
    30  F    0.000000   0.000000  -0.000000  -0.000000   0.013635   0.249811
              25         26         27         28         29         30
     1  C    0.207160  -0.051602   0.039942   0.028880  -0.005950   0.198872
     2  N   -0.002734  -0.002024  -0.011935   0.000450   0.000539   0.000079
     3  C   -0.029486  -0.000958   0.006078   0.002918  -0.000205   0.003860
     4  O    0.000256  -0.000003  -0.000038   0.000085  -0.000032  -0.000904
     5  N    0.000082  -0.000039  -0.000601  -0.000013   0.000017  -0.000069
     6  C   -0.000539  -0.000012  -0.000170   0.000019   0.000003   0.000038
     7  C   -0.000002   0.000001   0.000035  -0.000001  -0.000000   0.000005
     8  C   -0.000001  -0.000000  -0.000000  -0.000000   0.000000  -0.000000
     9  C   -0.052410  -0.031533   0.004201   0.064549  -0.009119   0.169626
    10  C    0.800547   0.133901  -0.018436   0.106434   0.117426  -0.318120
    11  C   -1.554539   0.130449  -0.066925  -0.151169  -0.102982  -0.157232
    12  C   -0.095722   0.116696   0.050351   0.100052   0.079429  -0.009372
    13  C    0.135572   0.022072   0.321831  -0.030568  -0.002176   0.001554
    14  H    0.000039  -0.000010   0.004290   0.000002   0.000001   0.000001
    15  H   -0.000005   0.000000   0.000015  -0.000000   0.000000   0.000000
    16  H   -0.000000   0.000000  -0.000000  -0.000000   0.000000  -0.000000
    17  H    0.000000   0.000000   0.000000   0.000000  -0.000000   0.000000
    18  H    0.000000  -0.000000  -0.000000  -0.000000   0.000000  -0.000000
    19  H    0.000000  -0.000000  -0.000000  -0.000000   0.000000   0.000000
    20  H   -0.000000   0.000000  -0.000000  -0.000000  -0.000000   0.000000
    21  H    0.000000  -0.000000  -0.000000   0.000000  -0.000000  -0.000000
    22  H   -0.000000   0.000000   0.000000  -0.000000  -0.000000  -0.000000
    23  H   -0.001037   0.000039  -0.000064   0.000185   0.000245   0.013635
    24  C   -0.505220   0.017413   0.003717   0.043214   0.088812   0.249811
    25  Cl  17.744526  -0.014452   0.000239  -0.020020  -0.025579   0.011337
    26  H   -0.014452   0.361275  -0.003617  -0.000036  -0.000035   0.000027
    27  H    0.000239  -0.003617   0.365982   0.000004   0.000002  -0.000006
    28  F   -0.020020  -0.000036   0.000004   8.991420  -0.043136  -0.034555
    29  F   -0.025579  -0.000035   0.000002  -0.043136   8.992747  -0.033299
    30  F    0.011337   0.000027  -0.000006  -0.034555  -0.033299   9.046543
 Mulliken charges:
               1
     1  C   -0.848072
     2  N   -0.317821
     3  C    0.083529
     4  O   -0.528285
     5  N   -0.408333
     6  C   -0.506690
     7  C   -0.161581
     8  C   -1.043231
     9  C   -0.068545
    10  C   -1.098956
    11  C    0.878181
    12  C   -0.418169
    13  C   -0.044927
    14  H    0.425822
    15  H    0.451681
    16  H    0.277419
    17  H    0.277470
    18  H    0.268610
    19  H    0.267070
    20  H    0.269933
    21  H    0.280162
    22  H    0.269258
    23  H    0.328459
    24  C    0.594729
    25  Cl   0.401988
    26  H    0.322447
    27  H    0.305106
    28  F   -0.058714
    29  F   -0.056708
    30  F   -0.141831
 Sum of Mulliken charges =  -0.00000
 Mulliken charges with hydrogens summed into heavy atoms:
               1
     1  C   -0.848072
     2  N    0.108001
     3  C    0.083529
     4  O   -0.528285
     5  N    0.043348
     6  C    0.048198
     7  C    0.374099
     8  C   -0.223878
     9  C    0.259913
    10  C   -1.098956
    11  C    0.878181
    12  C   -0.095721
    13  C    0.260180
    24  C    0.594729
    25  Cl   0.401988
    28  F   -0.058714
    29  F   -0.056708
    30  F   -0.141831
 Electronic spatial extent (au):  <R**2>=           8092.7987
 Charge=             -0.0000 electrons
 Dipole moment (field-independent basis, Debye):
    X=             -8.2051    Y=             -8.7244    Z=             -2.3729  Tot=             12.2094
 Quadrupole moment (field-independent basis, Debye-Ang):
   XX=            -99.5890   YY=           -101.8059   ZZ=           -115.7627
   XY=              6.4826   XZ=              5.7247   YZ=              0.2086
 Traceless Quadrupole moment (field-independent basis, Debye-Ang):
   XX=              6.1302   YY=              3.9133   ZZ=            -10.0435
   XY=              6.4826   XZ=              5.7247   YZ=              0.2086
 Octapole moment (field-independent basis, Debye-Ang**2):
  XXX=           -161.3147  YYY=            -26.2905  ZZZ=             -0.8398  XYY=              2.0707
  XXY=            -40.6977  XXZ=            -14.8936  XZZ=              6.0905  YZZ=             11.7874
  YYZ=             -7.0418  XYZ=             -3.8895
 Hexadecapole moment (field-independent basis, Debye-Ang**3):
 XXXX=          -8352.3613 YYYY=          -1125.7167 ZZZZ=           -240.1414 XXXY=            166.7771
 XXXZ=             68.9868 YYYX=             88.2078 YYYZ=              0.7303 ZZZX=             -4.2966
 ZZZY=             -1.5923 XXYY=          -1669.0276 XXZZ=          -1550.1781 YYZZ=           -259.1501
 XXYZ=             10.6415 YYXZ=             26.2671 ZZXY=             34.8603
 N-N= 1.445887856243D+03 E-N=-6.123102248862D+03  KE= 1.366857935581D+03
 D1PCM: PCM CHGder 1st derivatives, ID1Alg=3 FixD1E=F DoIter=F DoCFld=F I1PDM=0.
 Calling FoFJK, ICntrl=      2127 FMM=F ISym2X=0 I1Cent= 0 IOpClX= 0 NMat=1 NMatS=1 NMatT=0.
 ***** Axes restored to original set *****
 -------------------------------------------------------------------
 Center     Atomic                   Forces (Hartrees/Bohr)
 Number     Number              X              Y              Z
 -------------------------------------------------------------------
      1        6           0.000000896    0.000000225    0.000002368
      2        7           0.000007824    0.000001585   -0.000001781
      3        6          -0.000009841   -0.000001559   -0.000002176
      4        8          -0.000000493    0.000000455    0.000001996
      5        7           0.000002670   -0.000000142    0.000003858
      6        6           0.000000275    0.000003427    0.000001286
      7        6           0.000002272    0.000003508   -0.000001214
      8        6           0.000001289    0.000007229   -0.000000299
      9        6          -0.000000810   -0.000002234   -0.000002521
     10        6           0.000001256   -0.000003501    0.000000577
     11        6          -0.000001948   -0.000005008    0.000002102
     12        6           0.000000956   -0.000005425    0.000000377
     13        6           0.000001215   -0.000002731    0.000000267
     14        1           0.000004253   -0.000000010    0.000000168
     15        1           0.000001384    0.000003172   -0.000001272
     16        1           0.000000173    0.000004092   -0.000001090
     17        1           0.000000012    0.000002859   -0.000001365
     18        1           0.000003454    0.000004068   -0.000000139
     19        1           0.000000537    0.000005966    0.000000167
     20        1           0.000000310    0.000005675   -0.000001191
     21        1           0.000002426    0.000006783   -0.000000539
     22        1           0.000000100    0.000007527   -0.000000234
     23        1          -0.000002803   -0.000001965   -0.000000698
     24        6          -0.000003530   -0.000007817   -0.000001997
     25       17          -0.000000525   -0.000007223   -0.000000185
     26        1           0.000001695   -0.000005786    0.000000664
     27        1           0.000001854   -0.000002988    0.000000771
     28        9          -0.000006616   -0.000007649   -0.000004613
     29        9          -0.000003043    0.000001002    0.000003484
     30        9          -0.000005243   -0.000003534    0.000003229
 -------------------------------------------------------------------
 Cartesian Forces:  Max     0.000009841 RMS     0.000003406

 GradGradGradGradGradGradGradGradGradGradGradGradGradGradGradGradGradGrad
 Berny optimization.
 FormGI is forming the generalized inverse of G from B-inverse, IUseBI=4.
 Internal  Forces:  Max     0.000009169 RMS     0.000001485
 Search for a local minimum.
 Step number   1 out of a maximum of  157
 All quantities printed in internal units (Hartrees-Bohrs-Radians)
 Mixed Optimization -- En-DIIS/RFO-DIIS
 Second derivative matrix not updated -- first step.
 ITU=  0
     Eigenvalues ---    0.00453   0.00507   0.00715   0.00930   0.01524
     Eigenvalues ---    0.01605   0.01713   0.01912   0.01951   0.02009
     Eigenvalues ---    0.02141   0.02151   0.02170   0.02193   0.02200
     Eigenvalues ---    0.02217   0.02246   0.02270   0.02390   0.03775
     Eigenvalues ---    0.04495   0.04957   0.05561   0.05567   0.05573
     Eigenvalues ---    0.08135   0.09161   0.10625   0.10649   0.12039
     Eigenvalues ---    0.12641   0.15729   0.15997   0.15999   0.15999
     Eigenvalues ---    0.16000   0.16000   0.16000   0.16000   0.21889
     Eigenvalues ---    0.21916   0.22001   0.22100   0.22371   0.23480
     Eigenvalues ---    0.24607   0.24970   0.24998   0.25000   0.25000
     Eigenvalues ---    0.25000   0.25000   0.25000   0.25000   0.30017
     Eigenvalues ---    0.30406   0.30993   0.31976   0.34294   0.34310
     Eigenvalues ---    0.34352   0.34403   0.34464   0.34466   0.34638
     Eigenvalues ---    0.35430   0.35637   0.36119   0.37270   0.42592
     Eigenvalues ---    0.42872   0.45486   0.45768   0.45886   0.46295
     Eigenvalues ---    0.46613   0.47440   0.47847   0.48500   0.55617
     Eigenvalues ---    0.56237   0.56259   0.57571   0.89560
 RFO step:  Lambda= 0.00000000D+00 EMin= 4.52987557D-03
 Linear search not attempted -- first point.
 Iteration  1 RMS(Cart)=  0.00009903 RMS(Int)=  0.00000000
 Iteration  2 RMS(Cart)=  0.00000001 RMS(Int)=  0.00000000
 Variable       Old X    -DE/DX   Delta X   Delta X   Delta X     New X
                                 (Linear)    (Quad)   (Total)
    R1        2.64260   0.00000   0.00000   0.00000   0.00000   2.64261
    R2        2.63952   0.00000   0.00000   0.00000   0.00000   2.63952
    R3        2.64082   0.00000   0.00000   0.00000   0.00000   2.64082
    R4        2.61410  -0.00001   0.00000  -0.00002  -0.00002   2.61408
    R5        1.91415  -0.00000   0.00000  -0.00000  -0.00000   1.91415
    R6        2.33137  -0.00000   0.00000  -0.00000  -0.00000   2.33136
    R7        2.54588   0.00000   0.00000   0.00000   0.00000   2.54588
    R8        2.75442   0.00000   0.00000   0.00000   0.00000   2.75442
    R9        1.91094  -0.00000   0.00000  -0.00000  -0.00000   1.91094
   R10        2.87161   0.00000   0.00000   0.00000   0.00000   2.87161
   R11        2.06741   0.00000   0.00000   0.00000   0.00000   2.06741
   R12        2.06655   0.00000   0.00000   0.00000   0.00000   2.06655
   R13        2.87930   0.00000   0.00000   0.00000   0.00000   2.87930
   R14        2.06811   0.00000   0.00000   0.00000   0.00000   2.06811
   R15        2.06837   0.00000   0.00000   0.00000   0.00000   2.06837
   R16        2.06555   0.00000   0.00000   0.00000   0.00000   2.06555
   R17        2.06267   0.00000   0.00000   0.00000   0.00000   2.06267
   R18        2.06550   0.00000   0.00000   0.00000   0.00000   2.06550
   R19        2.62736   0.00000   0.00000   0.00000   0.00000   2.62736
   R20        2.03896  -0.00000   0.00000  -0.00000  -0.00000   2.03895
   R21        2.63432   0.00000   0.00000   0.00000   0.00000   2.63432
   R22        2.84188   0.00000   0.00000   0.00000   0.00000   2.84188
   R23        2.62138  -0.00000   0.00000  -0.00000  -0.00000   2.62138
   R24        3.29725  -0.00000   0.00000  -0.00000  -0.00000   3.29725
   R25        2.61817  -0.00000   0.00000  -0.00000  -0.00000   2.61817
   R26        2.04652   0.00000   0.00000   0.00000   0.00000   2.04652
   R27        2.04982   0.00000   0.00000   0.00000   0.00000   2.04982
   R28        2.54049   0.00001   0.00000   0.00001   0.00001   2.54050
   R29        2.54030   0.00000   0.00000   0.00001   0.00001   2.54031
   R30        2.52916  -0.00000   0.00000  -0.00000  -0.00000   2.52916
    A1        2.14397   0.00000   0.00000   0.00001   0.00001   2.14397
    A2        2.06117  -0.00000   0.00000  -0.00000  -0.00000   2.06117
    A3        2.07705  -0.00000   0.00000  -0.00000  -0.00000   2.07705
    A4        2.20026   0.00000   0.00000   0.00000   0.00000   2.20026
    A5        2.01448   0.00000   0.00000   0.00001   0.00001   2.01449
    A6        2.03726  -0.00000   0.00000  -0.00001  -0.00001   2.03725
    A7        2.14391   0.00000   0.00000   0.00001   0.00001   2.14392
    A8        1.99900  -0.00000   0.00000  -0.00001  -0.00001   1.99899
    A9        2.14027   0.00000   0.00000   0.00001   0.00001   2.14027
   A10        2.11754  -0.00000   0.00000  -0.00000  -0.00000   2.11754
   A11        2.09442  -0.00000   0.00000  -0.00000  -0.00000   2.09442
   A12        2.07095   0.00000   0.00000   0.00000   0.00000   2.07095
   A13        1.92478   0.00000   0.00000   0.00001   0.00001   1.92478
   A14        1.91246  -0.00000   0.00000  -0.00000  -0.00000   1.91246
   A15        1.90704  -0.00000   0.00000   0.00000   0.00000   1.90704
   A16        1.92266  -0.00000   0.00000  -0.00001  -0.00001   1.92265
   A17        1.92227  -0.00000   0.00000   0.00000   0.00000   1.92228
   A18        1.87388   0.00000   0.00000  -0.00000  -0.00000   1.87388
   A19        1.93953  -0.00000   0.00000  -0.00001  -0.00001   1.93952
   A20        1.90618   0.00000   0.00000   0.00001   0.00001   1.90619
   A21        1.90685  -0.00000   0.00000  -0.00001  -0.00001   1.90684
   A22        1.92119   0.00000   0.00000   0.00001   0.00001   1.92120
   A23        1.92061   0.00000   0.00000   0.00000   0.00000   1.92061
   A24        1.86799  -0.00000   0.00000   0.00000   0.00000   1.86800
   A25        1.93786  -0.00000   0.00000  -0.00001  -0.00001   1.93785
   A26        1.93895   0.00000   0.00000   0.00000   0.00000   1.93895
   A27        1.93841  -0.00000   0.00000  -0.00000  -0.00000   1.93841
   A28        1.88189   0.00000   0.00000   0.00000   0.00000   1.88189
   A29        1.88228   0.00000   0.00000   0.00000   0.00000   1.88228
   A30        1.88202   0.00000   0.00000   0.00000   0.00000   1.88203
   A31        2.09550  -0.00000   0.00000  -0.00000  -0.00000   2.09550
   A32        2.09793   0.00000   0.00000   0.00000   0.00000   2.09793
   A33        2.08970  -0.00000   0.00000  -0.00000  -0.00000   2.08970
   A34        2.10022   0.00000   0.00000   0.00000   0.00000   2.10022
   A35        2.07402   0.00000   0.00000   0.00000   0.00000   2.07402
   A36        2.10890  -0.00000   0.00000  -0.00001  -0.00001   2.10889
   A37        2.09101   0.00000   0.00000   0.00000   0.00000   2.09101
   A38        2.12255  -0.00000   0.00000  -0.00000  -0.00000   2.12255
   A39        2.06962   0.00000   0.00000   0.00000   0.00000   2.06963
   A40        2.09290  -0.00000   0.00000  -0.00000  -0.00000   2.09290
   A41        2.09390   0.00000   0.00000   0.00000   0.00000   2.09390
   A42        2.09634   0.00000   0.00000   0.00000   0.00000   2.09634
   A43        2.10945   0.00000   0.00000   0.00000   0.00000   2.10945
   A44        2.08749   0.00000   0.00000   0.00000   0.00000   2.08749
   A45        2.08625  -0.00000   0.00000  -0.00001  -0.00001   2.08624
   A46        1.95787  -0.00000   0.00000  -0.00001  -0.00001   1.95787
   A47        1.95876   0.00001   0.00000   0.00002   0.00002   1.95878
   A48        1.96068  -0.00000   0.00000  -0.00002  -0.00002   1.96066
   A49        1.86028   0.00000   0.00000   0.00002   0.00002   1.86030
   A50        1.85963   0.00000   0.00000   0.00002   0.00002   1.85965
   A51        1.85940  -0.00000   0.00000  -0.00003  -0.00003   1.85937
    D1       -0.52388   0.00000   0.00000   0.00004   0.00004  -0.52384
    D2        2.89369   0.00000   0.00000   0.00003   0.00003   2.89372
    D3        2.66614  -0.00000   0.00000   0.00000   0.00000   2.66614
    D4       -0.19948  -0.00000   0.00000  -0.00001  -0.00001  -0.19948
    D5       -3.11574   0.00000   0.00000   0.00001   0.00001  -3.11572
    D6        0.01423   0.00000   0.00000   0.00000   0.00000   0.01423
    D7       -0.02299   0.00000   0.00000   0.00005   0.00005  -0.02294
    D8        3.10698   0.00000   0.00000   0.00004   0.00004   3.10701
    D9        3.10772   0.00000   0.00000   0.00001   0.00001   3.10773
   D10       -0.03623  -0.00000   0.00000  -0.00000  -0.00000  -0.03624
   D11        0.01264  -0.00000   0.00000  -0.00002  -0.00002   0.01262
   D12       -3.13131  -0.00000   0.00000  -0.00003  -0.00003  -3.13134
   D13        0.03905   0.00000   0.00000   0.00005   0.00005   0.03910
   D14       -3.10050  -0.00000   0.00000  -0.00004  -0.00004  -3.10054
   D15        2.90149   0.00000   0.00000   0.00006   0.00006   2.90155
   D16       -0.23807  -0.00000   0.00000  -0.00003  -0.00003  -0.23810
   D17        3.12014   0.00000   0.00000   0.00008   0.00008   3.12021
   D18       -0.04711   0.00000   0.00000   0.00006   0.00006  -0.04705
   D19       -0.01942  -0.00000   0.00000  -0.00002  -0.00002  -0.01944
   D20        3.09652  -0.00000   0.00000  -0.00003  -0.00003   3.09648
   D21       -3.10477  -0.00000   0.00000  -0.00003  -0.00003  -3.10480
   D22        1.05915  -0.00000   0.00000  -0.00002  -0.00002   1.05913
   D23       -0.98949   0.00000   0.00000  -0.00002  -0.00002  -0.98951
   D24        0.06214  -0.00000   0.00000  -0.00001  -0.00001   0.06213
   D25       -2.05713   0.00000   0.00000  -0.00000  -0.00000  -2.05713
   D26        2.17742   0.00000   0.00000  -0.00000  -0.00000   2.17742
   D27        3.14094   0.00000   0.00000   0.00009   0.00009   3.14103
   D28        1.01812   0.00000   0.00000   0.00008   0.00008   1.01821
   D29       -1.01972   0.00000   0.00000   0.00008   0.00008  -1.01964
   D30       -1.02906   0.00000   0.00000   0.00009   0.00009  -1.02897
   D31        3.13132   0.00000   0.00000   0.00008   0.00008   3.13140
   D32        1.09348   0.00000   0.00000   0.00008   0.00008   1.09355
   D33        1.03476   0.00000   0.00000   0.00008   0.00008   1.03484
   D34       -1.08806   0.00000   0.00000   0.00007   0.00007  -1.08798
   D35       -3.12590  -0.00000   0.00000   0.00007   0.00007  -3.12583
   D36       -1.04609  -0.00000   0.00000   0.00002   0.00002  -1.04607
   D37       -3.14026  -0.00000   0.00000   0.00002   0.00002  -3.14024
   D38        1.04821  -0.00000   0.00000   0.00002   0.00002   1.04823
   D39        1.06793   0.00000   0.00000   0.00003   0.00003   1.06797
   D40       -1.02624   0.00000   0.00000   0.00003   0.00003  -1.02620
   D41       -3.12095   0.00000   0.00000   0.00003   0.00003  -3.12092
   D42        3.12262   0.00000   0.00000   0.00004   0.00004   3.12266
   D43        1.02845   0.00000   0.00000   0.00004   0.00004   1.02849
   D44       -1.06627   0.00000   0.00000   0.00004   0.00004  -1.06623
   D45        0.01503  -0.00000   0.00000  -0.00004  -0.00004   0.01499
   D46       -3.13760  -0.00000   0.00000   0.00000   0.00000  -3.13760
   D47       -3.11500  -0.00000   0.00000  -0.00002  -0.00002  -3.11502
   D48        0.01556   0.00000   0.00000   0.00002   0.00002   0.01558
   D49        0.00370  -0.00000   0.00000  -0.00000  -0.00000   0.00370
   D50       -3.13674   0.00000   0.00000   0.00005   0.00005  -3.13669
   D51       -3.12664  -0.00000   0.00000  -0.00005  -0.00005  -3.12668
   D52        0.01611   0.00000   0.00000   0.00001   0.00001   0.01612
   D53        2.08989  -0.00000   0.00000   0.00004   0.00004   2.08993
   D54       -2.09936   0.00000   0.00000   0.00007   0.00007  -2.09929
   D55       -0.00457  -0.00000   0.00000   0.00003   0.00003  -0.00454
   D56       -1.06279  -0.00000   0.00000   0.00008   0.00008  -1.06272
   D57        1.03115   0.00000   0.00000   0.00011   0.00011   1.03125
   D58        3.12593  -0.00000   0.00000   0.00007   0.00007   3.12600
   D59       -0.01412   0.00000   0.00000   0.00003   0.00003  -0.01409
   D60        3.13752   0.00000   0.00000   0.00003   0.00003   3.13755
   D61        3.12635  -0.00000   0.00000  -0.00003  -0.00003   3.12633
   D62       -0.00519  -0.00000   0.00000  -0.00002  -0.00002  -0.00522
   D63        0.00591  -0.00000   0.00000  -0.00002  -0.00002   0.00589
   D64       -3.13332  -0.00000   0.00000  -0.00001  -0.00001  -3.13333
   D65        3.13744  -0.00000   0.00000  -0.00002  -0.00002   3.13742
   D66       -0.00179  -0.00000   0.00000  -0.00001  -0.00001  -0.00180
         Item               Value     Threshold  Converged?
 Maximum Force            0.000009     0.000450     YES
 RMS     Force            0.000001     0.000300     YES
 Maximum Displacement     0.000400     0.001800     YES
 RMS     Displacement     0.000099     0.001200     YES
 Predicted change in Energy=-1.264494D-09
 Optimization completed.
    -- Stationary point found.
                           ----------------------------
                           !   Optimized Parameters   !
                           ! (Angstroms and Degrees)  !
 --------------------------                            --------------------------
 ! Name  Definition              Value          Derivative Info.                !
 --------------------------------------------------------------------------------
 ! R1    R(1,2)                  1.3984         -DE/DX =    0.0                 !
 ! R2    R(1,9)                  1.3968         -DE/DX =    0.0                 !
 ! R3    R(1,13)                 1.3975         -DE/DX =    0.0                 !
 ! R4    R(2,3)                  1.3833         -DE/DX =    0.0                 !
 ! R5    R(2,14)                 1.0129         -DE/DX =    0.0                 !
 ! R6    R(3,4)                  1.2337         -DE/DX =    0.0                 !
 ! R7    R(3,5)                  1.3472         -DE/DX =    0.0                 !
 ! R8    R(5,6)                  1.4576         -DE/DX =    0.0                 !
 ! R9    R(5,15)                 1.0112         -DE/DX =    0.0                 !
 ! R10   R(6,7)                  1.5196         -DE/DX =    0.0                 !
 ! R11   R(6,16)                 1.094          -DE/DX =    0.0                 !
 ! R12   R(6,17)                 1.0936         -DE/DX =    0.0                 !
 ! R13   R(7,8)                  1.5237         -DE/DX =    0.0                 !
 ! R14   R(7,18)                 1.0944         -DE/DX =    0.0                 !
 ! R15   R(7,19)                 1.0945         -DE/DX =    0.0                 !
 ! R16   R(8,20)                 1.093          -DE/DX =    0.0                 !
 ! R17   R(8,21)                 1.0915         -DE/DX =    0.0                 !
 ! R18   R(8,22)                 1.093          -DE/DX =    0.0                 !
 ! R19   R(9,10)                 1.3903         -DE/DX =    0.0                 !
 ! R20   R(9,23)                 1.079          -DE/DX =    0.0                 !
 ! R21   R(10,11)                1.394          -DE/DX =    0.0                 !
 ! R22   R(10,24)                1.5039         -DE/DX =    0.0                 !
 ! R23   R(11,12)                1.3872         -DE/DX =    0.0                 !
 ! R24   R(11,25)                1.7448         -DE/DX =    0.0                 !
 ! R25   R(12,13)                1.3855         -DE/DX =    0.0                 !
 ! R26   R(12,26)                1.083          -DE/DX =    0.0                 !
 ! R27   R(13,27)                1.0847         -DE/DX =    0.0                 !
 ! R28   R(24,28)                1.3444         -DE/DX =    0.0                 !
 ! R29   R(24,29)                1.3443         -DE/DX =    0.0                 !
 ! R30   R(24,30)                1.3384         -DE/DX =    0.0                 !
 ! A1    A(2,1,9)              122.8404         -DE/DX =    0.0                 !
 ! A2    A(2,1,13)             118.0965         -DE/DX =    0.0                 !
 ! A3    A(9,1,13)             119.0062         -DE/DX =    0.0                 !
 ! A4    A(1,2,3)              126.0657         -DE/DX =    0.0                 !
 ! A5    A(1,2,14)             115.421          -DE/DX =    0.0                 !
 ! A6    A(3,2,14)             116.7267         -DE/DX =    0.0                 !
 ! A7    A(2,3,4)              122.8371         -DE/DX =    0.0                 !
 ! A8    A(2,3,5)              114.5345         -DE/DX =    0.0                 !
 ! A9    A(4,3,5)              122.6283         -DE/DX =    0.0                 !
 ! A10   A(3,5,6)              121.3261         -DE/DX =    0.0                 !
 ! A11   A(3,5,15)             120.0014         -DE/DX =    0.0                 !
 ! A12   A(6,5,15)             118.6567         -DE/DX =    0.0                 !
 ! A13   A(5,6,7)              110.2816         -DE/DX =    0.0                 !
 ! A14   A(5,6,16)             109.5758         -DE/DX =    0.0                 !
 ! A15   A(5,6,17)             109.2654         -DE/DX =    0.0                 !
 ! A16   A(7,6,16)             110.1605         -DE/DX =    0.0                 !
 ! A17   A(7,6,17)             110.1381         -DE/DX =    0.0                 !
 ! A18   A(16,6,17)            107.3656         -DE/DX =    0.0                 !
 ! A19   A(6,7,8)              111.1268         -DE/DX =    0.0                 !
 ! A20   A(6,7,18)             109.2163         -DE/DX =    0.0                 !
 ! A21   A(6,7,19)             109.2547         -DE/DX =    0.0                 !
 ! A22   A(8,7,18)             110.0763         -DE/DX =    0.0                 !
[...]
 ,-0.00040008,-0.00025044,0.00016124,0.00003196,-0.00012952,0.00011477,
 -0.00011934,-0.00003753,0.00003469,-0.00009660,-0.00001170,0.00005774,
 0.00000217,0.00000828,-0.00000371,-0.00000047,0.00000672,-0.00001200,-
 0.00000182,-0.00000014,0.00000429,-0.00003037,-0.00000343,0.00001085,-
 0.00000445,-0.00000568,0.00000059,-0.00157496,-0.00064746,-0.00106168,
 -0.00586291,0.58943380,-0.00138744,0.00192686,0.00661249,0.00160013,-0
 .00054836,0.00017415,-0.00130124,-0.00049109,0.00061143,0.00060267,0.0
 0015308,-0.00042889,0.00058228,-0.00016090,0.00001499,-0.00011471,-0.0
 0006010,0.00010513,0.00001312,0.00003194,-0.00002889,0.00000638,-0.000
 01417,0.00001256,-0.00420339,0.00309848,0.00163637,-0.00861735,0.04018
 852,-0.07559818,0.00412824,0.00564025,-0.00322825,0.00064263,0.0004108
 8,0.00522859,0.00022453,-0.00115268,-0.00082555,0.00017845,0.00005932,
 -0.00014265,0.00000059,0.00004862,-0.00003177,0.00003530,0.00001017,-0
 .00000985,0.00003419,0.00000219,-0.00002290,0.00000164,-0.00000442,0.0
 0000169,-0.00000133,-0.00000029,-0.00000039,0.00000204,-0.00000079,-0.
 00000371,0.00000950,0.00000178,-0.00000354,0.00000070,0.00000034,0.000
 00095,0.00034699,-0.00096093,-0.00377466,0.00210849,-0.03619695,0.4786
 1276,0.00295224,-0.00284908,0.00114465,-0.00603138,0.00059143,0.000210
 25,0.00375258,0.00201694,-0.00172721,-0.00088406,-0.00086692,0.0010693
 9,-0.00165520,0.00040407,-0.00006048,0.00027820,0.00013576,-0.00021652
 ,-0.00002610,-0.00008843,0.00007902,-0.00002318,0.00004189,-0.00003043
 ,-0.00222288,-0.00386290,0.00039787,-0.03312243,0.01174047,-0.00447277
 ,-0.16148348,0.03149219,-0.01246938,-0.02884974,0.01004659,-0.00387129
 ,0.00350533,0.00249756,-0.00043918,-0.00025049,-0.00040605,-0.00002899
 ,0.00002054,-0.00011811,0.00010053,-0.00010664,-0.00003073,0.00003160,
 -0.00009347,-0.00000892,0.00005170,0.00000151,0.00001020,-0.00000297,0
 .00000051,0.00000412,-0.00000962,-0.00000176,-0.00000079,0.00000384,-0
 .00002601,-0.00000236,0.00000891,-0.00000250,-0.00000305,0.00000090,-0
 .00113965,0.00113719,-0.00044444,-0.00282987,0.00554802,-0.00155161,0.
 22844619,0.00010641,0.00232635,-0.00093064,0.00145288,-0.00015852,-0.0
 0031557,-0.00081793,-0.00057593,0.00048092,0.00004262,0.00031271,-0.00
 020785,0.00039001,-0.00007085,-0.00000267,-0.00006240,-0.00003516,0.00
 005040,0.00000679,0.00001986,-0.00001941,0.00000536,-0.00000921,0.0000
 0722,0.00038355,-0.00326144,0.00226211,-0.01213781,0.00828728,-0.00205
 994,0.03251538,-0.04644917,0.00904026,0.03594645,-0.00698287,0.0040033
 4,-0.00322345,-0.00363282,0.00259538,-0.00000425,0.00010334,0.00000464
 ,-0.00000688,0.00002745,-0.00002437,0.00002403,0.00000756,-0.00000665,
 0.00002094,0.00000141,-0.00001268,-0.00000076,-0.00000197,0.00000055,-
 0.00000038,-0.00000070,0.00000219,0.00000039,0.00000002,-0.00000103,0.
 00000605,0.00000067,-0.00000203,0.00000052,0.00000080,-0.00000019,-0.0
 0040658,0.00025188,0.00007130,0.00158756,-0.00258770,-0.00026321,-0.04
 978888,0.05688719,0.00026413,-0.00099276,-0.00040309,-0.00075088,-0.00
 031565,-0.00044899,0.00043239,0.00013384,-0.00026070,-0.00022119,-0.00
 008692,0.00013630,-0.00015123,0.00007111,0.00003122,0.00002842,0.00001
 989,-0.00000958,-0.00000191,-0.00001154,0.00000611,-0.00000214,0.00000
 591,-0.00000268,-0.00060450,0.00232406,0.00313140,0.00341724,-0.001473
 77,0.00266100,-0.01308392,0.00879615,-0.02323369,-0.01177355,0.0035867
 0,0.00206304,0.00117586,0.00259451,0.00417306,-0.00001311,-0.00000955,
 0.00001085,0.00000672,-0.00000405,0.00001688,-0.00000766,-0.00000641,0
 .00000221,-0.00001645,-0.00000110,0.00000058,0.00000012,0.00000071,-0.
 00000026,-0.00000018,0.00000077,-0.00000130,-0.00000008,-0.00000010,0.
 00000014,-0.00000259,-0.00000014,0.00000087,-0.00000063,-0.00000052,0.
 00000012,0.00014612,0.00008392,0.00054336,-0.00052761,-0.00003344,-0.0
 0283493,0.02009973,-0.01461443,0.01698443,-0.00282891,0.00249113,-0.00
 082293,-0.00144170,-0.00102859,0.00065616,0.00037951,0.00045996,-0.000
 70511,-0.00007121,-0.00021554,0.00020744,-0.00035452,0.00000881,0.0001
 0599,0.00004738,0.00006337,-0.00004846,-0.00001195,-0.00002153,0.00002
 365,-0.00000619,0.00001071,-0.00000883,-0.00046278,0.00080341,-0.00021
 925,0.00047656,0.00176075,-0.00063657,0.00708227,0.00732986,-0.0022738
 8,-0.21715161,-0.14219480,0.04169591,-0.01620579,-0.01927495,0.0055158
 4,0.00004825,-0.00005208,0.00010064,0.00001234,-0.00002642,0.00001732,
 -0.00001533,-0.00000780,0.00000475,-0.00001786,-0.00000269,0.00001098,
 0.00000048,0.00000243,-0.00000040,0.00000024,0.00000066,-0.00000248,-0
 .00000007,-0.00000020,0.00000100,-0.00000643,-0.00000079,0.00000212,-0
 .00000041,-0.00000090,0.00000018,0.00004067,-0.00009426,0.00003581,0.0
 0045380,0.00031220,-0.00008310,0.00120298,0.00090805,-0.00015831,0.227
 43134,0.00284435,0.00064514,0.00216360,0.00026415,0.00049134,-0.000303
 10,0.00010972,-0.00010581,0.00015876,-0.00001199,0.00003424,-0.0000140
 5,0.00006875,0.00001236,-0.00005475,-0.00000215,-0.00002079,0.00001201
 ,0.00000448,0.00000441,-0.00000474,0.00000178,-0.00000225,0.00000204,0
 .00085876,-0.00015463,-0.00033679,0.00217855,-0.00377951,0.00292081,-0
 .02085439,-0.01425648,0.00509627,-0.14021770,-0.17980584,0.04247991,0.
 00874731,0.01073485,-0.00177501,-0.00004342,-0.00001270,-0.00003454,-0
 .00000249,0.00000285,-0.00000249,0.00000049,0.00000212,-0.00000057,0.0
 0000087,0.00000093,-0.00000184,-0.00000002,-0.00000014,0.,-0.00000023,
 0.00000001,0.00000015,0.,0.00000007,-0.00000012,0.00000123,0.00000031,
 -0.00000050,-0.00000007,0.00000007,-0.00000004,-0.00008180,-0.00000667
 ,-0.00015512,-0.00129657,0.00061704,0.00001008,-0.00092486,0.00017661,
 -0.00083881,0.14863732,0.18624316,-0.00092152,0.00190855,0.00688472,-0
 .00011303,-0.00022158,0.00007003,-0.00003683,-0.00009826,-0.00008358,-
 0.00006202,0.00002556,0.00001095,-0.00003042,-0.00001317,0.00000454,0.
 00000303,0.00001063,-0.00000067,-0.00000034,-0.00000144,0.00000443,-0.
 00000074,0.00000165,-0.00000065,-0.00042885,-0.00010089,-0.00115029,-0
 .00088687,0.00294672,0.00464053,0.00667268,0.00562776,0.00134958,0.040
 81513,0.04246046,-0.05004944,-0.00263493,-0.00230112,0.00489004,0.0000
 0859,0.00002175,0.00002352,0.00000440,-0.00000508,0.00000064,-0.000000
 09,-0.00000047,-0.00000059,-0.00000415,0.00000025,0.00000069,-0.000000
 16,0.00000024,0.00000006,-0.00000030,0.00000021,-0.00000070,0.00000024
 ,-0.00000004,-0.00000019,-0.00000084,-0.00000017,0.00000021,-0.0000001
 9,-0.00000016,0.00000012,0.00001379,-0.00013237,-0.00040955,0.00044707
 ,-0.00002959,0.00070246,0.00042075,-0.00085123,-0.00232993,-0.04340822
 ,-0.04808480,0.03994292,0.00742043,-0.02136641,0.00656299,0.00207988,-
 0.00223901,0.00082319,-0.00016417,-0.00017604,0.00026343,-0.00002583,0
 .00014981,-0.00012724,0.00011342,-0.00002389,-0.00003748,-0.00001935,-
 0.00001462,0.00002540,0.00000386,0.00000865,-0.00000720,0.00000222,-0.
 00000422,0.00000212,-0.00325539,-0.00306342,0.00085446,-0.00128171,-0.
 00007070,0.00000317,-0.00356916,0.00082135,-0.00032776,-0.00244614,0.0
 2867457,-0.00889341,-0.07143478,0.05530803,-0.01725388,-0.00110822,0.0
 0003789,-0.00015957,-0.00000905,0.00000562,-0.00001359,0.00000818,0.00
 000455,-0.00000242,0.00000743,0.00000036,-0.00000425,-0.00000007,-0.00
 000032,0.,-0.00000038,-0.00000036,0.00000077,0.00000012,0.,-0.00000041
 ,0.00000232,0.00000022,-0.00000065,0.00000031,0.00000042,-0.00000002,0
 .00045026,-0.00098826,0.00030788,-0.00008328,-0.00019978,0.00004639,-0
 .00124808,0.00119147,-0.00040128,0.00126758,-0.00044741,0.00018092,0.0
 7307048,0.00628380,-0.01303725,0.00575814,0.00150207,0.00060286,-0.001
 26168,-0.00020376,0.00003074,0.00001119,0.00002875,0.00018580,-0.00016
 446,-0.00000204,-0.00000297,0.00001193,0.00000318,0.00001191,0.0000128
 1,-0.00000018,-0.00000017,0.00000063,0.,0.00000002,-0.00000017,-0.0031
 8178,-0.00070912,0.00198708,-0.00054785,0.00032937,-0.00031457,0.00058
 476,0.00231254,0.00157281,0.00007126,-0.00286627,0.00218311,0.05373354
 ,-0.31039427,0.08359554,-0.00123799,-0.00005394,-0.00013600,-0.0000037
 1,-0.00000864,-0.00000904,0.00000420,0.00000085,-0.00000150,-0.0000008
 0,-0.00000096,0.00000023,0.,0.00000104,0.00000020,-0.00000055,0.000000
 20,-0.00000088,0.00000015,0.00000009,-0.00000001,-0.00000002,0.0000001
 7,-0.00000019,0.00000017,-0.00000019,0.,0.00047135,-0.00058511,0.00008
 280,-0.00009248,0.00007755,-0.00023271,0.00020811,-0.00019694,0.000052
 37,0.00003132,0.00013712,-0.00144172,-0.05776904,0.32439266,-0.0032798
 2,0.00576819,0.00357019,-0.00042020,-0.00199529,-0.00220440,0.00062331
 ,-0.00026724,-0.00078953,0.00001160,-0.00013257,0.00019884,-0.00012549
 ,0.00017447,0.00001068,0.00004367,0.00004892,0.00006064,0.00000281,-0.
 00000191,0.00000512,-0.00000140,0.00000111,-0.00000107,0.00111203,0.00
 217791,0.00501833,0.00031599,-0.00033122,-0.00046853,-0.00028844,0.001
 46530,0.00691490,-0.00020658,0.00226194,0.00318258,-0.01587729,0.08381
 861,-0.06375804,0.00023881,0.00017844,0.00006259,-0.00000529,-0.000032
 65,-0.00001001,0.00000161,-0.00000642,-0.00000384,-0.00002781,-0.00000
 179,0.00000152,-0.00000050,-0.00000015,0.00000003,0.00000086,0.0000006
 1,-0.00000196,0.00000020,0.00000023,-0.00000077,-0.00000151,-0.0000002
 6,0.00000013,-0.00000084,-0.00000053,0.00000029,-0.00024700,0.00011933
 ,-0.00043155,0.00004961,-0.00018250,-0.00055142,-0.00008303,0.00007390
 ,0.00001681,0.00000833,-0.00143742,-0.00413653,0.01820153,-0.09175404,
 0.05339473,0.00056498,0.00057137,0.00087415,-0.00040107,0.00016621,0.0
 0004155,0.00049173,0.00009577,-0.00022082,-0.00026400,-0.00002582,0.00
 015222,-0.00023686,0.00006472,-0.00000221,0.00004253,0.00002875,-0.000
 03533,-0.00000448,-0.00001315,0.00001266,-0.00000381,0.00000616,-0.000
 00568,0.00164953,0.00073371,-0.00057956,-0.00328316,0.00628269,-0.0213
 5616,-0.00478387,0.00075887,-0.00068583,0.00012750,0.00091643,0.000599
 07,0.00002948,0.00044975,-0.00027832,-0.00005997,-0.00002195,0.0000234
 3,0.00000204,-0.00001839,0.00001293,-0.00001324,-0.00000390,0.00000478
 ,-0.00001151,-0.00000221,0.00000798,-0.00000031,0.00000241,-0.00000053
 ,0.00000005,0.00000051,-0.00000113,-0.00000024,-0.00000032,0.00000098,
 -0.00000452,-0.00000026,0.00000135,0.,-0.00000038,0.00000018,0.0004053
 9,-0.00040203,-0.00045938,-0.11468769,0.01615427,-0.08139647,0.0000194
 6,-0.00330245,0.00228908,0.00000915,0.00022977,-0.00003473,0.00002453,
 0.00000023,-0.00011187,0.16391214,-0.00046314,-0.00127346,-0.00118979,
 0.00108750,-0.00034591,-0.00012323,-0.00094258,-0.00038385,0.00049862,
 0.00036569,0.00017799,-0.00029429,0.00043720,-0.00008983,-0.00000593,-
 0.00007528,-0.00004657,0.00006187,0.00000890,0.00002356,-0.00002297,0.
 00000629,-0.00001139,0.00000915,-0.00317342,-0.00217114,0.00192947,0.0
 2092058,-0.00118670,0.03131279,0.00205304,0.00060834,-0.00047718,0.000
 10568,0.00015413,-0.00075920,0.00098895,-0.00049606,0.00036178,0.00010
 500,0.00004229,-0.00005657,-0.00000873,0.00003039,-0.00002613,0.000028
 07,0.00000844,-0.00000840,0.00002210,0.00000297,-0.00001409,-0.0000004
 4,-0.00000216,0.00000090,0.00000007,-0.00000152,0.00000264,0.00000043,
 0.,-0.00000113,0.00000733,0.00000079,-0.00000264,0.00000083,0.00000123
 ,-0.00000006,0.00002779,0.00034630,0.00065397,0.01394227,-0.07853902,0
 .02479606,-0.00245645,-0.00137265,0.00196622,-0.00006419,-0.00007754,0
 .00002478,0.00004976,-0.00002037,0.00005239,0.00122225,0.07425913,0.00
 014965,0.00060422,0.00090097,-0.00121981,0.00054820,0.00006379,0.00109
 281,0.00039917,-0.00055880,-0.00044643,-0.00016280,0.00035877,-0.00050
 510,0.00011468,0.00000675,0.00008608,0.00005150,-0.00007613,-0.0000102
 4,-0.00002684,0.00002557,-0.00000757,0.00001273,-0.00001076,0.00283661
 ,0.00363241,-0.00243891,-0.02104108,0.00647305,-0.02228583,-0.00345415
 ,-0.00062170,0.00105512,0.00014056,0.00055296,0.00043674,-0.00052575,0
 .00039227,-0.00029972,-0.00016741,-0.00004304,0.00006966,0.00000969,-0
 .00003863,0.00002819,-0.00003067,-0.00000878,0.00001006,-0.00002618,-0
 .00000304,0.00001772,0.00000019,0.00000388,-0.00000139,0.00000028,0.00
 000118,-0.00000157,-0.00000102,-0.00000002,0.00000220,-0.00000839,-0.0
 0000103,0.00000288,-0.00000044,-0.00000076,-0.00000005,0.00041002,-0.0
 0031407,-0.00039641,-0.07936262,0.03091744,-0.20036061,0.00261987,0.00
 088613,-0.00078387,0.00005580,0.00015173,-0.00008428,-0.00000747,0.000
 05568,-0.00006735,0.13770045,-0.00237280,0.31164892,0.00057870,-0.0001
 7419,-0.00113080,-0.00046457,0.00027241,-0.00006431,0.00054789,0.00011
 398,-0.00021594,-0.00028835,-0.00001221,0.00014531,-0.00026834,0.00007
 338,-0.00001239,0.00004670,0.00002712,-0.00004062,-0.00000474,-0.00001
 519,0.00001419,-0.00000425,0.00000780,-0.00000559,0.00156145,0.0012251
 2,0.00011858,-0.00479752,0.01732662,0.01467425,-0.00493699,0.00085316,
 -0.00002223,0.00013265,0.00049778,-0.00094916,0.00006837,0.00051576,-0
 .00004631,-0.00008555,-0.00000799,0.00006829,0.00000318,-0.00001948,0.
 00001841,-0.00001549,-0.00000507,0.00000645,-0.00001313,-0.00000314,0.
 00000786,0.00000027,0.00000202,-0.00000048,-0.00000062,0.00000118,-0.0
 0000216,-0.00000008,-0.00000053,0.00000044,-0.00000507,-0.00000013,0.0
 0000148,-0.00000011,-0.00000069,0.00000043,0.00043670,-0.00009359,0.00
 066546,-0.12256599,0.06162535,0.06147306,-0.00018913,-0.00450935,-0.00
 022745,0.00000785,0.00020872,-0.00011570,0.00003040,0.00007001,0.00009
 308,0.01695626,-0.00525047,-0.00258876,0.17829538,-0.00037117,-0.00014
 836,0.00206482,0.00148159,-0.00069810,0.00031174,-0.00141263,-0.000527
 55,0.00065241,0.00053367,0.00021245,-0.00039910,0.00064207,-0.00014244
 ,0.00000944,-0.00011199,-0.00006976,0.00009158,0.00001210,0.00003561,-
 0.00003353,0.00001005,-0.00001786,0.00001305,-0.00380219,-0.00495307,-
 0.00053387,0.03049368,-0.02375330,-0.02809843,0.00351089,0.00150365,0.
 00028218,0.00004529,0.00019065,0.00073756,0.00103439,-0.00075291,-0.00
 006193,0.00024653,0.00006815,-0.00010161,-0.00001099,0.00004729,-0.000
 04273,0.00004048,0.00001282,-0.00001308,0.00003350,0.00000512,-0.00001
 989,-0.00000041,-0.00000323,0.00000102,0.00000056,-0.00000227,0.000004
 54,0.00000033,0.00000039,-0.00000132,0.00001095,0.00000096,-0.00000377
 ,0.00000112,0.00000183,-0.00000042,-0.00021348,-0.00002564,-0.00092120
 ,0.05804687,-0.13864249,-0.06019718,-0.00380799,-0.00351871,-0.0011636
 1,-0.00007695,-0.00014318,0.00005068,0.00003954,-0.00009309,-0.0000362
 9,-0.00156582,0.00584312,-0.02515984,-0.07848498,0.14570689,0.00018426
 ,0.00025866,-0.00004888,0.00037913,-0.00026469,0.00009490,-0.00038894,
 -0.00009422,0.00014441,0.00016048,0.00002192,-0.00009574,0.00018432,-0
 .00005144,0.00001084,-0.00002893,-0.00001919,0.00002192,0.00000266,0.0
 0000927,-0.00000994,0.00000330,-0.00000561,0.00000379,-0.00054158,-0.0
 0204372,0.00026282,0.00616008,-0.00398428,0.00197269,0.00155343,0.0005
 8156,0.00039969,-0.00016163,-0.00046468,0.00023395,-0.00012830,-0.0000
 6871,-0.00004640,0.00008752,0.00001779,-0.00002326,-0.00000337,0.00001
 261,-0.00001465,0.00001108,0.00000380,-0.00000491,0.00000792,0.0000025
 0,-0.00000410,0.00000038,-0.00000110,0.00000012,0.00000077,-0.00000066
 ,0.00000224,-0.00000018,0.00000046,0.00000031,0.00000331,-0.00000001,-
 0.00000101,0.00000028,0.00000060,-0.00000060,-0.00034311,0.00006371,-0
 .00000947,0.06116362,-0.06647013,-0.13261392,-0.00102718,-0.00012059,0
 .00025101,-0.00001017,-0.00008926,0.00000997,-0.00002054,-0.00004018,0
 .00000713,0.01031043,-0.03317533,-0.08328104,-0.12111620,0.10451017,0.
 22749588,0.00096666,0.00018169,0.00004447,0.00053074,-0.00017077,0.000
 00218,-0.00027142,-0.00028596,0.00023160,-0.00001806,0.00014094,-0.000
 06178,0.00012139,-0.00000778,-0.00001295,-0.00001965,-0.00001378,0.000
 01590,0.00000455,0.00000534,-0.00000680,0.00000172,-0.00000286,0.00000
 213,-0.00446874,0.00352783,-0.00116962,-0.00944105,-0.00979399,0.00245
 194,0.00312318,-0.00110272,0.00024882,-0.00092063,-0.00031982,0.000099
 78,0.00014515,0.00015267,-0.00008298,0.00002249,0.00002661,-0.00001734
 ,-0.00000565,0.00000787,-0.00000918,0.00001083,0.00000396,-0.00000155,
 0.00000749,-0.00000129,-0.00000488,-0.00000105,0.00000125,0.00000072,-
 0.00000048,-0.00000072,0.00000015,0.00000046,-0.00000079,0.00000008,0.
 00000096,0.00000081,-0.00000103,0.00000135,0.00000051,0.00000044,0.001
 79348,0.00287825,-0.00078480,-0.18456274,-0.09951691,0.02661932,0.0000
 0651,-0.00032735,0.00008486,0.00011435,-0.00027314,0.00011333,0.000164
 22,0.00004727,-0.00002637,-0.06048005,-0.02894502,-0.03569893,-0.06502
 585,-0.00632502,0.04355716,0.31819983,-0.00226995,0.00069208,-0.000227
 13,0.00171337,-0.00021012,-0.00006067,-0.00131897,-0.00055258,0.000611
 94,0.00050052,0.00025023,-0.00041492,0.00058016,-0.00012430,0.00000471
 ,-0.00010175,-0.00006518,0.00007815,0.00001103,0.00003249,-0.00002907,
 0.00000810,-0.00001601,0.00001119,-0.00093335,-0.00229967,0.00109610,-
 0.04219139,-0.02684000,0.00922303,0.00852420,-0.00580317,0.00225298,-0
 .00287559,-0.00162633,0.00035433,0.00021750,-0.00056437,0.00008211,0.0
 0010439,0.00010107,-0.00003598,-0.00001101,0.00003842,-0.00003633,0.00
 003810,0.00001244,-0.00000956,0.00003218,0.00000300,-0.00001780,-0.000
 00056,-0.00000220,0.00000130,-0.00000024,-0.00000203,0.00000368,0.0000
 0073,-0.00000024,-0.00000142,0.00000927,0.00000130,-0.00000348,0.00000
 173,0.00000189,0.,0.00040062,-0.00404035,0.00117075,-0.08563533,-0.155
 02808,0.02390520,-0.00065901,0.00045152,-0.00008337,0.00024170,-0.0007
 3709,0.00020285,0.00007122,-0.00011365,0.00003894,-0.02232717,0.004519
 48,-0.01604389,0.00575661,0.01986302,0.00141078,0.14011290,0.17205841,
 0.00070411,-0.00019862,0.00019604,-0.00053257,0.00008038,0.00005028,0.
 00039286,0.00017228,-0.00020692,-0.00015206,-0.00006263,0.00013529,-0.
 00017803,0.00004563,0.00000286,0.00003216,0.00001886,-0.00002488,-0.00
 000430,-0.00000998,0.00000890,-0.00000253,0.00000426,-0.00000378,0.000
 02039,0.00103618,-0.00022191,0.01220530,0.01013729,0.00535079,-0.00249
 997,0.00208792,0.00093134,0.00081264,0.00039292,-0.00049942,-0.0000349
 0,0.00017078,-0.00002224,-0.00002938,-0.00002902,0.00001965,0.00000239
 ,-0.00001438,0.00000943,-0.00001127,-0.00000333,0.00000280,-0.00001032
 ,-0.00000030,0.00000648,0.00000026,0.00000162,-0.00000051,0.00000034,0
 .00000013,-0.00000035,-0.00000018,0.00000029,0.00000096,-0.00000276,-0
 .00000052,0.00000104,-0.00000038,-0.00000035,-0.00000031,0.00002719,0.
 00114816,-0.00037652,0.02235128,0.02346376,-0.07325346,0.00019610,-0.0
 0004584,0.00027961,-0.00006420,0.00013860,-0.00028900,-0.00001510,0.00
 003263,-0.00001949,-0.04686322,-0.02314088,-0.00398063,0.04925081,0.00
 805859,-0.01475775,-0.03559468,-0.02348442,0.08666168\\-0.00000089,-0.
 00000025,-0.00000236,-0.00000783,-0.00000159,0.00000178,0.00000985,0.0
 0000156,0.00000218,0.00000049,-0.00000046,-0.00000199,-0.00000268,0.00
 000015,-0.00000386,-0.00000028,-0.00000343,-0.00000128,-0.00000228,-0.
 00000351,0.00000122,-0.00000129,-0.00000723,0.00000030,0.00000079,0.00
 000226,0.00000251,-0.00000124,0.00000350,-0.00000058,0.00000194,0.0000
 0500,-0.00000210,-0.00000096,0.00000544,-0.00000038,-0.00000120,0.0000
 0273,-0.00000027,-0.00000425,0.00000001,-0.00000017,-0.00000139,-0.000
 00317,0.00000127,-0.00000017,-0.00000409,0.00000109,-0.00000001,-0.000
 00286,0.00000136,-0.00000345,-0.00000407,0.00000014,-0.00000054,-0.000
 00597,-0.00000017,-0.00000031,-0.00000567,0.00000119,-0.00000243,-0.00
 000678,0.00000054,-0.00000010,-0.00000753,0.00000023,0.00000281,0.0000
 0196,0.00000070,0.00000354,0.00000782,0.00000200,0.00000052,0.00000722
 ,0.00000019,-0.00000170,0.00000579,-0.00000066,-0.00000185,0.00000299,
 -0.00000077,0.00000662,0.00000765,0.00000461,0.00000304,-0.00000100,-0
 .00000348,0.00000524,0.00000353,-0.00000323\\\@


 MOM AND DAD WENT TO ALPHA CENTAURI AND ALL
 I GOT WAS THIS DUMB T-SHIRT.
 Job cpu time:       0 days  4 hours 42 minutes  3.4 seconds.
 File lengths (MBytes):  RWF=    686 Int=      0 D2E=      0 Chk=     23 Scr=      1
 Normal termination of Gaussian 09 at Thu Nov 14 10:38:31 2019.
pbs_rusage has been removed.
Please contact help@nci.org.au if you require this functionality.
