 Entering Gaussian System, Link 0=/apps/gaussian/g09e01/g09/g09
 AtFile(1): /home/507/hio507/Basis/GTMP2LARGE.gbs
 Initial command:
 /apps/gaussian/g09e01/g09/l1.exe "/jobfs/local/3890838.r-man2/Gau-9119.inp" -scrdir="/jobfs/local/3890838.r-man2/"
 Entering Link 1 = /apps/gaussian/g09e01/g09/l1.exe PID=      9120.
  
 Copyright (c) 1988,1990,1992,1993,1995,1998,2003,2009,2015,
            Gaussian, Inc.  All Rights Reserved.
  
 This is part of the Gaussian(R) 09 program.  It is based on
 the Gaussian(R) 03 system (copyright 2003, Gaussian, Inc.),
 the Gaussian(R) 98 system (copyright 1998, Gaussian, Inc.),
 the Gaussian(R) 94 system (copyright 1995, Gaussian, Inc.),
 the Gaussian 92(TM) system (copyright 1992, Gaussian, Inc.),
 the Gaussian 90(TM) system (copyright 1990, Gaussian, Inc.),
 the Gaussian 88(TM) system (copyright 1988, Gaussian, Inc.),
 the Gaussian 86(TM) system (copyright 1986, Carnegie Mellon
 University), and the Gaussian 82(TM) system (copyright 1983,
 Carnegie Mellon University). Gaussian is a federally registered
 trademark of Gaussian, Inc.
  
 This software contains proprietary and confidential information,
 including trade secrets, belonging to Gaussian, Inc.
  
 This software is provided under written license and may be
 used, copied, transmitted, or stored only in accord with that
 written license.
  
 The following legend is applicable only to US Government
 contracts under FAR:
  
                    RESTRICTED RIGHTS LEGEND
  
 Use, reproduction and disclosure by the US Government is
 subject to restrictions as set forth in subparagraphs (a)
 and (c) of the Commercial Computer Software - Restricted
 Rights clause in FAR 52.227-19.
  
 Gaussian, Inc.
 340 Quinnipiac St., Bldg. 40, Wallingford CT 06492
  
  
 ---------------------------------------------------------------
 Warning -- This program may not be used in any manner that
 competes with the business of Gaussian, Inc. or will provide
 assistance to any competitor of Gaussian, Inc.  The licensee
 of this program is prohibited from giving any competitor of
 Gaussian, Inc. access to this program.  By using this program,
 the user acknowledges that Gaussian, Inc. is engaged in the
 business of creating and licensing software in the field of
 computational chemistry and represents and warrants to the
 licensee that it is not a competitor of Gaussian, Inc. and that
 it will not use this program in any manner prohibited above.
 ---------------------------------------------------------------
  

 Cite this work as:
 Gaussian 09, Revision E.01,
 M. J. Frisch, G. W. Trucks, H. B. Schlegel, G. E. Scuseria, 
 M. A. Robb, J. R. Cheeseman, G. Scalmani, V. Barone, B. Mennucci, 
 G. A. Petersson, H. Nakatsuji, M. Caricato, X. Li, H. P. Hratchian, 
 A. F. Izmaylov, J. Bloino, G. Zheng, J. L. Sonnenberg, M. Hada, 
 M. Ehara, K. Toyota, R. Fukuda, J. Hasegawa, M. Ishida, T. Nakajima, 
 Y. Honda, O. Kitao, H. Nakai, T. Vreven, J. A. Montgomery, Jr., 
 J. E. Peralta, F. Ogliaro, M. Bearpark, J. J. Heyd, E. Brothers, 
 K. N. Kudin, V. N. Staroverov, T. Keith, R. Kobayashi, J. Normand, 
 K. Raghavachari, A. Rendell, J. C. Burant, S. S. Iyengar, J. Tomasi, 
 M. Cossi, N. Rega, J. M. Millam, M. Klene, J. E. Knox, J. B. Cross, 
 V. Bakken, C. Adamo, J. Jaramillo, R. Gomperts, R. E. Stratmann, 
 O. Yazyev, A. J. Austin, R. Cammi, C. Pomelli, J. W. Ochterski, 
 R. L. Martin, K. Morokuma, V. G. Zakrzewski, G. A. Voth, 
 P. Salvador, J. J. Dannenberg, S. Dapprich, A. D. Daniels, 
 O. Farkas, J. B. Foresman, J. V. Ortiz, J. Cioslowski, 
 and D. J. Fox, Gaussian, Inc., Wallingford CT, 2013.
 
 ******************************************
 Gaussian 09:  ES64L-G09RevE.01 30-Nov-2015
                30-Nov-2019 
 ******************************************
 %chk=29.MP2_GTMP2LARGE.chk
 %mem=1114112000
 %nproc=4
 Will use up to    4 processors via shared memory.
 -------------------------------------------------------------
 # MP2/Gen 5D SCF=Tight INT(grid=ultrafine) maxdisk=3489660928
 -------------------------------------------------------------
 1/38=1/1;
 2/12=2,17=6,18=5,40=1/2;
 3/5=7,8=1,11=9,16=1,25=1,30=1,75=-5/1,2,3;
 4//1;
 5/5=2,32=2,38=5/2;
 8/10=1/1;
 9/16=-3/6;
 6/7=2,8=2,9=2,10=2/1;
 99/5=1,9=1/99;
 -----------------
 29.MP2_GTMP2LARGE
 -----------------
 Symbolic Z-matrix:
 Charge =  0 Multiplicity = 1
 C                    -6.20092   1.19902   0.65607 
 N                    -4.91421   0.64597   0.64909 
 C                    -3.72129   1.30452   0.36854 
 O                    -3.64806   2.48346   0.1016 
 N                    -2.62151   0.48529   0.45239 
 C                    -1.32126   1.016     0.06098 
 C                    -0.21799   0.02735   0.40787 
 C                     1.15603   0.56262   0.01731 
 C                    -6.50364   2.45372   0.12048 
 C                    -7.81414   2.91877   0.13669 
 C                    -8.83614   2.14382   0.68252 
 C                    -8.53697   0.89804   1.21527 
 C                    -7.2333    0.43242   1.20264 
 H                    -4.83755  -0.26739   1.07055 
 H                    -2.75885  -0.50518   0.31006 
 H                    -1.17492   1.95675   0.59397 
 H                    -1.30578   1.25142  -1.00982 
 H                    -0.4005   -0.92309  -0.10778 
 H                    -0.25259  -0.18317   1.48088 
 H                     1.21316   0.75841  -1.05608 
 H                     1.944    -0.14896   0.26812 
 H                     1.37403   1.49832   0.53737 
 H                    -5.71996   3.06619  -0.29709 
 C                    -8.10753   4.27775  -0.45141 
 Cl                   -10.48607   2.68886   0.72104 
 H                    -9.33016   0.29664   1.64147 
 H                    -7.01694  -0.54431   1.62456 
 F                    -8.97563   4.20129  -1.46962 
 F                    -8.6325    5.11076   0.45694 
 F                    -7.00239   4.86327  -0.92553 
 
                          Input orientation:                          
 ---------------------------------------------------------------------
 Center     Atomic      Atomic             Coordinates (Angstroms)
 Number     Number       Type             X           Y           Z
 ---------------------------------------------------------------------
      1          6           0       -6.200923    1.199020    0.656070
      2          7           0       -4.914211    0.645975    0.649092
      3          6           0       -3.721295    1.304517    0.368541
      4          8           0       -3.648056    2.483461    0.101598
      5          7           0       -2.621515    0.485293    0.452394
      6          6           0       -1.321257    1.016000    0.060980
      7          6           0       -0.217988    0.027353    0.407868
      8          6           0        1.156034    0.562624    0.017307
      9          6           0       -6.503640    2.453717    0.120475
     10          6           0       -7.814141    2.918770    0.136687
     11          6           0       -8.836142    2.143820    0.682517
     12          6           0       -8.536966    0.898036    1.215267
     13          6           0       -7.233300    0.432419    1.202641
     14          1           0       -4.837548   -0.267386    1.070547
     15          1           0       -2.758854   -0.505182    0.310063
     16          1           0       -1.174920    1.956753    0.593970
     17          1           0       -1.305777    1.251420   -1.009818
     18          1           0       -0.400505   -0.923092   -0.107781
     19          1           0       -0.252592   -0.183170    1.480880
     20          1           0        1.213155    0.758407   -1.056082
     21          1           0        1.944004   -0.148957    0.268119
     22          1           0        1.374035    1.498319    0.537368
     23          1           0       -5.719957    3.066191   -0.297093
     24          6           0       -8.107533    4.277746   -0.451406
     25         17           0      -10.486067    2.688858    0.721037
     26          1           0       -9.330157    0.296643    1.641468
     27          1           0       -7.016941   -0.544308    1.624559
     28          9           0       -8.975630    4.201287   -1.469615
     29          9           0       -8.632498    5.110760    0.456940
     30          9           0       -7.002395    4.863275   -0.925534
 ---------------------------------------------------------------------
                    Distance matrix (angstroms):
                    1          2          3          4          5
     1  C    0.000000
     2  N    1.400548   0.000000
     3  C    2.498472   1.391200   0.000000
     4  O    2.911075   2.297663   1.211004   0.000000
     5  N    3.655551   2.306722   1.373927   2.273658   0.000000
     6  C    4.919225   3.659525   2.436805   2.751197   1.457919
     7  C    6.101632   4.742931   3.729055   4.229850   2.447168
     8  C    7.412006   6.103603   4.945918   5.174552   3.803308
     9  C    1.397413   2.464478   3.020536   2.855801   4.365290
    10  C    2.414492   3.719913   4.405787   4.188913   5.743244
    11  C    2.799593   4.198356   5.192752   5.231545   6.436246
    12  C    2.420824   3.675383   4.906411   5.258829   5.978704
    13  C    1.397219   2.393783   3.713551   4.274699   4.672711
    14  H    2.044733   1.008826   2.051759   3.149748   2.420628
    15  H    3.856406   2.466915   2.050542   3.125080   1.010030
    16  H    5.083180   3.962761   2.638229   2.576092   2.068302
    17  H    5.171111   4.017381   2.781622   2.870442   2.110967
    18  H    6.223479   4.838221   4.027006   4.711160   2.688909
    19  H    6.162256   4.807291   3.934769   4.532385   2.667662
    20  H    7.621953   6.361201   5.164938   5.286530   4.129744
    21  H    8.264829   6.914635   5.849640   6.182919   4.613046
    22  H    7.581798   6.346733   5.101808   5.136321   4.122846
    23  H    2.150854   2.720651   2.746127   2.188905   4.101599
    24  C    3.786848   4.959654   5.362042   4.838617   6.730227
    25  Cl   4.537212   5.934991   6.913957   6.869082   8.171845
    26  H    3.402557   4.539539   5.839134   6.280099   6.815817
    27  H    2.154773   2.605720   3.982087   4.778721   4.664098
    28  F    4.607726   5.798646   6.275200   5.814008   7.607727
    29  F    4.610197   5.813509   6.214114   5.645674   7.584648
    30  F    4.070699   4.962417   5.010489   4.239116   6.344881
                    6          7          8          9         10
     6  C    0.000000
     7  C    1.521498   0.000000
     8  C    2.518814   1.525447   0.000000
     9  C    5.378444   6.743830   7.890340   0.000000
    10  C    6.766374   8.132366   9.275220   1.390666   0.000000
    11  C    7.624420   8.878482  10.138356   2.419193   1.393902
    12  C    7.308404   8.403296   9.772505   2.784444   2.401912
    13  C    6.049481   7.071799   8.473659   2.406062   2.766871
    14  H    3.876933   4.676146   6.141763   3.329099   4.459125
    15  H    2.107777   2.597914   4.068447   4.776447   6.108145
    16  H    1.091104   2.161697   2.776595   5.372748   6.724124
    17  H    1.096481   2.165977   2.754984   5.453518   6.815669
    18  H    2.153217   1.096610   2.155414   6.978768   8.353543
    19  H    2.143868   1.094017   2.163904   6.919499   8.282869
    20  H    2.781623   2.173881   1.092592   7.987946   9.358523
    21  H    3.473033   2.173667   1.090941   8.840724  10.229840
    22  H    2.779240   2.171416   1.092481   7.946341   9.305955
    23  H    4.866217   6.324806   7.324339   1.078724   2.143713
    24  C    7.546859   9.002728   9.991772   2.495317   1.509552
    25  Cl   9.339586  10.612027  11.855573   4.034315   2.744724
    26  H    8.194992   9.199234  10.614557   3.867245   3.382044
    27  H    6.109022   6.930576   8.402741   3.393213   3.852558
    28  F    8.430789   9.881445  10.867447   3.419521   2.360956
    29  F    8.389165   9.830941  10.802508   3.421275   2.361585
    30  F    6.931815   8.437551   9.270625   2.673735   2.359734
                   11         12         13         14         15
    11  C    0.000000
    12  C    1.387554   0.000000
    13  C    2.401775   1.384378   0.000000
    14  H    4.685428   3.881347   2.499361   0.000000
    15  H    6.639982   6.014565   4.657946   2.226174   0.000000
    16  H    7.664017   7.463686   6.276786   4.311468   2.941185
    17  H    7.769606   7.574034   6.379755   4.371281   2.634230
    18  H    9.010577   8.442096   7.088139   4.637430   2.431266
    19  H    8.929143   8.358852   7.013320   4.604051   2.784933
    20  H   10.292253  10.012162   8.749326   6.495060   4.386327
    21  H   11.029057  10.575634   9.243065   6.829888   4.716517
    22  H   10.231591   9.952278   8.698560   6.479641   4.598527
    23  H    3.394261   3.863116   3.387648   3.709693   4.678833
    24  C    2.523944   3.792711   4.276295   5.802360   7.215581
    25  Cl   1.738046   2.692638   3.987976   6.384928   8.371416
    26  H    2.139089   1.082807   2.146581   4.563728   6.752598
    27  H    3.379788   2.135030   1.085735   2.265694   4.456538
    28  F    2.980654   4.279309   4.937715   6.598878   7.997900
    29  F    2.982463   4.281498   4.939706   6.610795   8.127734
    30  F    3.652929   4.760363   4.920866   5.915622   6.953752
                   16         17         18         19         20
    16  H    0.000000
    17  H    1.756916   0.000000
    18  H    3.063606   2.522239   0.000000
    19  H    2.493304   3.061180   1.758751   0.000000
    20  H    3.140320   2.567142   2.516071   3.077525   0.000000
    21  H    3.777285   3.762347   2.497460   2.509382   1.763790
    22  H    2.590470   3.104212   3.070577   2.522605   1.764210
    23  H    4.762584   4.825594   6.651826   6.603909   7.346426
    24  C    7.385185   7.465546   9.304037   9.237619   9.981313
    25  Cl   9.340748   9.451974  10.744845  10.655980  11.989854
    26  H    8.388152   8.504798   9.180758   9.091654  10.892723
    27  H    6.437905   6.540793   6.849942   6.775505   8.753135
    28  F    8.375404   8.230418  10.081995  10.199033  10.762703
    29  F    8.098272   8.409919  10.222133   9.964787  10.870561
    30  F    6.687019   6.745669   8.816786   8.764546   9.184892
                   21         22         23         24         25
    21  H    0.000000
    22  H    1.763768   0.000000
    23  H    8.330243   7.312952   0.000000
    24  C   11.006672   9.929906   2.681828   0.000000
    25  Cl  12.757939  11.921121   4.888228   3.091377   0.000000
    26  H   11.366237  10.827870   4.945902   4.660913   2.811763
    27  H    9.071646   8.704181   4.290759   5.362017   4.827479
    28  F   11.882035  10.883454   3.641793   1.340219   3.060689
    29  F   11.813665  10.638933   3.637543   1.339623   3.061221
    30  F   10.324017   9.144811   2.295451   1.337525   4.424393
                   26         27         28         29         30
    26  H    0.000000
    27  H    2.461392   0.000000
    28  F    5.005074   5.994251   0.000000
    29  F    5.006551   5.996094   2.157891   0.000000
    30  F    5.732547   5.978723   2.151258   2.151678   0.000000
 Stoichiometry    C11H12ClF3N2O
 Framework group  C1[X(C11H12ClF3N2O)]
 Deg. of freedom    84
 Full point group                 C1      NOp   1
 Largest Abelian subgroup         C1      NOp   1
 Largest concise Abelian subgroup C1      NOp   1
                         Standard orientation:                         
 ---------------------------------------------------------------------
 Center     Atomic      Atomic             Coordinates (Angstroms)
 Number     Number       Type             X           Y           Z
 ---------------------------------------------------------------------
      1          6           0       -0.043779   -1.076731    0.050012
      2          7           0       -1.438586   -1.183420    0.118322
      3          6           0       -2.365756   -0.159453   -0.046859
      4          8           0       -2.067066    0.987772   -0.294225
      5          7           0       -3.666256   -0.586568    0.071236
      6          6           0       -4.734443    0.405301    0.044759
      7          6           0       -6.092696   -0.278412   -0.006634
      8          6           0       -7.229576    0.737961   -0.045082
      9          6           0        0.637585    0.143249    0.062497
     10          6           0        2.027585    0.163664    0.024641
     11          6           0        2.754342   -1.024771   -0.024468
     12          6           0        2.079134   -2.236889   -0.037557
     13          6           0        0.695430   -2.261256   -0.001850
     14          1           0       -1.798222   -2.125764    0.098877
     15          1           0       -3.842684   -1.415748    0.620320
     16          1           0       -4.584649    1.027900   -0.838666
     17          1           0       -4.668774    1.068090    0.915775
     18          1           0       -6.211233   -0.927000    0.869628
     19          1           0       -6.132463   -0.926189   -0.887358
     20          1           0       -7.215790    1.379632    0.839127
     21          1           0       -8.201383    0.243638   -0.082328
     22          1           0       -7.149379    1.382076   -0.923831
     23          1           0        0.085961    1.069799    0.091851
     24          6           0        2.732857    1.498232    0.041020
     25         17           0        4.491655   -1.041543   -0.072051
     26          1           0        2.643181   -3.160298   -0.078025
     27          1           0        0.183321   -3.218558   -0.013632
     28          9           0        3.540991    1.619797    1.103248
     29          9           0        3.484659    1.677743   -1.053129
     30          9           0        1.867716    2.517018    0.091787
 ---------------------------------------------------------------------
 Rotational constants (GHZ):      0.8808710      0.1410279      0.1246528
 General basis read from cards:  (5D, 7F)
 There are   846 symmetry adapted cartesian basis functions of A   symmetry.
 There are   752 symmetry adapted basis functions of A   symmetry.
   752 basis functions,  1110 primitive gaussians,   846 cartesian basis functions
    72 alpha electrons       72 beta electrons
       nuclear repulsion energy      1445.6692642551 Hartrees.
 NAtoms=   30 NActive=   30 NUniq=   30 SFac= 1.00D+00 NAtFMM=   60 NAOKFM=F Big=F
 Integral buffers will be    131072 words long.
 Raffenetti 1 integral format.
 Two-electron integral symmetry is turned on.
 One-electron integrals computed using PRISM.
 NBasis=   752 RedAO= T EigKep=  2.09D-06  NBF=   752
 NBsUse=   749 1.00D-06 EigRej=  9.22D-07 NBFU=   749
 ExpMin= 3.60D-02 ExpMax= 1.06D+05 ExpMxC= 3.62D+03 IAcc=3 IRadAn=         5 AccDes= 0.00D+00
 Harris functional with IExCor=  205 and IRadAn=       5 diagonalized for initial guess.
 HarFok:  IExCor=  205 AccDes= 0.00D+00 IRadAn=         5 IDoV= 1 UseB2=F ITyADJ=14
 ICtDFT=  3500011 ScaDFX=  1.000000  1.000000  1.000000  1.000000
 FoFCou: FMM=F IPFlag=           0 FMFlag=      100000 FMFlg1=           0
         NFxFlg=           0 DoJE=T BraDBF=F KetDBF=T FulRan=T
         wScrn=  0.000000 ICntrl=     500 IOpCl=  0 I1Cent=   200000004 NGrid=           0
         NMat0=    1 NMatS0=      1 NMatT0=    0 NMatD0=    1 NMtDS0=    0 NMtDT0=    0
 Petite list used in FoFCou.
 Requested convergence on RMS density matrix=1.00D-08 within 128 cycles.
 Requested convergence on MAX density matrix=1.00D-06.
 Requested convergence on             energy=1.00D-06.
 No special actions if energy rises.
 Initial convergence to 1.0D-05 achieved.  Increase integral accuracy.
 SCF Done:  E(RHF) =  -1365.47078409     A.U. after   16 cycles
            NFock= 16  Conv=0.36D-08     -V/T= 2.0007
 ExpMin= 3.60D-02 ExpMax= 1.06D+05 ExpMxC= 3.62D+03 IAcc=3 IRadAn=         5 AccDes= 0.00D+00
 HarFok:  IExCor=  205 AccDes= 0.00D+00 IRadAn=         5 IDoV=-2 UseB2=F ITyADJ=14
 ICtDFT= 12500011 ScaDFX=  1.000000  1.000000  1.000000  1.000000
 Range of M.O.s used for correlation:    23   749
 NBasis=   752 NAE=    72 NBE=    72 NFC=    22 NFV=     0
 NROrb=    727 NOA=    50 NOB=    50 NVA=   677 NVB=   677

 **** Warning!!: The largest alpha MO coefficient is  0.12155187D+03

 Fully direct method using O(OVN) memory.
 JobTyp=1 Pass  1:  I=   1 to  10 NPSUse=  4 ParTrn=T ParDer=T DoDerP=F.
 JobTyp=1 Pass  2:  I=  11 to  23 NPSUse=  4 ParTrn=T ParDer=T DoDerP=F.
 JobTyp=1 Pass  3:  I=  24 to  50 NPSUse=  4 ParTrn=T ParDer=T DoDerP=F.
 Spin components of T(2) and E(2):
     alpha-alpha T2 =       0.1306509615D+00 E2=     -0.4311014608D+00
     alpha-beta  T2 =       0.6829970851D+00 E2=     -0.2454148337D+01
     beta-beta   T2 =       0.1306509615D+00 E2=     -0.4311014608D+00
 ANorm=    0.1394381228D+01
 E2 =    -0.3316351258D+01 EUMP2 =    -0.13687871353504D+04

 **********************************************************************

            Population analysis using the SCF density.

 **********************************************************************

 Orbital symmetries:
       Occupied  (A) (A) (A) (A) (A) (A) (A) (A) (A) (A) (A) (A)
                 (A) (A) (A) (A) (A) (A) (A) (A) (A) (A) (A) (A)
                 (A) (A) (A) (A) (A) (A) (A) (A) (A) (A) (A) (A)
                 (A) (A) (A) (A) (A) (A) (A) (A) (A) (A) (A) (A)
                 (A) (A) (A) (A) (A) (A) (A) (A) (A) (A) (A) (A)
                 (A) (A) (A) (A) (A) (A) (A) (A) (A) (A) (A) (A)
       Virtual   (A) (A) (A) (A) (A) (A) (A) (A) (A) (A) (A) (A)
                 (A) (A) (A) (A) (A) (A) (A) (A) (A) (A) (A) (A)
                 (A) (A) (A) (A) (A) (A) (A) (A) (A) (A) (A) (A)
                 (A) (A) (A) (A) (A) (A) (A) (A) (A) (A) (A) (A)
                 (A) (A) (A) (A) (A) (A) (A) (A) (A) (A) (A) (A)
                 (A) (A) (A) (A) (A) (A) (A) (A) (A) (A) (A) (A)
                 (A) (A) (A) (A) (A) (A) (A) (A) (A) (A) (A) (A)
                 (A) (A) (A) (A) (A) (A) (A) (A) (A) (A) (A) (A)
                 (A) (A) (A) (A) (A) (A) (A) (A) (A) (A) (A) (A)
                 (A) (A) (A) (A) (A) (A) (A) (A) (A) (A) (A) (A)
                 (A) (A) (A) (A) (A) (A) (A) (A) (A) (A) (A) (A)
                 (A) (A) (A) (A) (A) (A) (A) (A) (A) (A) (A) (A)
                 (A) (A) (A) (A) (A) (A) (A) (A) (A) (A) (A) (A)
                 (A) (A) (A) (A) (A) (A) (A) (A) (A) (A) (A) (A)
                 (A) (A) (A) (A) (A) (A) (A) (A) (A) (A) (A) (A)
                 (A) (A) (A) (A) (A) (A) (A) (A) (A) (A) (A) (A)
                 (A) (A) (A) (A) (A) (A) (A) (A) (A) (A) (A) (A)
                 (A) (A) (A) (A) (A) (A) (A) (A) (A) (A) (A) (A)
                 (A) (A) (A) (A) (A) (A) (A) (A) (A) (A) (A) (A)
                 (A) (A) (A) (A) (A) (A) (A) (A) (A) (A) (A) (A)
                 (A) (A) (A) (A) (A) (A) (A) (A) (A) (A) (A) (A)
                 (A) (A) (A) (A) (A) (A) (A) (A) (A) (A) (A) (A)
                 (A) (A) (A) (A) (A) (A) (A) (A) (A) (A) (A) (A)
                 (A) (A) (A) (A) (A) (A) (A) (A) (A) (A) (A) (A)
                 (A) (A) (A) (A) (A) (A) (A) (A) (A) (A) (A) (A)
                 (A) (A) (A) (A) (A) (A) (A) (A) (A) (A) (A) (A)
                 (A) (A) (A) (A) (A) (A) (A) (A) (A) (A) (A) (A)
                 (A) (A) (A) (A) (A) (A) (A) (A) (A) (A) (A) (A)
                 (A) (A) (A) (A) (A) (A) (A) (A) (A) (A) (A) (A)
                 (A) (A) (A) (A) (A) (A) (A) (A) (A) (A) (A) (A)
                 (A) (A) (A) (A) (A) (A) (A) (A) (A) (A) (A) (A)
                 (A) (A) (A) (A) (A) (A) (A) (A) (A) (A) (A) (A)
                 (A) (A) (A) (A) (A) (A) (A) (A) (A) (A) (A) (A)
                 (A) (A) (A) (A) (A) (A) (A) (A) (A) (A) (A) (A)
                 (A) (A) (A) (A) (A) (A) (A) (A) (A) (A) (A) (A)
                 (A) (A) (A) (A) (A) (A) (A) (A) (A) (A) (A) (A)
                 (A) (A) (A) (A) (A) (A) (A) (A) (A) (A) (A) (A)
                 (A) (A) (A) (A) (A) (A) (A) (A) (A) (A) (A) (A)
                 (A) (A) (A) (A) (A) (A) (A) (A) (A) (A) (A) (A)
                 (A) (A) (A) (A) (A) (A) (A) (A) (A) (A) (A) (A)
                 (A) (A) (A) (A) (A) (A) (A) (A) (A) (A) (A) (A)
                 (A) (A) (A) (A) (A) (A) (A) (A) (A) (A) (A) (A)
                 (A) (A) (A) (A) (A) (A) (A) (A) (A) (A) (A) (A)
                 (A) (A) (A) (A) (A) (A) (A) (A) (A) (A) (A) (A)
                 (A) (A) (A) (A) (A) (A) (A) (A) (A) (A) (A) (A)
                 (A) (A) (A) (A) (A) (A) (A) (A) (A) (A) (A) (A)
                 (A) (A) (A) (A) (A) (A) (A) (A) (A) (A) (A) (A)
                 (A) (A) (A) (A) (A) (A) (A) (A) (A) (A) (A) (A)
                 (A) (A) (A) (A) (A) (A) (A) (A) (A) (A) (A) (A)
                 (A) (A) (A) (A) (A) (A) (A) (A) (A) (A) (A) (A)
                 (A) (A) (A) (A) (A) (A) (A) (A) (A) (A) (A) (A)
                 (A) (A) (A) (A) (A) (A) (A) (A) (A) (A) (A) (A)
                 (A) (A) (A) (A) (A) (A) (A) (A) (A) (A) (A) (A)
                 (A) (A) (A) (A) (A) (A) (A) (A) (A) (A) (A) (A)
                 (A) (A) (A) (A) (A) (A) (A) (A) (A) (A) (A) (A)
                 (A) (A) (A) (A) (A) (A) (A) (A) (A) (A) (A) (A)
                 (A) (A) (A) (A) (A)
 The electronic state is 1-A.
 Alpha  occ. eigenvalues -- -104.84765 -26.33235 -26.32842 -26.32830 -20.53116
 Alpha  occ. eigenvalues --  -15.61608 -15.59370 -11.50483 -11.39544 -11.31336
 Alpha  occ. eigenvalues --  -11.31114 -11.27841 -11.26844 -11.26462 -11.26243
 Alpha  occ. eigenvalues --  -11.25442 -11.23843 -11.22584 -10.57215  -8.03994
 Alpha  occ. eigenvalues --   -8.03821  -8.03814  -1.72475  -1.62792  -1.62488
 Alpha  occ. eigenvalues --   -1.41888  -1.28159  -1.24173  -1.20267  -1.12505
 Alpha  occ. eigenvalues --   -1.07864  -1.06830  -1.01375  -0.96589  -0.93953
 Alpha  occ. eigenvalues --   -0.88328  -0.86302  -0.83175  -0.82412  -0.81588
 Alpha  occ. eigenvalues --   -0.81140  -0.79009  -0.76076  -0.71436  -0.70370
 Alpha  occ. eigenvalues --   -0.70344  -0.67988  -0.67402  -0.66757  -0.65507
 Alpha  occ. eigenvalues --   -0.65055  -0.64407  -0.63991  -0.62977  -0.62453
 Alpha  occ. eigenvalues --   -0.61407  -0.59144  -0.58120  -0.56685  -0.55174
 Alpha  occ. eigenvalues --   -0.54659  -0.53728  -0.52175  -0.50797  -0.49811
 Alpha  occ. eigenvalues --   -0.49222  -0.46150  -0.45569  -0.44716  -0.41512
 Alpha  occ. eigenvalues --   -0.37387  -0.32071
 Alpha virt. eigenvalues --    0.02276   0.03742   0.04577   0.05247   0.05769
 Alpha virt. eigenvalues --    0.06327   0.07518   0.07753   0.08296   0.08402
 Alpha virt. eigenvalues --    0.08692   0.09388   0.09883   0.10225   0.10588
 Alpha virt. eigenvalues --    0.11722   0.11924   0.12412   0.13275   0.13421
 Alpha virt. eigenvalues --    0.14028   0.14248   0.15375   0.15445   0.16043
 Alpha virt. eigenvalues --    0.16354   0.16633   0.17120   0.17903   0.18284
 Alpha virt. eigenvalues --    0.18554   0.18637   0.18959   0.19133   0.19370
 Alpha virt. eigenvalues --    0.19968   0.19993   0.20489   0.20930   0.21416
 Alpha virt. eigenvalues --    0.21880   0.22197   0.22680   0.23073   0.23474
 Alpha virt. eigenvalues --    0.23755   0.24423   0.25129   0.25307   0.25997
 Alpha virt. eigenvalues --    0.26913   0.27067   0.27285   0.27860   0.28187
 Alpha virt. eigenvalues --    0.28866   0.29409   0.29679   0.29944   0.30429
 Alpha virt. eigenvalues --    0.31571   0.31961   0.32193   0.32360   0.33366
 Alpha virt. eigenvalues --    0.33976   0.34716   0.34811   0.35195   0.35838
 Alpha virt. eigenvalues --    0.36452   0.36919   0.37713   0.37973   0.38086
 Alpha virt. eigenvalues --    0.38629   0.39103   0.39455   0.40030   0.40323
 Alpha virt. eigenvalues --    0.41075   0.41288   0.41843   0.42054   0.42277
 Alpha virt. eigenvalues --    0.43133   0.43208   0.43709   0.43928   0.44645
 Alpha virt. eigenvalues --    0.44915   0.45533   0.45879   0.46483   0.47383
 Alpha virt. eigenvalues --    0.47674   0.48453   0.49537   0.49878   0.50593
 Alpha virt. eigenvalues --    0.51072   0.52022   0.52830   0.53468   0.53891
 Alpha virt. eigenvalues --    0.54827   0.55824   0.56252   0.56865   0.57654
 Alpha virt. eigenvalues --    0.58069   0.59199   0.59407   0.60134   0.60519
 Alpha virt. eigenvalues --    0.60634   0.61787   0.62382   0.63988   0.64639
 Alpha virt. eigenvalues --    0.65943   0.67215   0.68158   0.68496   0.69045
 Alpha virt. eigenvalues --    0.69827   0.70224   0.70818   0.70984   0.71883
 Alpha virt. eigenvalues --    0.72545   0.72806   0.73589   0.74335   0.74994
 Alpha virt. eigenvalues --    0.75193   0.75972   0.76401   0.76981   0.77469
 Alpha virt. eigenvalues --    0.78537   0.79438   0.80351   0.80852   0.80926
 Alpha virt. eigenvalues --    0.81714   0.82582   0.83196   0.83505   0.83583
 Alpha virt. eigenvalues --    0.84385   0.84522   0.85178   0.85797   0.85982
 Alpha virt. eigenvalues --    0.86434   0.86927   0.87615   0.88696   0.88921
 Alpha virt. eigenvalues --    0.89962   0.90230   0.90715   0.91773   0.92397
 Alpha virt. eigenvalues --    0.93373   0.93875   0.95577   0.95974   0.96275
 Alpha virt. eigenvalues --    0.96945   0.97271   0.98826   0.99099   1.00241
 Alpha virt. eigenvalues --    1.00307   1.00897   1.01342   1.02290   1.03233
 Alpha virt. eigenvalues --    1.03477   1.03765   1.04469   1.05484   1.06413
 Alpha virt. eigenvalues --    1.06700   1.07606   1.08615   1.09140   1.10001
 Alpha virt. eigenvalues --    1.12151   1.14171   1.15209   1.16327   1.16550
 Alpha virt. eigenvalues --    1.17547   1.18328   1.19307   1.20809   1.21280
 Alpha virt. eigenvalues --    1.22002   1.22661   1.24804   1.25260   1.26194
 Alpha virt. eigenvalues --    1.27929   1.28607   1.29619   1.29859   1.30272
 Alpha virt. eigenvalues --    1.30905   1.31170   1.32946   1.33951   1.34315
 Alpha virt. eigenvalues --    1.34590   1.35491   1.36452   1.36937   1.37231
 Alpha virt. eigenvalues --    1.37406   1.38550   1.39165   1.39798   1.40064
 Alpha virt. eigenvalues --    1.40461   1.40824   1.42043   1.42424   1.44487
 Alpha virt. eigenvalues --    1.44735   1.45489   1.46228   1.47404   1.48091
 Alpha virt. eigenvalues --    1.48722   1.49202   1.51226   1.52203   1.53040
 Alpha virt. eigenvalues --    1.54180   1.54283   1.55265   1.55699   1.57585
 Alpha virt. eigenvalues --    1.57957   1.58488   1.59001   1.60273   1.60785
 Alpha virt. eigenvalues --    1.60930   1.62000   1.62323   1.63533   1.64243
 Alpha virt. eigenvalues --    1.65192   1.65848   1.66358   1.66840   1.67345
 Alpha virt. eigenvalues --    1.67807   1.68426   1.69530   1.69715   1.70883
 Alpha virt. eigenvalues --    1.71312   1.71783   1.73018   1.73391   1.74077
 Alpha virt. eigenvalues --    1.74796   1.75105   1.75578   1.77727   1.78668
 Alpha virt. eigenvalues --    1.79505   1.80960   1.81357   1.82063   1.83180
 Alpha virt. eigenvalues --    1.83598   1.84573   1.85521   1.86383   1.87333
 Alpha virt. eigenvalues --    1.89002   1.89898   1.90821   1.91733   1.93235
 Alpha virt. eigenvalues --    1.93565   1.95632   1.97189   1.98783   1.99691
 Alpha virt. eigenvalues --    2.00733   2.02446   2.03011   2.04371   2.05757
 Alpha virt. eigenvalues --    2.07038   2.11439   2.13725   2.18169   2.19602
 Alpha virt. eigenvalues --    2.20395   2.23298   2.24167   2.25107   2.26188
 Alpha virt. eigenvalues --    2.28487   2.29049   2.30024   2.30705   2.34208
 Alpha virt. eigenvalues --    2.36068   2.41086   2.41643   2.43926   2.46780
 Alpha virt. eigenvalues --    2.47449   2.51307   2.51698   2.54586   2.58043
 Alpha virt. eigenvalues --    2.61559   2.63437   2.65299   2.67832   2.69419
 Alpha virt. eigenvalues --    2.69723   2.77546   2.81097   2.83034   2.83394
 Alpha virt. eigenvalues --    2.84468   2.86893   2.87381   2.89464   2.91160
 Alpha virt. eigenvalues --    2.92809   2.93470   2.94344   2.95464   2.96021
 Alpha virt. eigenvalues --    2.98532   2.99680   3.01338   3.02156   3.04444
 Alpha virt. eigenvalues --    3.05386   3.06573   3.07488   3.09137   3.10419
 Alpha virt. eigenvalues --    3.12324   3.13010   3.13036   3.13578   3.15026
 Alpha virt. eigenvalues --    3.15534   3.15949   3.16776   3.17308   3.19295
 Alpha virt. eigenvalues --    3.20088   3.20167   3.20525   3.21336   3.22695
 Alpha virt. eigenvalues --    3.23660   3.25324   3.25752   3.26713   3.28609
 Alpha virt. eigenvalues --    3.29292   3.30375   3.30833   3.32348   3.34617
 Alpha virt. eigenvalues --    3.35598   3.36820   3.39203   3.39925   3.40675
 Alpha virt. eigenvalues --    3.42406   3.42657   3.43666   3.45800   3.46509
 Alpha virt. eigenvalues --    3.47144   3.47913   3.48033   3.48674   3.50290
 Alpha virt. eigenvalues --    3.51409   3.51573   3.52415   3.54630   3.55579
 Alpha virt. eigenvalues --    3.56501   3.56774   3.58343   3.58588   3.60341
 Alpha virt. eigenvalues --    3.61637   3.61924   3.63189   3.63847   3.65432
 Alpha virt. eigenvalues --    3.66380   3.67103   3.68161   3.68871   3.70003
 Alpha virt. eigenvalues --    3.70499   3.71658   3.72505   3.72572   3.73672
 Alpha virt. eigenvalues --    3.74374   3.75003   3.75615   3.77060   3.77470
 Alpha virt. eigenvalues --    3.78097   3.79627   3.80378   3.81562   3.82346
 Alpha virt. eigenvalues --    3.83476   3.84737   3.85530   3.86411   3.87818
 Alpha virt. eigenvalues --    3.89639   3.91151   3.91563   3.91927   3.92219
 Alpha virt. eigenvalues --    3.93578   3.94532   3.94808   3.95041   3.95417
 Alpha virt. eigenvalues --    3.98561   3.98897   4.00579   4.01280   4.02727
 Alpha virt. eigenvalues --    4.03394   4.04897   4.05502   4.06104   4.07076
 Alpha virt. eigenvalues --    4.07576   4.08430   4.09558   4.11035   4.11461
 Alpha virt. eigenvalues --    4.12739   4.13628   4.16786   4.17932   4.18151
 Alpha virt. eigenvalues --    4.21024   4.23273   4.24082   4.24688   4.25211
 Alpha virt. eigenvalues --    4.27112   4.27946   4.29582   4.30633   4.31801
 Alpha virt. eigenvalues --    4.32683   4.33176   4.34249   4.36286   4.36841
 Alpha virt. eigenvalues --    4.38089   4.39197   4.40958   4.41911   4.42434
 Alpha virt. eigenvalues --    4.43626   4.44296   4.47627   4.48008   4.51817
 Alpha virt. eigenvalues --    4.52937   4.53856   4.54987   4.56121   4.56627
 Alpha virt. eigenvalues --    4.57447   4.58873   4.59783   4.61918   4.63645
 Alpha virt. eigenvalues --    4.65140   4.67377   4.67734   4.68485   4.69841
 Alpha virt. eigenvalues --    4.70380   4.71751   4.72522   4.73868   4.74342
 Alpha virt. eigenvalues --    4.75229   4.76434   4.77339   4.78211   4.78707
 Alpha virt. eigenvalues --    4.79847   4.80529   4.81704   4.83137   4.84678
 Alpha virt. eigenvalues --    4.85000   4.85467   4.87252   4.87650   4.88083
 Alpha virt. eigenvalues --    4.89328   4.89685   4.90786   4.91832   4.92890
 Alpha virt. eigenvalues --    4.93728   4.94975   4.96165   4.96971   4.97743
 Alpha virt. eigenvalues --    5.01043   5.01324   5.02767   5.05040   5.05819
 Alpha virt. eigenvalues --    5.08009   5.12376   5.15182   5.16333   5.18533
 Alpha virt. eigenvalues --    5.21515   5.23125   5.27778   5.28865   5.32981
 Alpha virt. eigenvalues --    5.34345   5.37774   5.41105   5.45448   5.47176
 Alpha virt. eigenvalues --    5.53289   5.54741   5.57715   5.59383   5.61879
 Alpha virt. eigenvalues --    5.63135   5.65091   5.66285   5.69597   5.69935
 Alpha virt. eigenvalues --    5.70805   5.74131   5.75653   5.78199   5.80091
 Alpha virt. eigenvalues --    5.80982   5.81942   5.84222   5.85167   5.88195
 Alpha virt. eigenvalues --    5.90527   5.94038   5.96629   6.03269   6.05719
 Alpha virt. eigenvalues --    6.06982   6.09870   6.11901   6.13248   6.14442
 Alpha virt. eigenvalues --    6.14934   6.15811   6.19419   6.23823   6.27081
 Alpha virt. eigenvalues --    6.30580   6.35378   6.42060   6.47711   6.52265
 Alpha virt. eigenvalues --    6.54485   6.63715   6.73462   6.83652   6.84518
 Alpha virt. eigenvalues --    6.94025   6.96141   6.97136   6.97756   7.00806
 Alpha virt. eigenvalues --    7.04042   7.07126   7.08770   7.11141   7.11998
 Alpha virt. eigenvalues --    7.12601   7.12785   7.13801   7.14908   7.16359
 Alpha virt. eigenvalues --    7.16709   7.18000   7.19305   7.24827   7.26642
 Alpha virt. eigenvalues --    7.30189   7.36728   7.37964   7.44482   7.46697
 Alpha virt. eigenvalues --    7.54398   7.57126   7.60922   7.63739   7.68264
 Alpha virt. eigenvalues --    7.78179   7.81690   7.81875   7.87286   7.91479
 Alpha virt. eigenvalues --    7.92976   8.14829   8.27951   8.36091   8.41701
 Alpha virt. eigenvalues --    9.69868   9.71811   9.73565   9.81844   9.86171
 Alpha virt. eigenvalues --    9.89112  10.03890  10.12786  10.16636  10.26641
 Alpha virt. eigenvalues --   10.41414  10.53124  10.59343  10.68212  10.75812
 Alpha virt. eigenvalues --   10.81190  21.82055  21.92893  22.19928  24.99600
 Alpha virt. eigenvalues --   25.38507  25.51976  25.61173  25.61467  25.67066
 Alpha virt. eigenvalues --   25.73099  25.85320  25.88689  26.08444  26.29173
 Alpha virt. eigenvalues --   37.27085  37.34623  51.94017  68.83748  68.87528
 Alpha virt. eigenvalues --   68.93792 220.11217
          Condensed to atoms (all electrons):
               1          2          3          4          5          6
     1  C   19.228881  -0.188650  -0.522657  -0.182151  -0.162603  -0.530365
     2  N   -0.188650   6.952851   0.560833  -0.039322  -0.092571  -0.310549
     3  C   -0.522657   0.560833   6.795249   0.415125   0.353463  -1.069376
     4  O   -0.182151  -0.039322   0.415125   8.233656  -0.056805  -0.074891
     5  N   -0.162603  -0.092571   0.353463  -0.056805   6.719286   0.382681
     6  C   -0.530365  -0.310549  -1.069376  -0.074891   0.382681   7.204556
     7  C   -0.009592  -0.011789   0.072187   0.035435  -0.171846  -0.511126
     8  C   -0.010162  -0.017591  -0.207885   0.003064  -0.033085   0.494989
     9  C   -6.352451   0.143785  -0.493349   0.179191  -0.020040  -0.058702
    10  C   -7.130829   0.114468  -0.042579   0.062529   0.032235   0.049637
    11  C    3.845695  -0.018262   0.014509  -0.010500  -0.025851  -0.022213
    12  C   -0.402602  -0.034667  -0.141417  -0.005181  -0.000108  -0.002262
    13  C    0.726593  -0.133310  -0.194556  -0.020653  -0.030312  -0.011106
    14  H    0.086316   0.360444  -0.000236   0.001358   0.027947   0.016740
    15  H   -0.011697   0.019279  -0.024397  -0.000493   0.344893  -0.058762
    16  H   -0.014074   0.003024   0.050464  -0.008151  -0.052851   0.413009
    17  H    0.013271   0.008648   0.035948  -0.014277  -0.062856   0.476144
    18  H   -0.001099   0.003733   0.020225  -0.000819   0.001454  -0.037234
    19  H    0.003819   0.001241   0.005060  -0.000577   0.003548  -0.049236
    20  H   -0.000079  -0.000154   0.000464   0.000543  -0.001189  -0.028873
    21  H   -0.000379  -0.000696  -0.002743   0.000355  -0.005244   0.012347
    22  H    0.000552   0.000688   0.005179   0.000226   0.000666  -0.023445
    23  H   -0.360206  -0.006639   0.029431  -0.020164   0.006779   0.013613
    24  C   -1.963683  -0.003580  -0.126572   0.020208   0.006969   0.001124
    25  Cl  -0.061284   0.004839  -0.005505   0.000074   0.000239  -0.000061
    26  H    0.106751  -0.000213  -0.005412  -0.000007   0.000010  -0.000631
    27  H   -0.238962  -0.023043   0.003814  -0.000224   0.004014   0.006231
    28  F    0.003388   0.000068   0.000816  -0.000035   0.000010   0.000026
    29  F    0.024358  -0.000061   0.000847   0.000020  -0.000004  -0.000025
    30  F    0.175680   0.000310   0.012830  -0.000250   0.000084   0.000310
               7          8          9         10         11         12
     1  C   -0.009592  -0.010162  -6.352451  -7.130829   3.845695  -0.402602
     2  N   -0.011789  -0.017591   0.143785   0.114468  -0.018262  -0.034667
     3  C    0.072187  -0.207885  -0.493349  -0.042579   0.014509  -0.141417
     4  O    0.035435   0.003064   0.179191   0.062529  -0.010500  -0.005181
     5  N   -0.171846  -0.033085  -0.020040   0.032235  -0.025851  -0.000108
     6  C   -0.511126   0.494989  -0.058702   0.049637  -0.022213  -0.002262
     7  C    5.588555  -0.102981   0.028719  -0.000099   0.000935   0.000015
     8  C   -0.102981   5.216967  -0.000902   0.000739  -0.000329   0.000084
     9  C    0.028719  -0.000902  11.168521   1.665313  -0.892198  -0.006317
    10  C   -0.000099   0.000739   1.665313  18.679720  -1.490062  -2.359211
    11  C    0.000935  -0.000329  -0.892198  -1.490062  13.196258  -3.398347
    12  C    0.000015   0.000084  -0.006317  -2.359211  -3.398347   9.550209
    13  C   -0.001765  -0.000319  -0.535999  -0.698489  -2.237728   1.838078
    14  H   -0.010697   0.000074  -0.095488  -0.034562   0.023451  -0.038304
    15  H    0.036286  -0.008232  -0.001888  -0.001721   0.000458   0.002055
    16  H   -0.021927  -0.017290   0.003781   0.001706  -0.000121  -0.000523
    17  H   -0.103249  -0.007722  -0.012355  -0.002757   0.000021   0.000722
    18  H    0.408853  -0.028156   0.002023   0.000267  -0.000035  -0.000095
    19  H    0.455340  -0.028110  -0.004205  -0.000536   0.000067  -0.000048
    20  H   -0.000777   0.427284  -0.000070  -0.000009   0.000017  -0.000021
    21  H   -0.028362   0.408700   0.000163   0.000016  -0.000002   0.000005
    22  H   -0.010107   0.411998   0.000379   0.000007   0.000002   0.000007
    23  H    0.003288   0.000608   0.578570   0.228475  -0.004863  -0.042905
    24  C   -0.000380   0.000086   0.829185  -3.050998  -2.904795   1.188350
    25  Cl   0.000005  -0.000000  -0.094519   0.408486  -0.146231  -0.353822
    26  H    0.000027  -0.000004  -0.029768  -0.061911   0.078487   0.328247
    27  H    0.000251   0.000217   0.082497   0.113769  -0.092144   0.072109
    28  F   -0.000000   0.000000  -0.029399   0.018195  -0.014979   0.023326
    29  F   -0.000001  -0.000000  -0.000623  -0.058566   0.009455   0.029080
    30  F    0.000002   0.000001   0.077035  -0.348396   0.091090  -0.012132
              13         14         15         16         17         18
     1  C    0.726593   0.086316  -0.011697  -0.014074   0.013271  -0.001099
     2  N   -0.133310   0.360444   0.019279   0.003024   0.008648   0.003733
     3  C   -0.194556  -0.000236  -0.024397   0.050464   0.035948   0.020225
     4  O   -0.020653   0.001358  -0.000493  -0.008151  -0.014277  -0.000819
     5  N   -0.030312   0.027947   0.344893  -0.052851  -0.062856   0.001454
     6  C   -0.011106   0.016740  -0.058762   0.413009   0.476144  -0.037234
     7  C   -0.001765  -0.010697   0.036286  -0.021927  -0.103249   0.408853
     8  C   -0.000319   0.000074  -0.008232  -0.017290  -0.007722  -0.028156
     9  C   -0.535999  -0.095488  -0.001888   0.003781  -0.012355   0.002023
    10  C   -0.698489  -0.034562  -0.001721   0.001706  -0.002757   0.000267
    11  C   -2.237728   0.023451   0.000458  -0.000121   0.000021  -0.000035
    12  C    1.838078  -0.038304   0.002055  -0.000523   0.000722  -0.000095
    13  C    7.011246  -0.026954   0.003386  -0.000984   0.001857  -0.000380
    14  H   -0.026954   0.511958  -0.008446   0.001631   0.001687   0.001546
    15  H    0.003386  -0.008446   0.522994   0.002510  -0.002633  -0.000309
    16  H   -0.000984   0.001631   0.002510   0.562160  -0.028119   0.009044
    17  H    0.001857   0.001687  -0.002633  -0.028119   0.603414  -0.010313
    18  H   -0.000380   0.001546  -0.000309   0.009044  -0.010313   0.686622
    19  H    0.000411  -0.000037   0.000755  -0.005554   0.006496  -0.061975
    20  H   -0.000053  -0.000014   0.000121   0.002001  -0.003564  -0.009088
    21  H   -0.000002  -0.000135   0.000801  -0.001432  -0.002307  -0.006136
    22  H    0.000017  -0.000122   0.000788  -0.001897   0.000924   0.005296
    23  H   -0.014036  -0.006098   0.001259   0.000489  -0.002102  -0.000152
    24  C    0.101666  -0.014543   0.000068  -0.000393   0.000123   0.000050
    25  Cl   0.023524   0.000338  -0.000010  -0.000008   0.000004  -0.000001
    26  H   -0.026879   0.001878  -0.000091  -0.000009   0.000018   0.000000
    27  H    0.415099  -0.000323   0.000564   0.000031  -0.000244  -0.000083
    28  F    0.007638   0.000079  -0.000004   0.000001  -0.000001   0.000000
    29  F    0.005032   0.000075   0.000001  -0.000005   0.000003  -0.000000
    30  F   -0.005588   0.000521  -0.000022   0.000031  -0.000001  -0.000000
              19         20         21         22         23         24
     1  C    0.003819  -0.000079  -0.000379   0.000552  -0.360206  -1.963683
     2  N    0.001241  -0.000154  -0.000696   0.000688  -0.006639  -0.003580
     3  C    0.005060   0.000464  -0.002743   0.005179   0.029431  -0.126572
     4  O   -0.000577   0.000543   0.000355   0.000226  -0.020164   0.020208
     5  N    0.003548  -0.001189  -0.005244   0.000666   0.006779   0.006969
     6  C   -0.049236  -0.028873   0.012347  -0.023445   0.013613   0.001124
     7  C    0.455340  -0.000777  -0.028362  -0.010107   0.003288  -0.000380
     8  C   -0.028110   0.427284   0.408700   0.411998   0.000608   0.000086
     9  C   -0.004205  -0.000070   0.000163   0.000379   0.578570   0.829185
    10  C   -0.000536  -0.000009   0.000016   0.000007   0.228475  -3.050998
    11  C    0.000067   0.000017  -0.000002   0.000002  -0.004863  -2.904795
    12  C   -0.000048  -0.000021   0.000005   0.000007  -0.042905   1.188350
    13  C    0.000411  -0.000053  -0.000002   0.000017  -0.014036   0.101666
    14  H   -0.000037  -0.000014  -0.000135  -0.000122  -0.006098  -0.014543
    15  H    0.000755   0.000121   0.000801   0.000788   0.001259   0.000068
    16  H   -0.005554   0.002001  -0.001432  -0.001897   0.000489  -0.000393
    17  H    0.006496  -0.003564  -0.002307   0.000924  -0.002102   0.000123
    18  H   -0.061975  -0.009088  -0.006136   0.005296  -0.000152   0.000050
    19  H    0.621311   0.004185  -0.007089  -0.007354  -0.000217  -0.000059
    20  H    0.004185   0.620704  -0.029120  -0.040482   0.000042  -0.000024
    21  H   -0.007089  -0.029120   0.602637  -0.024754   0.000051  -0.000000
    22  H   -0.007354  -0.040482  -0.024754   0.617430  -0.000016   0.000013
    23  H   -0.000217   0.000042   0.000051  -0.000016   0.423711  -0.072455
    24  C   -0.000059  -0.000024  -0.000000   0.000013  -0.072455  10.639104
    25  Cl  -0.000000   0.000000   0.000000  -0.000000   0.007696  -0.446803
    26  H   -0.000002  -0.000000  -0.000000   0.000000  -0.000812  -0.041673
    27  H   -0.000060   0.000005   0.000007  -0.000003   0.003704   0.029509
    28  F    0.000000  -0.000000   0.000000  -0.000000   0.000444   0.142559
    29  F    0.000000  -0.000000  -0.000000   0.000000  -0.000421   0.146217
    30  F    0.000000   0.000000   0.000000  -0.000000  -0.026803   0.215339
              25         26         27         28         29         30
     1  C   -0.061284   0.106751  -0.238962   0.003388   0.024358   0.175680
     2  N    0.004839  -0.000213  -0.023043   0.000068  -0.000061   0.000310
     3  C   -0.005505  -0.005412   0.003814   0.000816   0.000847   0.012830
     4  O    0.000074  -0.000007  -0.000224  -0.000035   0.000020  -0.000250
     5  N    0.000239   0.000010   0.004014   0.000010  -0.000004   0.000084
     6  C   -0.000061  -0.000631   0.006231   0.000026  -0.000025   0.000310
     7  C    0.000005   0.000027   0.000251  -0.000000  -0.000001   0.000002
     8  C   -0.000000  -0.000004   0.000217   0.000000  -0.000000   0.000001
     9  C   -0.094519  -0.029768   0.082497  -0.029399  -0.000623   0.077035
    10  C    0.408486  -0.061911   0.113769   0.018195  -0.058566  -0.348396
    11  C   -0.146231   0.078487  -0.092144  -0.014979   0.009455   0.091090
    12  C   -0.353822   0.328247   0.072109   0.023326   0.029080  -0.012132
    13  C    0.023524  -0.026879   0.415099   0.007638   0.005032  -0.005588
    14  H    0.000338   0.001878  -0.000323   0.000079   0.000075   0.000521
    15  H   -0.000010  -0.000091   0.000564  -0.000004   0.000001  -0.000022
    16  H   -0.000008  -0.000009   0.000031   0.000001  -0.000005   0.000031
    17  H    0.000004   0.000018  -0.000244  -0.000001   0.000003  -0.000001
    18  H   -0.000001   0.000000  -0.000083   0.000000  -0.000000  -0.000000
    19  H   -0.000000  -0.000002  -0.000060   0.000000   0.000000   0.000000
    20  H    0.000000  -0.000000   0.000005  -0.000000  -0.000000   0.000000
    21  H    0.000000  -0.000000   0.000007   0.000000  -0.000000   0.000000
    22  H   -0.000000   0.000000  -0.000003  -0.000000   0.000000  -0.000000
    23  H    0.007696  -0.000812   0.003704   0.000444  -0.000421  -0.026803
    24  C   -0.446803  -0.041673   0.029509   0.142559   0.146217   0.215339
    25  Cl  17.935806   0.009929  -0.001043  -0.016828  -0.021275   0.001027
    26  H    0.009929   0.467761  -0.018096   0.000450   0.000352   0.000076
    27  H   -0.001043  -0.018096   0.534883  -0.000053  -0.000141  -0.000292
    28  F   -0.016828   0.000450  -0.000053   9.061383   0.040558   0.009592
    29  F   -0.021275   0.000352  -0.000141   0.040558   9.067583   0.008440
    30  F    0.001027   0.000076  -0.000292   0.009592   0.008440   9.119287
 Mulliken charges:
               1
     1  C   -0.071775
     2  N   -0.293112
     3  C    0.460238
     4  O   -0.517285
     5  N   -0.168914
     6  C   -0.282549
     7  C    0.354799
     8  C   -0.502043
     9  C   -0.130889
    10  C   -0.094836
    11  C   -0.001786
    12  C   -0.234324
    13  C   -0.195435
    14  H    0.199914
    15  H    0.182488
    16  H    0.103457
    17  H    0.103221
    18  H    0.016765
    19  H    0.062828
    20  H    0.058151
    21  H    0.083321
    22  H    0.064009
    23  H    0.259730
    24  C    1.305386
    25  Cl  -0.244576
    26  H    0.191520
    27  H    0.108007
    28  F   -0.247235
    29  F   -0.250899
    30  F   -0.318174
 Sum of Mulliken charges =  -0.00000
 Mulliken charges with hydrogens summed into heavy atoms:
               1
     1  C   -0.071775
     2  N   -0.093198
     3  C    0.460238
     4  O   -0.517285
     5  N    0.013574
     6  C   -0.075871
     7  C    0.434392
     8  C   -0.296563
     9  C    0.128841
    10  C   -0.094836
    11  C   -0.001786
    12  C   -0.042803
    13  C   -0.087429
    24  C    1.305386
    25  Cl  -0.244576
    28  F   -0.247235
    29  F   -0.250899
    30  F   -0.318174
 Electronic spatial extent (au):  <R**2>=           8113.5560
 Charge=             -0.0000 electrons
 Dipole moment (field-independent basis, Debye):
    X=             -5.9403    Y=             -5.6292    Z=              1.0727  Tot=              8.2539
 Quadrupole moment (field-independent basis, Debye-Ang):
   XX=           -104.4728   YY=           -106.2436   ZZ=           -114.5277
   XY=              2.5558   XZ=             -3.6478   YZ=             -0.4386
 Traceless Quadrupole moment (field-independent basis, Debye-Ang):
   XX=              3.9419   YY=              2.1711   ZZ=             -6.1130
   XY=              2.5558   XZ=             -3.6478   YZ=             -0.4386
 Octapole moment (field-independent basis, Debye-Ang**2):
  XXX=            -98.1250  YYY=             -4.5046  ZZZ=              0.1459  XYY=              6.9131
  XXY=            -14.1766  XXZ=              9.9769  XZZ=              6.3368  YZZ=             16.2752
  YYZ=              2.3837  XYZ=              4.1827
 Hexadecapole moment (field-independent basis, Debye-Ang**3):
 XXXX=          -8532.0455 YYYY=          -1185.4753 ZZZZ=           -210.2215 XXXY=            101.0874
 XXXZ=            -33.7592 YYYX=             93.3610 YYYZ=             -1.7762 ZZZX=              1.4020
 ZZZY=              0.0251 XXYY=          -1695.0083 XXZZ=          -1542.2282 YYZZ=           -258.3291
 XXYZ=            -18.6141 YYXZ=            -11.4712 ZZXY=             29.8036
 N-N= 1.445669264255D+03 E-N=-6.118942882995D+03  KE= 1.364557732713D+03
 1\1\GINC-R4083\SP\RMP2-FC\Gen\C11H12Cl1F3N2O1\ROOT\30-Nov-2019\0\\# MP
 2/Gen 5D SCF=Tight INT(grid=ultrafine) maxdisk=3489660928\\29.MP2_GTMP
 2LARGE\\0,1\C,0,-6.2009231637,1.1990203291,0.6560703402\N,0,-4.9142114
 676,0.6459745048,0.6490924609\C,0,-3.7212946558,1.3045173835,0.3685412
 452\O,0,-3.6480555079,2.4834609009,0.1015979647\N,0,-2.6215149277,0.48
 52927514,0.4523941644\C,0,-1.3212566893,1.0160004795,0.0609797986\C,0,
 -0.2179881904,0.0273533668,0.407867626\C,0,1.1560335356,0.5626239616,0
 .0173066045\C,0,-6.5036395506,2.4537168803,0.120475415\C,0,-7.81414127
 02,2.9187704705,0.1366871993\C,0,-8.8361418833,2.1438200575,0.68251672
 52\C,0,-8.5369664744,0.8980357944,1.2152670638\C,0,-7.2333003554,0.432
 4190255,1.2026408709\H,0,-4.8375477155,-0.2673863287,1.070546771\H,0,-
 2.7588539891,-0.5051818099,0.3100634237\H,0,-1.1749202459,1.9567526753
 ,0.5939704971\H,0,-1.3057767869,1.2514197699,-1.0098178583\H,0,-0.4005
 045032,-0.9230921437,-0.1077813095\H,0,-0.2525923503,-0.1831702818,1.4
 808797339\H,0,1.2131551346,0.7584071106,-1.056081995\H,0,1.9440043725,
 -0.1489565459,0.2681185016\H,0,1.3740347313,1.4983193806,0.5373684005\
 H,0,-5.7199573762,3.0661907029,-0.2970930212\C,0,-8.1075334885,4.27774
 64305,-0.4514059011\Cl,0,-10.4860670074,2.6888579962,0.7210369835\H,0,
 -9.3301565174,0.2966433893,1.6414681285\H,0,-7.016940504,-0.544307512,
 1.6245592595\F,0,-8.9756300916,4.2012870317,-1.4696151085\F,0,-8.63249
 83511,5.1107595171,0.4569397779\F,0,-7.0023947108,4.8632747122,-0.9255
 337623\\Version=ES64L-G09RevE.01\State=1-A\HF=-1365.4707841\MP2=-1368.
 7871354\RMSD=3.558e-09\PG=C01 [X(C11H12Cl1F3N2O1)]\\@


 SATCHEL PAIGE'S GUIDE TO LONGEVITY

    1.  AVOID FRIED MEATS, WHICH ANGRY UP THE BLOOD.

    2.  IF YOUR STOMACH DISPUTES YOU, LIE DOWN AND PACIFY IT WITH COOL
        THOUGHTS.

    3.  KEEP THE JUICES FLOWING BY JANGLING AROUND GENTLY AS YOU MOVE.

    4.  GO VERY LIGHT ON THE VICES, SUCH AS CARRYING ON IN SOCIETY.
        THE SOCIAL RUMBLE AIN'T RESTFUL.

    5.  AVOID RUNNING AT ALL TIMES.

    6.  DON'T LOOK BACK.  SOMETHING MAY BE GAINING ON YOU.
 Job cpu time:       0 days  4 hours 17 minutes 14.5 seconds.
 File lengths (MBytes):  RWF=    303 Int=      0 D2E=      0 Chk=     33 Scr=      1
 Normal termination of Gaussian 09 at Sat Nov 30 16:02:05 2019.
pbs_rusage has been removed.
Please contact help@nci.org.au if you require this functionality.
