 Entering Gaussian System, Link 0=/apps/gaussian/g09e01/g09/g09
 AtFile(1): /home/507/hio507/Basis/6-31pGd.gbs
 Initial command:
 /apps/gaussian/g09e01/g09/l1.exe "/jobfs/local/3890837.r-man2/Gau-27949.inp" -scrdir="/jobfs/local/3890837.r-man2/"
 Entering Link 1 = /apps/gaussian/g09e01/g09/l1.exe PID=     27950.
  
 Copyright (c) 1988,1990,1992,1993,1995,1998,2003,2009,2015,
            Gaussian, Inc.  All Rights Reserved.
  
 This is part of the Gaussian(R) 09 program.  It is based on
 the Gaussian(R) 03 system (copyright 2003, Gaussian, Inc.),
 the Gaussian(R) 98 system (copyright 1998, Gaussian, Inc.),
 the Gaussian(R) 94 system (copyright 1995, Gaussian, Inc.),
 the Gaussian 92(TM) system (copyright 1992, Gaussian, Inc.),
 the Gaussian 90(TM) system (copyright 1990, Gaussian, Inc.),
 the Gaussian 88(TM) system (copyright 1988, Gaussian, Inc.),
 the Gaussian 86(TM) system (copyright 1986, Carnegie Mellon
 University), and the Gaussian 82(TM) system (copyright 1983,
 Carnegie Mellon University). Gaussian is a federally registered
 trademark of Gaussian, Inc.
  
 This software contains proprietary and confidential information,
 including trade secrets, belonging to Gaussian, Inc.
  
 This software is provided under written license and may be
 used, copied, transmitted, or stored only in accord with that
 written license.
  
 The following legend is applicable only to US Government
 contracts under FAR:
  
                    RESTRICTED RIGHTS LEGEND
  
 Use, reproduction and disclosure by the US Government is
 subject to restrictions as set forth in subparagraphs (a)
 and (c) of the Commercial Computer Software - Restricted
 Rights clause in FAR 52.227-19.
  
 Gaussian, Inc.
 340 Quinnipiac St., Bldg. 40, Wallingford CT 06492
  
  
 ---------------------------------------------------------------
 Warning -- This program may not be used in any manner that
 competes with the business of Gaussian, Inc. or will provide
 assistance to any competitor of Gaussian, Inc.  The licensee
 of this program is prohibited from giving any competitor of
 Gaussian, Inc. access to this program.  By using this program,
 the user acknowledges that Gaussian, Inc. is engaged in the
 business of creating and licensing software in the field of
 computational chemistry and represents and warrants to the
 licensee that it is not a competitor of Gaussian, Inc. and that
 it will not use this program in any manner prohibited above.
 ---------------------------------------------------------------
  

 Cite this work as:
 Gaussian 09, Revision E.01,
 M. J. Frisch, G. W. Trucks, H. B. Schlegel, G. E. Scuseria, 
 M. A. Robb, J. R. Cheeseman, G. Scalmani, V. Barone, B. Mennucci, 
 G. A. Petersson, H. Nakatsuji, M. Caricato, X. Li, H. P. Hratchian, 
 A. F. Izmaylov, J. Bloino, G. Zheng, J. L. Sonnenberg, M. Hada, 
 M. Ehara, K. Toyota, R. Fukuda, J. Hasegawa, M. Ishida, T. Nakajima, 
 Y. Honda, O. Kitao, H. Nakai, T. Vreven, J. A. Montgomery, Jr., 
 J. E. Peralta, F. Ogliaro, M. Bearpark, J. J. Heyd, E. Brothers, 
 K. N. Kudin, V. N. Staroverov, T. Keith, R. Kobayashi, J. Normand, 
 K. Raghavachari, A. Rendell, J. C. Burant, S. S. Iyengar, J. Tomasi, 
 M. Cossi, N. Rega, J. M. Millam, M. Klene, J. E. Knox, J. B. Cross, 
 V. Bakken, C. Adamo, J. Jaramillo, R. Gomperts, R. E. Stratmann, 
 O. Yazyev, A. J. Austin, R. Cammi, C. Pomelli, J. W. Ochterski, 
 R. L. Martin, K. Morokuma, V. G. Zakrzewski, G. A. Voth, 
 P. Salvador, J. J. Dannenberg, S. Dapprich, A. D. Daniels, 
 O. Farkas, J. B. Foresman, J. V. Ortiz, J. Cioslowski, 
 and D. J. Fox, Gaussian, Inc., Wallingford CT, 2013.
 
 ******************************************
 Gaussian 09:  ES64L-G09RevE.01 30-Nov-2015
                30-Nov-2019 
 ******************************************
 %chk=29.MP2_6-31pGd.chk
 %mem=1114112000
 %nproc=4
 Will use up to    4 processors via shared memory.
 -------------------------------------------------------------
 # MP2/Gen 6D SCF=Tight INT(grid=ultrafine) maxdisk=3489660928
 -------------------------------------------------------------
 1/38=1/1;
 2/12=2,17=6,18=5,40=1/2;
 3/5=7,8=2,11=9,16=1,25=1,30=1,75=-5/1,2,3;
 4//1;
 5/5=2,32=2,38=5/2;
 8/10=1/1;
 9/16=-3/6;
 6/7=2,8=2,9=2,10=2/1;
 99/5=1,9=1/99;
 --------------
 29.MP2_6-31pGd
 --------------
 Symbolic Z-matrix:
 Charge =  0 Multiplicity = 1
 C                    -6.20092   1.19902   0.65607 
 N                    -4.91421   0.64597   0.64909 
 C                    -3.72129   1.30452   0.36854 
 O                    -3.64806   2.48346   0.1016 
 N                    -2.62151   0.48529   0.45239 
 C                    -1.32126   1.016     0.06098 
 C                    -0.21799   0.02735   0.40787 
 C                     1.15603   0.56262   0.01731 
 C                    -6.50364   2.45372   0.12048 
 C                    -7.81414   2.91877   0.13669 
 C                    -8.83614   2.14382   0.68252 
 C                    -8.53697   0.89804   1.21527 
 C                    -7.2333    0.43242   1.20264 
 H                    -4.83755  -0.26739   1.07055 
 H                    -2.75885  -0.50518   0.31006 
 H                    -1.17492   1.95675   0.59397 
 H                    -1.30578   1.25142  -1.00982 
 H                    -0.4005   -0.92309  -0.10778 
 H                    -0.25259  -0.18317   1.48088 
 H                     1.21316   0.75841  -1.05608 
 H                     1.944    -0.14896   0.26812 
 H                     1.37403   1.49832   0.53737 
 H                    -5.71996   3.06619  -0.29709 
 C                    -8.10753   4.27775  -0.45141 
 Cl                   -10.48607   2.68886   0.72104 
 H                    -9.33016   0.29664   1.64147 
 H                    -7.01694  -0.54431   1.62456 
 F                    -8.97563   4.20129  -1.46962 
 F                    -8.6325    5.11076   0.45694 
 F                    -7.00239   4.86327  -0.92553 
 
                          Input orientation:                          
 ---------------------------------------------------------------------
 Center     Atomic      Atomic             Coordinates (Angstroms)
 Number     Number       Type             X           Y           Z
 ---------------------------------------------------------------------
      1          6           0       -6.200923    1.199020    0.656070
      2          7           0       -4.914211    0.645975    0.649092
      3          6           0       -3.721295    1.304517    0.368541
      4          8           0       -3.648056    2.483461    0.101598
      5          7           0       -2.621515    0.485293    0.452394
      6          6           0       -1.321257    1.016000    0.060980
      7          6           0       -0.217988    0.027353    0.407868
      8          6           0        1.156034    0.562624    0.017307
      9          6           0       -6.503640    2.453717    0.120475
     10          6           0       -7.814141    2.918770    0.136687
     11          6           0       -8.836142    2.143820    0.682517
     12          6           0       -8.536966    0.898036    1.215267
     13          6           0       -7.233300    0.432419    1.202641
     14          1           0       -4.837548   -0.267386    1.070547
     15          1           0       -2.758854   -0.505182    0.310063
     16          1           0       -1.174920    1.956753    0.593970
     17          1           0       -1.305777    1.251420   -1.009818
     18          1           0       -0.400505   -0.923092   -0.107781
     19          1           0       -0.252592   -0.183170    1.480880
     20          1           0        1.213155    0.758407   -1.056082
     21          1           0        1.944004   -0.148957    0.268119
     22          1           0        1.374035    1.498319    0.537368
     23          1           0       -5.719957    3.066191   -0.297093
     24          6           0       -8.107533    4.277746   -0.451406
     25         17           0      -10.486067    2.688858    0.721037
     26          1           0       -9.330157    0.296643    1.641468
     27          1           0       -7.016941   -0.544308    1.624559
     28          9           0       -8.975630    4.201287   -1.469615
     29          9           0       -8.632498    5.110760    0.456940
     30          9           0       -7.002395    4.863275   -0.925534
 ---------------------------------------------------------------------
                    Distance matrix (angstroms):
                    1          2          3          4          5
     1  C    0.000000
     2  N    1.400548   0.000000
     3  C    2.498472   1.391200   0.000000
     4  O    2.911075   2.297663   1.211004   0.000000
     5  N    3.655551   2.306722   1.373927   2.273658   0.000000
     6  C    4.919225   3.659525   2.436805   2.751197   1.457919
     7  C    6.101632   4.742931   3.729055   4.229850   2.447168
     8  C    7.412006   6.103603   4.945918   5.174552   3.803308
     9  C    1.397413   2.464478   3.020536   2.855801   4.365290
    10  C    2.414492   3.719913   4.405787   4.188913   5.743244
    11  C    2.799593   4.198356   5.192752   5.231545   6.436246
    12  C    2.420824   3.675383   4.906411   5.258829   5.978704
    13  C    1.397219   2.393783   3.713551   4.274699   4.672711
    14  H    2.044733   1.008826   2.051759   3.149748   2.420628
    15  H    3.856406   2.466915   2.050542   3.125080   1.010030
    16  H    5.083180   3.962761   2.638229   2.576092   2.068302
    17  H    5.171111   4.017381   2.781622   2.870442   2.110967
    18  H    6.223479   4.838221   4.027006   4.711160   2.688909
    19  H    6.162256   4.807291   3.934769   4.532385   2.667662
    20  H    7.621953   6.361201   5.164938   5.286530   4.129744
    21  H    8.264829   6.914635   5.849640   6.182919   4.613046
    22  H    7.581798   6.346733   5.101808   5.136321   4.122846
    23  H    2.150854   2.720651   2.746127   2.188905   4.101599
    24  C    3.786848   4.959654   5.362042   4.838617   6.730227
    25  Cl   4.537212   5.934991   6.913957   6.869082   8.171845
    26  H    3.402557   4.539539   5.839134   6.280099   6.815817
    27  H    2.154773   2.605720   3.982087   4.778721   4.664098
    28  F    4.607726   5.798646   6.275200   5.814008   7.607727
    29  F    4.610197   5.813509   6.214114   5.645674   7.584648
    30  F    4.070699   4.962417   5.010489   4.239116   6.344881
                    6          7          8          9         10
     6  C    0.000000
     7  C    1.521498   0.000000
     8  C    2.518814   1.525447   0.000000
     9  C    5.378444   6.743830   7.890340   0.000000
    10  C    6.766374   8.132366   9.275220   1.390666   0.000000
    11  C    7.624420   8.878482  10.138356   2.419193   1.393902
    12  C    7.308404   8.403296   9.772505   2.784444   2.401912
    13  C    6.049481   7.071799   8.473659   2.406062   2.766871
    14  H    3.876933   4.676146   6.141763   3.329099   4.459125
    15  H    2.107777   2.597914   4.068447   4.776447   6.108145
    16  H    1.091104   2.161697   2.776595   5.372748   6.724124
    17  H    1.096481   2.165977   2.754984   5.453518   6.815669
    18  H    2.153217   1.096610   2.155414   6.978768   8.353543
    19  H    2.143868   1.094017   2.163904   6.919499   8.282869
    20  H    2.781623   2.173881   1.092592   7.987946   9.358523
    21  H    3.473033   2.173667   1.090941   8.840724  10.229840
    22  H    2.779240   2.171416   1.092481   7.946341   9.305955
    23  H    4.866217   6.324806   7.324339   1.078724   2.143713
    24  C    7.546859   9.002728   9.991772   2.495317   1.509552
    25  Cl   9.339586  10.612027  11.855573   4.034315   2.744724
    26  H    8.194992   9.199234  10.614557   3.867245   3.382044
    27  H    6.109022   6.930576   8.402741   3.393213   3.852558
    28  F    8.430789   9.881445  10.867447   3.419521   2.360956
    29  F    8.389165   9.830941  10.802508   3.421275   2.361585
    30  F    6.931815   8.437551   9.270625   2.673735   2.359734
                   11         12         13         14         15
    11  C    0.000000
    12  C    1.387554   0.000000
    13  C    2.401775   1.384378   0.000000
    14  H    4.685428   3.881347   2.499361   0.000000
    15  H    6.639982   6.014565   4.657946   2.226174   0.000000
    16  H    7.664017   7.463686   6.276786   4.311468   2.941185
    17  H    7.769606   7.574034   6.379755   4.371281   2.634230
    18  H    9.010577   8.442096   7.088139   4.637430   2.431266
    19  H    8.929143   8.358852   7.013320   4.604051   2.784933
    20  H   10.292253  10.012162   8.749326   6.495060   4.386327
    21  H   11.029057  10.575634   9.243065   6.829888   4.716517
    22  H   10.231591   9.952278   8.698560   6.479641   4.598527
    23  H    3.394261   3.863116   3.387648   3.709693   4.678833
    24  C    2.523944   3.792711   4.276295   5.802360   7.215581
    25  Cl   1.738046   2.692638   3.987976   6.384928   8.371416
    26  H    2.139089   1.082807   2.146581   4.563728   6.752598
    27  H    3.379788   2.135030   1.085735   2.265694   4.456538
    28  F    2.980654   4.279309   4.937715   6.598878   7.997900
    29  F    2.982463   4.281498   4.939706   6.610795   8.127734
    30  F    3.652929   4.760363   4.920866   5.915622   6.953752
                   16         17         18         19         20
    16  H    0.000000
    17  H    1.756916   0.000000
    18  H    3.063606   2.522239   0.000000
    19  H    2.493304   3.061180   1.758751   0.000000
    20  H    3.140320   2.567142   2.516071   3.077525   0.000000
    21  H    3.777285   3.762347   2.497460   2.509382   1.763790
    22  H    2.590470   3.104212   3.070577   2.522605   1.764210
    23  H    4.762584   4.825594   6.651826   6.603909   7.346426
    24  C    7.385185   7.465546   9.304037   9.237619   9.981313
    25  Cl   9.340748   9.451974  10.744845  10.655980  11.989854
    26  H    8.388152   8.504798   9.180758   9.091654  10.892723
    27  H    6.437905   6.540793   6.849942   6.775505   8.753135
    28  F    8.375404   8.230418  10.081995  10.199033  10.762703
    29  F    8.098272   8.409919  10.222133   9.964787  10.870561
    30  F    6.687019   6.745669   8.816786   8.764546   9.184892
                   21         22         23         24         25
    21  H    0.000000
    22  H    1.763768   0.000000
    23  H    8.330243   7.312952   0.000000
    24  C   11.006672   9.929906   2.681828   0.000000
    25  Cl  12.757939  11.921121   4.888228   3.091377   0.000000
    26  H   11.366237  10.827870   4.945902   4.660913   2.811763
    27  H    9.071646   8.704181   4.290759   5.362017   4.827479
    28  F   11.882035  10.883454   3.641793   1.340219   3.060689
    29  F   11.813665  10.638933   3.637543   1.339623   3.061221
    30  F   10.324017   9.144811   2.295451   1.337525   4.424393
                   26         27         28         29         30
    26  H    0.000000
    27  H    2.461392   0.000000
    28  F    5.005074   5.994251   0.000000
    29  F    5.006551   5.996094   2.157891   0.000000
    30  F    5.732547   5.978723   2.151258   2.151678   0.000000
 Stoichiometry    C11H12ClF3N2O
 Framework group  C1[X(C11H12ClF3N2O)]
 Deg. of freedom    84
 Full point group                 C1      NOp   1
 Largest Abelian subgroup         C1      NOp   1
 Largest concise Abelian subgroup C1      NOp   1
                         Standard orientation:                         
 ---------------------------------------------------------------------
 Center     Atomic      Atomic             Coordinates (Angstroms)
 Number     Number       Type             X           Y           Z
 ---------------------------------------------------------------------
      1          6           0       -0.043779   -1.076731    0.050012
      2          7           0       -1.438586   -1.183420    0.118322
      3          6           0       -2.365756   -0.159453   -0.046859
      4          8           0       -2.067066    0.987772   -0.294225
      5          7           0       -3.666256   -0.586568    0.071236
      6          6           0       -4.734443    0.405301    0.044759
      7          6           0       -6.092696   -0.278412   -0.006634
      8          6           0       -7.229576    0.737961   -0.045082
      9          6           0        0.637585    0.143249    0.062497
     10          6           0        2.027585    0.163664    0.024641
     11          6           0        2.754342   -1.024771   -0.024468
     12          6           0        2.079134   -2.236889   -0.037557
     13          6           0        0.695430   -2.261256   -0.001850
     14          1           0       -1.798222   -2.125764    0.098877
     15          1           0       -3.842684   -1.415748    0.620320
     16          1           0       -4.584649    1.027900   -0.838666
     17          1           0       -4.668774    1.068090    0.915775
     18          1           0       -6.211233   -0.927000    0.869628
     19          1           0       -6.132463   -0.926189   -0.887358
     20          1           0       -7.215790    1.379632    0.839127
     21          1           0       -8.201383    0.243638   -0.082328
     22          1           0       -7.149379    1.382076   -0.923831
     23          1           0        0.085961    1.069799    0.091851
     24          6           0        2.732857    1.498232    0.041020
     25         17           0        4.491655   -1.041543   -0.072051
     26          1           0        2.643181   -3.160298   -0.078025
     27          1           0        0.183321   -3.218558   -0.013632
     28          9           0        3.540991    1.619797    1.103248
     29          9           0        3.484659    1.677743   -1.053129
     30          9           0        1.867716    2.517018    0.091787
 ---------------------------------------------------------------------
 Rotational constants (GHZ):      0.8808710      0.1410279      0.1246528
 General basis read from cards:  (6D, 7F)
 There are   370 symmetry adapted cartesian basis functions of A   symmetry.
 There are   370 symmetry adapted basis functions of A   symmetry.
   370 basis functions,   648 primitive gaussians,   370 cartesian basis functions
    72 alpha electrons       72 beta electrons
       nuclear repulsion energy      1445.6692642551 Hartrees.
 NAtoms=   30 NActive=   30 NUniq=   30 SFac= 1.00D+00 NAtFMM=   60 NAOKFM=F Big=F
 Integral buffers will be    131072 words long.
 Raffenetti 1 integral format.
 Two-electron integral symmetry is turned on.
 One-electron integrals computed using PRISM.
 NBasis=   370 RedAO= T EigKep=  1.50D-06  NBF=   370
 NBsUse=   369 1.00D-06 EigRej=  3.50D-07 NBFU=   369
 ExpMin= 4.38D-02 ExpMax= 2.52D+04 ExpMxC= 3.78D+03 IAcc=3 IRadAn=         5 AccDes= 0.00D+00
 Harris functional with IExCor=  205 and IRadAn=       5 diagonalized for initial guess.
 HarFok:  IExCor=  205 AccDes= 0.00D+00 IRadAn=         5 IDoV= 1 UseB2=F ITyADJ=14
 ICtDFT=  3500011 ScaDFX=  1.000000  1.000000  1.000000  1.000000
 FoFCou: FMM=F IPFlag=           0 FMFlag=      100000 FMFlg1=           0
         NFxFlg=           0 DoJE=T BraDBF=F KetDBF=T FulRan=T
         wScrn=  0.000000 ICntrl=     500 IOpCl=  0 I1Cent=   200000004 NGrid=           0
         NMat0=    1 NMatS0=      1 NMatT0=    0 NMatD0=    1 NMtDS0=    0 NMtDT0=    0
 Petite list used in FoFCou.
 Requested convergence on RMS density matrix=1.00D-08 within 128 cycles.
 Requested convergence on MAX density matrix=1.00D-06.
 Requested convergence on             energy=1.00D-06.
 No special actions if energy rises.
 Initial convergence to 1.0D-05 achieved.  Increase integral accuracy.
 SCF Done:  E(RHF) =  -1365.16138670     A.U. after   17 cycles
            NFock= 17  Conv=0.95D-08     -V/T= 2.0017
 ExpMin= 4.38D-02 ExpMax= 2.52D+04 ExpMxC= 3.78D+03 IAcc=3 IRadAn=         5 AccDes= 0.00D+00
 HarFok:  IExCor=  205 AccDes= 0.00D+00 IRadAn=         5 IDoV=-2 UseB2=F ITyADJ=14
 ICtDFT= 12500011 ScaDFX=  1.000000  1.000000  1.000000  1.000000
 Range of M.O.s used for correlation:    23   369
 NBasis=   370 NAE=    72 NBE=    72 NFC=    22 NFV=     0
 NROrb=    347 NOA=    50 NOB=    50 NVA=   297 NVB=   297

 **** Warning!!: The largest alpha MO coefficient is  0.13732925D+03

 Fully direct method using O(OVN) memory.
 JobTyp=1 Pass  1:  I=   1 to  50 NPSUse=  4 ParTrn=T ParDer=T DoDerP=F.
 Spin components of T(2) and E(2):
     alpha-alpha T2 =       0.1143976799D+00 E2=     -0.3526662796D+00
     alpha-beta  T2 =       0.5875187794D+00 E2=     -0.1875971217D+01
     beta-beta   T2 =       0.1143976799D+00 E2=     -0.3526662796D+00
 ANorm=    0.1347706993D+01
 E2 =    -0.2581303776D+01 EUMP2 =    -0.13677426904794D+04

 **********************************************************************

            Population analysis using the SCF density.

 **********************************************************************

 Orbital symmetries:
       Occupied  (A) (A) (A) (A) (A) (A) (A) (A) (A) (A) (A) (A)
                 (A) (A) (A) (A) (A) (A) (A) (A) (A) (A) (A) (A)
                 (A) (A) (A) (A) (A) (A) (A) (A) (A) (A) (A) (A)
                 (A) (A) (A) (A) (A) (A) (A) (A) (A) (A) (A) (A)
                 (A) (A) (A) (A) (A) (A) (A) (A) (A) (A) (A) (A)
                 (A) (A) (A) (A) (A) (A) (A) (A) (A) (A) (A) (A)
       Virtual   (A) (A) (A) (A) (A) (A) (A) (A) (A) (A) (A) (A)
                 (A) (A) (A) (A) (A) (A) (A) (A) (A) (A) (A) (A)
                 (A) (A) (A) (A) (A) (A) (A) (A) (A) (A) (A) (A)
                 (A) (A) (A) (A) (A) (A) (A) (A) (A) (A) (A) (A)
                 (A) (A) (A) (A) (A) (A) (A) (A) (A) (A) (A) (A)
                 (A) (A) (A) (A) (A) (A) (A) (A) (A) (A) (A) (A)
                 (A) (A) (A) (A) (A) (A) (A) (A) (A) (A) (A) (A)
                 (A) (A) (A) (A) (A) (A) (A) (A) (A) (A) (A) (A)
                 (A) (A) (A) (A) (A) (A) (A) (A) (A) (A) (A) (A)
                 (A) (A) (A) (A) (A) (A) (A) (A) (A) (A) (A) (A)
                 (A) (A) (A) (A) (A) (A) (A) (A) (A) (A) (A) (A)
                 (A) (A) (A) (A) (A) (A) (A) (A) (A) (A) (A) (A)
                 (A) (A) (A) (A) (A) (A) (A) (A) (A) (A) (A) (A)
                 (A) (A) (A) (A) (A) (A) (A) (A) (A) (A) (A) (A)
                 (A) (A) (A) (A) (A) (A) (A) (A) (A) (A) (A) (A)
                 (A) (A) (A) (A) (A) (A) (A) (A) (A) (A) (A) (A)
                 (A) (A) (A) (A) (A) (A) (A) (A) (A) (A) (A) (A)
                 (A) (A) (A) (A) (A) (A) (A) (A) (A) (A) (A) (A)
                 (A) (A) (A) (A) (A) (A) (A) (A) (A) (A) (A) (A)
                 (A) (A) (A) (A) (A) (A) (A) (A) (A) (A) (A) (A)
                 (A) (A) (A) (A) (A) (A) (A) (A) (A) (A) (A) (A)
                 (A) (A) (A) (A) (A) (A) (A) (A) (A) (A) (A) (A)
                 (A) (A) (A) (A) (A) (A) (A) (A) (A) (A) (A) (A)
                 (A) (A) (A) (A) (A) (A) (A) (A) (A) (A) (A) (A)
                 (A) (A) (A) (A) (A) (A) (A) (A) (A)
 The electronic state is 1-A.
 Alpha  occ. eigenvalues -- -104.83669 -26.34866 -26.34410 -26.34396 -20.54828
 Alpha  occ. eigenvalues --  -15.62903 -15.60633 -11.51714 -11.40609 -11.32132
 Alpha  occ. eigenvalues --  -11.31904 -11.28668 -11.27391 -11.27336 -11.27100
 Alpha  occ. eigenvalues --  -11.26239 -11.24377 -11.23105 -10.56916  -8.03860
 Alpha  occ. eigenvalues --   -8.03514  -8.03509  -1.73057  -1.63317  -1.62979
 Alpha  occ. eigenvalues --   -1.42454  -1.28619  -1.24579  -1.20729  -1.12888
 Alpha  occ. eigenvalues --   -1.08279  -1.07156  -1.01766  -0.96924  -0.94265
 Alpha  occ. eigenvalues --   -0.88680  -0.86648  -0.83438  -0.82747  -0.81821
 Alpha  occ. eigenvalues --   -0.81443  -0.79364  -0.76458  -0.71767  -0.70518
 Alpha  occ. eigenvalues --   -0.70510  -0.68260  -0.67578  -0.66978  -0.65614
 Alpha  occ. eigenvalues --   -0.65254  -0.64684  -0.64046  -0.63134  -0.62679
 Alpha  occ. eigenvalues --   -0.61696  -0.59458  -0.58293  -0.56861  -0.55304
 Alpha  occ. eigenvalues --   -0.54955  -0.54050  -0.52404  -0.50901  -0.49999
 Alpha  occ. eigenvalues --   -0.49329  -0.46277  -0.45697  -0.44737  -0.41481
 Alpha  occ. eigenvalues --   -0.37507  -0.32196
 Alpha virt. eigenvalues --    0.04332   0.06804   0.07723   0.08010   0.08200
 Alpha virt. eigenvalues --    0.08566   0.09119   0.09576   0.10273   0.10731
 Alpha virt. eigenvalues --    0.11297   0.11764   0.12264   0.12815   0.13145
 Alpha virt. eigenvalues --    0.13460   0.13838   0.13956   0.14732   0.14859
 Alpha virt. eigenvalues --    0.15410   0.15809   0.17277   0.17679   0.18048
 Alpha virt. eigenvalues --    0.18538   0.19276   0.19596   0.20185   0.20873
 Alpha virt. eigenvalues --    0.21227   0.21721   0.22052   0.22779   0.23768
 Alpha virt. eigenvalues --    0.24061   0.25095   0.25675   0.26033   0.26498
 Alpha virt. eigenvalues --    0.27214   0.28489   0.28576   0.29131   0.29585
 Alpha virt. eigenvalues --    0.29855   0.30095   0.31182   0.31377   0.32442
 Alpha virt. eigenvalues --    0.32522   0.33100   0.33319   0.33677   0.33798
 Alpha virt. eigenvalues --    0.35088   0.35202   0.35450   0.36423   0.36734
 Alpha virt. eigenvalues --    0.37837   0.38002   0.38840   0.39399   0.40582
 Alpha virt. eigenvalues --    0.41027   0.41563   0.41641   0.42153   0.42667
 Alpha virt. eigenvalues --    0.42719   0.43317   0.44136   0.44613   0.44943
 Alpha virt. eigenvalues --    0.45288   0.46045   0.46368   0.46832   0.47521
 Alpha virt. eigenvalues --    0.47789   0.48442   0.49452   0.49902   0.50153
 Alpha virt. eigenvalues --    0.50559   0.51018   0.52234   0.52771   0.53198
 Alpha virt. eigenvalues --    0.54716   0.56742   0.57270   0.57987   0.58158
 Alpha virt. eigenvalues --    0.59135   0.60359   0.60906   0.62911   0.65487
 Alpha virt. eigenvalues --    0.66824   0.69940   0.73715   0.74467   0.78369
 Alpha virt. eigenvalues --    0.83533   0.84664   0.84962   0.85931   0.88925
 Alpha virt. eigenvalues --    0.89160   0.90470   0.91161   0.91820   0.92346
 Alpha virt. eigenvalues --    0.92490   0.94011   0.94356   0.94896   0.96780
 Alpha virt. eigenvalues --    0.97100   0.97663   0.99651   1.00356   1.01475
 Alpha virt. eigenvalues --    1.02394   1.03559   1.05581   1.06214   1.07101
 Alpha virt. eigenvalues --    1.07422   1.08425   1.09474   1.12391   1.13829
 Alpha virt. eigenvalues --    1.16085   1.17056   1.17825   1.18804   1.18971
 Alpha virt. eigenvalues --    1.20768   1.21150   1.22405   1.23201   1.24028
 Alpha virt. eigenvalues --    1.24711   1.25381   1.26158   1.27474   1.27969
 Alpha virt. eigenvalues --    1.28974   1.30672   1.33160   1.34330   1.36668
 Alpha virt. eigenvalues --    1.36741   1.36776   1.37654   1.38593   1.39378
 Alpha virt. eigenvalues --    1.40212   1.43979   1.44882   1.46392   1.47120
 Alpha virt. eigenvalues --    1.49025   1.50613   1.52971   1.53929   1.57908
 Alpha virt. eigenvalues --    1.59234   1.60058   1.61182   1.62769   1.64617
 Alpha virt. eigenvalues --    1.66659   1.67061   1.69136   1.69708   1.70859
 Alpha virt. eigenvalues --    1.72051   1.74021   1.76322   1.77248   1.78879
 Alpha virt. eigenvalues --    1.81405   1.83066   1.88527   1.89306   1.91922
 Alpha virt. eigenvalues --    1.92544   1.93902   1.94863   1.97916   1.98100
 Alpha virt. eigenvalues --    1.98479   2.00417   2.01263   2.01823   2.03559
 Alpha virt. eigenvalues --    2.05490   2.05779   2.08349   2.10699   2.10920
 Alpha virt. eigenvalues --    2.12416   2.13124   2.13743   2.13833   2.14186
 Alpha virt. eigenvalues --    2.16570   2.16801   2.18383   2.19283   2.19774
 Alpha virt. eigenvalues --    2.22510   2.24100   2.25562   2.26378   2.28916
 Alpha virt. eigenvalues --    2.30523   2.31656   2.32505   2.35065   2.36010
 Alpha virt. eigenvalues --    2.36261   2.39068   2.39461   2.39900   2.40026
 Alpha virt. eigenvalues --    2.42564   2.43762   2.44541   2.44883   2.49499
 Alpha virt. eigenvalues --    2.50678   2.51517   2.52921   2.55514   2.57563
 Alpha virt. eigenvalues --    2.59030   2.59384   2.60901   2.63514   2.66063
 Alpha virt. eigenvalues --    2.68349   2.70247   2.71654   2.74561   2.74665
 Alpha virt. eigenvalues --    2.78933   2.81549   2.83419   2.88010   2.91487
 Alpha virt. eigenvalues --    2.94943   2.97557   2.98885   3.00800   3.01687
 Alpha virt. eigenvalues --    3.05604   3.08209   3.09433   3.11082   3.11441
 Alpha virt. eigenvalues --    3.14949   3.16411   3.17943   3.25083   3.31181
 Alpha virt. eigenvalues --    3.33896   3.46561   3.47343   3.52454   3.59551
 Alpha virt. eigenvalues --    3.62899   3.67543   3.71345   3.80178   4.55002
 Alpha virt. eigenvalues --    4.65014   4.65882   4.69882   4.71127   4.77998
 Alpha virt. eigenvalues --    4.80155   4.81144   4.84681   4.86943   4.88898
 Alpha virt. eigenvalues --    4.96964   4.99245   5.06507   5.19921   6.02358
 Alpha virt. eigenvalues --    6.60979   7.42581
          Condensed to atoms (all electrons):
               1          2          3          4          5          6
     1  C   18.931534  -0.204649  -1.247373  -0.266637  -0.150702  -0.532609
     2  N   -0.204649   7.674517   0.225421  -0.078844  -0.202439  -0.116602
     3  C   -1.247373   0.225421   6.001220   0.642329   0.308051  -0.533670
     4  O   -0.266637  -0.078844   0.642329   8.300927  -0.132348  -0.081725
     5  N   -0.150702  -0.202439   0.308051  -0.132348   7.453334   0.382152
     6  C   -0.532609  -0.116602  -0.533670  -0.081725   0.382152   6.427663
     7  C    0.025107   0.002391  -0.004682   0.011672  -0.119541  -0.102406
     8  C   -0.003013   0.000546  -0.039258  -0.000343   0.003787  -0.063638
     9  C   -3.538635  -0.042226   1.010626   0.271483  -0.032349   0.178934
    10  C   -4.611376   0.082884   0.384426   0.048057   0.011326   0.043384
    11  C   -1.879088   0.029169  -0.249933  -0.009669  -0.022106  -0.031176
    12  C    0.564113   0.063093   0.187809   0.008016   0.017615   0.016215
    13  C    0.028357   0.099816  -1.487449  -0.065695  -0.025140  -0.147436
    14  H   -0.091366   0.273649  -0.017524   0.002112   0.013613   0.004436
    15  H    0.005724   0.032529   0.036908   0.002243   0.261940  -0.079846
    16  H   -0.008937   0.003451   0.022053  -0.009591  -0.034716   0.397774
    17  H    0.001051   0.005623   0.070660  -0.000692  -0.077192   0.392464
    18  H   -0.002760  -0.000718  -0.025364  -0.000328   0.000491  -0.028140
    19  H    0.002943   0.000673   0.036274  -0.000248  -0.000335  -0.092979
    20  H    0.000233   0.000024   0.007756  -0.000039  -0.000297  -0.024499
    21  H   -0.000003   0.000012   0.001923   0.000013   0.000347   0.054157
    22  H   -0.000161  -0.000074  -0.008771  -0.000084  -0.001149  -0.024929
    23  H    0.014190  -0.005983   0.046318  -0.007051   0.000560   0.004344
    24  C   -1.230708  -0.004724  -0.044922  -0.000820   0.009246   0.003054
    25  Cl   0.045713  -0.001678  -0.012702   0.000048   0.000059  -0.000266
    26  H   -0.036079  -0.000050   0.001999  -0.000003  -0.000007   0.000018
    27  H    0.193516  -0.011183  -0.002610   0.000079   0.000058  -0.000191
    28  F    0.033250   0.000154   0.001278   0.000005   0.000003   0.000011
    29  F    0.039400   0.000175   0.002520   0.000045   0.000002   0.000020
    30  F    0.130644  -0.000378   0.006473  -0.000230  -0.000046   0.000180
               7          8          9         10         11         12
     1  C    0.025107  -0.003013  -3.538635  -4.611376  -1.879088   0.564113
     2  N    0.002391   0.000546  -0.042226   0.082884   0.029169   0.063093
     3  C   -0.004682  -0.039258   1.010626   0.384426  -0.249933   0.187809
     4  O    0.011672  -0.000343   0.271483   0.048057  -0.009669   0.008016
     5  N   -0.119541   0.003787  -0.032349   0.011326  -0.022106   0.017615
     6  C   -0.102406  -0.063638   0.178934   0.043384  -0.031176   0.016215
     7  C    5.680822   0.227004  -0.022821  -0.002685   0.000561  -0.000335
     8  C    0.227004   5.399188  -0.000311  -0.000024  -0.000163   0.000087
     9  C   -0.022821  -0.000311  14.502306   2.477200  -3.054345   0.279842
    10  C   -0.002685  -0.000024   2.477200  18.685240  -4.832405  -2.182698
    11  C    0.000561  -0.000163  -3.054345  -4.832405  20.254386  -2.413772
    12  C   -0.000335   0.000087   0.279842  -2.182698  -2.413772  10.943086
    13  C    0.014678  -0.001197  -6.858201  -1.605306   0.340045  -1.497713
    14  H   -0.001111  -0.000069   0.053538   0.011619  -0.002380   0.026490
    15  H    0.001308   0.002667   0.014332  -0.000029   0.000188  -0.000727
    16  H   -0.030426  -0.004946   0.005422   0.000841   0.000067  -0.000006
    17  H   -0.079020  -0.001579   0.004121   0.000554   0.000154  -0.000051
    18  H    0.395628  -0.014254   0.000684   0.000042  -0.000001  -0.000004
    19  H    0.427805  -0.043216  -0.000357  -0.000011   0.000007  -0.000004
    20  H   -0.021431   0.393245  -0.000049  -0.000002   0.000000  -0.000000
    21  H   -0.089435   0.394873   0.000018   0.000000   0.000000  -0.000000
    22  H   -0.032947   0.423078  -0.000030   0.000001  -0.000000   0.000000
    23  H   -0.000136   0.000015   0.355306  -0.049292  -0.052426  -0.023550
    24  C    0.000173  -0.000010   0.014711  -1.937092  -1.513163   0.009005
    25  Cl   0.000006  -0.000001   0.022207  -0.035086  -0.538057   0.095596
    26  H   -0.000000   0.000000  -0.010325   0.100679   0.068411   0.189014
    27  H   -0.000026   0.000001   0.053045  -0.012016  -0.064153   0.072068
    28  F   -0.000000   0.000000   0.055428   0.245102  -0.224469  -0.003637
    29  F   -0.000001   0.000000   0.062617   0.221288  -0.216522   0.014011
    30  F    0.000001   0.000000   0.051113  -0.120898  -0.016799   0.003218
              13         14         15         16         17         18
     1  C    0.028357  -0.091366   0.005724  -0.008937   0.001051  -0.002760
     2  N    0.099816   0.273649   0.032529   0.003451   0.005623  -0.000718
     3  C   -1.487449  -0.017524   0.036908   0.022053   0.070660  -0.025364
     4  O   -0.065695   0.002112   0.002243  -0.009591  -0.000692  -0.000328
     5  N   -0.025140   0.013613   0.261940  -0.034716  -0.077192   0.000491
     6  C   -0.147436   0.004436  -0.079846   0.397774   0.392464  -0.028140
     7  C    0.014678  -0.001111   0.001308  -0.030426  -0.079020   0.395628
     8  C   -0.001197  -0.000069   0.002667  -0.004946  -0.001579  -0.014254
     9  C   -6.858201   0.053538   0.014332   0.005422   0.004121   0.000684
    10  C   -1.605306   0.011619  -0.000029   0.000841   0.000554   0.000042
    11  C    0.340045  -0.002380   0.000188   0.000067   0.000154  -0.000001
    12  C   -1.497713   0.026490  -0.000727  -0.000006  -0.000051  -0.000004
    13  C   17.143089  -0.013231  -0.010663  -0.001412  -0.001382  -0.000567
    14  H   -0.013231   0.276204   0.000935  -0.000001   0.000004   0.000004
    15  H   -0.010663   0.000935   0.310418   0.002217   0.001465   0.001661
    16  H   -0.001412  -0.000001   0.002217   0.464617  -0.033503   0.003159
    17  H   -0.001382   0.000004   0.001465  -0.033503   0.513766  -0.003943
    18  H   -0.000567   0.000004   0.001661   0.003159  -0.003943   0.531570
    19  H    0.000401  -0.000004   0.000432  -0.003186   0.003433  -0.034480
    20  H    0.000020  -0.000000   0.000008   0.000282   0.001319  -0.003465
    21  H   -0.000006  -0.000000  -0.000000  -0.000096  -0.000112  -0.002740
    22  H   -0.000003   0.000000  -0.000002   0.001343   0.000080   0.003557
    23  H    0.017930  -0.000083  -0.000002  -0.000003   0.000000  -0.000000
    24  C    0.410787   0.001312  -0.000041  -0.000007  -0.000060  -0.000001
    25  Cl   0.155959   0.000025  -0.000000  -0.000000  -0.000000  -0.000000
    26  H    0.020179  -0.000006   0.000000   0.000000  -0.000000   0.000000
    27  H    0.087592   0.004666   0.000004  -0.000000   0.000000  -0.000000
    28  F   -0.007017  -0.000000  -0.000000   0.000000   0.000000   0.000000
    29  F   -0.017837  -0.000000  -0.000000  -0.000000   0.000000  -0.000000
    30  F   -0.001302   0.000000   0.000000   0.000000   0.000000   0.000000
              19         20         21         22         23         24
     1  C    0.002943   0.000233  -0.000003  -0.000161   0.014190  -1.230708
     2  N    0.000673   0.000024   0.000012  -0.000074  -0.005983  -0.004724
     3  C    0.036274   0.007756   0.001923  -0.008771   0.046318  -0.044922
     4  O   -0.000248  -0.000039   0.000013  -0.000084  -0.007051  -0.000820
     5  N   -0.000335  -0.000297   0.000347  -0.001149   0.000560   0.009246
     6  C   -0.092979  -0.024499   0.054157  -0.024929   0.004344   0.003054
     7  C    0.427805  -0.021431  -0.089435  -0.032947  -0.000136   0.000173
     8  C   -0.043216   0.393245   0.394873   0.423078   0.000015  -0.000010
     9  C   -0.000357  -0.000049   0.000018  -0.000030   0.355306   0.014711
    10  C   -0.000011  -0.000002   0.000000   0.000001  -0.049292  -1.937092
    11  C    0.000007   0.000000   0.000000  -0.000000  -0.052426  -1.513163
    12  C   -0.000004  -0.000000  -0.000000   0.000000  -0.023550   0.009005
    13  C    0.000401   0.000020  -0.000006  -0.000003   0.017930   0.410787
    14  H   -0.000004  -0.000000  -0.000000   0.000000  -0.000083   0.001312
    15  H    0.000432   0.000008  -0.000000  -0.000002  -0.000002  -0.000041
    16  H   -0.003186   0.000282  -0.000096   0.001343  -0.000003  -0.000007
    17  H    0.003433   0.001319  -0.000112   0.000080   0.000000  -0.000060
    18  H   -0.034480  -0.003465  -0.002740   0.003557  -0.000000  -0.000001
    19  H    0.498643   0.003252  -0.002646  -0.003435   0.000000   0.000000
    20  H    0.003252   0.502536  -0.025483  -0.030421   0.000000   0.000000
    21  H   -0.002646  -0.025483   0.494403  -0.024782   0.000000   0.000000
    22  H   -0.003435  -0.030421  -0.024782   0.499889  -0.000000  -0.000000
    23  H    0.000000   0.000000   0.000000  -0.000000   0.333124   0.014143
    24  C    0.000000   0.000000   0.000000  -0.000000   0.014143   8.479493
    25  Cl   0.000000   0.000000   0.000000  -0.000000   0.000686  -0.002548
    26  H   -0.000000   0.000000  -0.000000   0.000000   0.000007   0.014000
    27  H   -0.000000  -0.000000   0.000000  -0.000000  -0.000079   0.004955
    28  F   -0.000000  -0.000000   0.000000   0.000000   0.000050   0.020666
    29  F    0.000000   0.000000   0.000000  -0.000000  -0.000036   0.017025
    30  F   -0.000000  -0.000000   0.000000   0.000000   0.003247   0.072271
              25         26         27         28         29         30
     1  C    0.045713  -0.036079   0.193516   0.033250   0.039400   0.130644
     2  N   -0.001678  -0.000050  -0.011183   0.000154   0.000175  -0.000378
     3  C   -0.012702   0.001999  -0.002610   0.001278   0.002520   0.006473
     4  O    0.000048  -0.000003   0.000079   0.000005   0.000045  -0.000230
     5  N    0.000059  -0.000007   0.000058   0.000003   0.000002  -0.000046
     6  C   -0.000266   0.000018  -0.000191   0.000011   0.000020   0.000180
     7  C    0.000006  -0.000000  -0.000026  -0.000000  -0.000001   0.000001
     8  C   -0.000001   0.000000   0.000001   0.000000   0.000000   0.000000
     9  C    0.022207  -0.010325   0.053045   0.055428   0.062617   0.051113
    10  C   -0.035086   0.100679  -0.012016   0.245102   0.221288  -0.120898
    11  C   -0.538057   0.068411  -0.064153  -0.224469  -0.216522  -0.016799
    12  C    0.095596   0.189014   0.072068  -0.003637   0.014011   0.003218
    13  C    0.155959   0.020179   0.087592  -0.007017  -0.017837  -0.001302
    14  H    0.000025  -0.000006   0.004666  -0.000000  -0.000000   0.000000
    15  H   -0.000000   0.000000   0.000004  -0.000000  -0.000000   0.000000
    16  H   -0.000000   0.000000  -0.000000   0.000000  -0.000000   0.000000
    17  H   -0.000000  -0.000000   0.000000   0.000000   0.000000   0.000000
    18  H   -0.000000   0.000000  -0.000000   0.000000  -0.000000   0.000000
    19  H    0.000000  -0.000000  -0.000000  -0.000000   0.000000  -0.000000
    20  H    0.000000   0.000000  -0.000000  -0.000000   0.000000  -0.000000
    21  H    0.000000  -0.000000   0.000000   0.000000   0.000000   0.000000
    22  H   -0.000000   0.000000  -0.000000   0.000000  -0.000000   0.000000
    23  H    0.000686   0.000007  -0.000079   0.000050  -0.000036   0.003247
    24  C   -0.002548   0.014000   0.004955   0.020666   0.017025   0.072271
    25  Cl  16.990705  -0.015064   0.001022  -0.007888  -0.009452  -0.000127
    26  H   -0.015064   0.403187  -0.001309   0.000025   0.000021   0.000013
    27  H    0.001022  -0.001309   0.441040   0.000001   0.000001  -0.000001
    28  F   -0.007888   0.000025   0.000001   9.294051  -0.027503  -0.016192
    29  F   -0.009452   0.000021   0.000001  -0.027503   9.292868  -0.017075
    30  F   -0.000127   0.000013  -0.000001  -0.016192  -0.017075   9.343296
 Mulliken charges:
               1
     1  C   -0.211678
     2  N   -0.824581
     3  C    0.680216
     4  O   -0.632682
     5  N   -0.664217
     6  C   -0.044695
     7  C   -0.280151
     8  C   -0.672471
     9  C    0.146719
    10  C   -0.923722
    11  C    0.427639
    12  C   -0.366779
    13  C   -0.577295
    14  H    0.457169
    15  H    0.416334
    16  H    0.225604
    17  H    0.202841
    18  H    0.179971
    19  H    0.207039
    20  H    0.197012
    21  H    0.199556
    22  H    0.198840
    23  H    0.348719
    24  C    1.663254
    25  Cl   0.310842
    26  H    0.265289
    27  H    0.233518
    28  F   -0.363316
    29  F   -0.361564
    30  F   -0.437409
 Sum of Mulliken charges =  -0.00000
 Mulliken charges with hydrogens summed into heavy atoms:
               1
     1  C   -0.211678
     2  N   -0.367413
     3  C    0.680216
     4  O   -0.632682
     5  N   -0.247882
     6  C    0.383750
     7  C    0.106859
     8  C   -0.077062
     9  C    0.495438
    10  C   -0.923722
    11  C    0.427639
    12  C   -0.101490
    13  C   -0.343777
    24  C    1.663254
    25  Cl   0.310842
    28  F   -0.363316
    29  F   -0.361564
    30  F   -0.437409
 Electronic spatial extent (au):  <R**2>=           8115.2201
 Charge=             -0.0000 electrons
 Dipole moment (field-independent basis, Debye):
    X=             -5.9976    Y=             -5.7809    Z=              1.1209  Tot=              8.4051
 Quadrupole moment (field-independent basis, Debye-Ang):
   XX=           -105.4599   YY=           -106.5439   ZZ=           -115.4787
   XY=              2.6394   XZ=             -3.8253   YZ=             -0.4902
 Traceless Quadrupole moment (field-independent basis, Debye-Ang):
   XX=              3.7009   YY=              2.6170   ZZ=             -6.3179
   XY=              2.6394   XZ=             -3.8253   YZ=             -0.4902
 Octapole moment (field-independent basis, Debye-Ang**2):
  XXX=            -98.3254  YYY=             -5.8524  ZZZ=              0.1350  XYY=              7.8245
  XXY=            -15.0271  XXZ=             10.6557  XZZ=              7.1556  YZZ=             16.5332
  YYZ=              2.4951  XYZ=              4.5492
 Hexadecapole moment (field-independent basis, Debye-Ang**3):
 XXXX=          -8605.0588 YYYY=          -1187.5327 ZZZZ=           -212.1242 XXXY=            101.3299
 XXXZ=            -36.3494 YYYX=             94.2116 YYYZ=             -1.9095 ZZZX=              1.3719
 ZZZY=             -0.0456 XXYY=          -1703.7541 XXZZ=          -1555.2148 YYZZ=           -260.4946
 XXYZ=            -19.9553 YYXZ=            -11.9349 ZZXY=             30.3814
 N-N= 1.445669264255D+03 E-N=-6.116037748109D+03  KE= 1.362853660227D+03
 1\1\GINC-R3719\SP\RMP2-FC\Gen\C11H12Cl1F3N2O1\ROOT\30-Nov-2019\0\\# MP
 2/Gen 6D SCF=Tight INT(grid=ultrafine) maxdisk=3489660928\\29.MP2_6-31
 pGd\\0,1\C,0,-6.2009231637,1.1990203291,0.6560703402\N,0,-4.9142114676
 ,0.6459745048,0.6490924609\C,0,-3.7212946558,1.3045173835,0.3685412452
 \O,0,-3.6480555079,2.4834609009,0.1015979647\N,0,-2.6215149277,0.48529
 27514,0.4523941644\C,0,-1.3212566893,1.0160004795,0.0609797986\C,0,-0.
 2179881904,0.0273533668,0.407867626\C,0,1.1560335356,0.5626239616,0.01
 73066045\C,0,-6.5036395506,2.4537168803,0.120475415\C,0,-7.8141412702,
 2.9187704705,0.1366871993\C,0,-8.8361418833,2.1438200575,0.6825167252\
 C,0,-8.5369664744,0.8980357944,1.2152670638\C,0,-7.2333003554,0.432419
 0255,1.2026408709\H,0,-4.8375477155,-0.2673863287,1.070546771\H,0,-2.7
 588539891,-0.5051818099,0.3100634237\H,0,-1.1749202459,1.9567526753,0.
 5939704971\H,0,-1.3057767869,1.2514197699,-1.0098178583\H,0,-0.4005045
 032,-0.9230921437,-0.1077813095\H,0,-0.2525923503,-0.1831702818,1.4808
 797339\H,0,1.2131551346,0.7584071106,-1.056081995\H,0,1.9440043725,-0.
 1489565459,0.2681185016\H,0,1.3740347313,1.4983193806,0.5373684005\H,0
 ,-5.7199573762,3.0661907029,-0.2970930212\C,0,-8.1075334885,4.27774643
 05,-0.4514059011\Cl,0,-10.4860670074,2.6888579962,0.7210369835\H,0,-9.
 3301565174,0.2966433893,1.6414681285\H,0,-7.016940504,-0.544307512,1.6
 245592595\F,0,-8.9756300916,4.2012870317,-1.4696151085\F,0,-8.63249835
 11,5.1107595171,0.4569397779\F,0,-7.0023947108,4.8632747122,-0.9255337
 623\\Version=ES64L-G09RevE.01\State=1-A\HF=-1365.1613867\MP2=-1367.742
 6905\RMSD=9.498e-09\PG=C01 [X(C11H12Cl1F3N2O1)]\\@


 Discoveries are often made by not following instructions,
 by going off the main road, by trying the untried.
 -- Frank Tyger
 Job cpu time:       0 days  0 hours 13 minutes 20.5 seconds.
 File lengths (MBytes):  RWF=     75 Int=      0 D2E=      0 Chk=      9 Scr=      1
 Normal termination of Gaussian 09 at Sat Nov 30 15:00:44 2019.
pbs_rusage has been removed.
Please contact help@nci.org.au if you require this functionality.
