 Entering Gaussian System, Link 0=/apps/gaussian/g09e01/g09/g09
 Initial command:
 /apps/gaussian/g09e01/g09/l1.exe "/jobfs/local/3578915.r-man2/Gau-44420.inp" -scrdir="/jobfs/local/3578915.r-man2/"
 Entering Link 1 = /apps/gaussian/g09e01/g09/l1.exe PID=     44421.
  
 Copyright (c) 1988,1990,1992,1993,1995,1998,2003,2009,2015,
            Gaussian, Inc.  All Rights Reserved.
  
 This is part of the Gaussian(R) 09 program.  It is based on
 the Gaussian(R) 03 system (copyright 2003, Gaussian, Inc.),
 the Gaussian(R) 98 system (copyright 1998, Gaussian, Inc.),
 the Gaussian(R) 94 system (copyright 1995, Gaussian, Inc.),
 the Gaussian 92(TM) system (copyright 1992, Gaussian, Inc.),
 the Gaussian 90(TM) system (copyright 1990, Gaussian, Inc.),
 the Gaussian 88(TM) system (copyright 1988, Gaussian, Inc.),
 the Gaussian 86(TM) system (copyright 1986, Carnegie Mellon
 University), and the Gaussian 82(TM) system (copyright 1983,
 Carnegie Mellon University). Gaussian is a federally registered
 trademark of Gaussian, Inc.
  
 This software contains proprietary and confidential information,
 including trade secrets, belonging to Gaussian, Inc.
  
 This software is provided under written license and may be
 used, copied, transmitted, or stored only in accord with that
 written license.
  
 The following legend is applicable only to US Government
 contracts under FAR:
  
                    RESTRICTED RIGHTS LEGEND
  
 Use, reproduction and disclosure by the US Government is
 subject to restrictions as set forth in subparagraphs (a)
 and (c) of the Commercial Computer Software - Restricted
 Rights clause in FAR 52.227-19.
  
 Gaussian, Inc.
 340 Quinnipiac St., Bldg. 40, Wallingford CT 06492
  
  
 ---------------------------------------------------------------
 Warning -- This program may not be used in any manner that
 competes with the business of Gaussian, Inc. or will provide
 assistance to any competitor of Gaussian, Inc.  The licensee
 of this program is prohibited from giving any competitor of
 Gaussian, Inc. access to this program.  By using this program,
 the user acknowledges that Gaussian, Inc. is engaged in the
 business of creating and licensing software in the field of
 computational chemistry and represents and warrants to the
 licensee that it is not a competitor of Gaussian, Inc. and that
 it will not use this program in any manner prohibited above.
 ---------------------------------------------------------------
  

 Cite this work as:
 Gaussian 09, Revision E.01,
 M. J. Frisch, G. W. Trucks, H. B. Schlegel, G. E. Scuseria, 
 M. A. Robb, J. R. Cheeseman, G. Scalmani, V. Barone, B. Mennucci, 
 G. A. Petersson, H. Nakatsuji, M. Caricato, X. Li, H. P. Hratchian, 
 A. F. Izmaylov, J. Bloino, G. Zheng, J. L. Sonnenberg, M. Hada, 
 M. Ehara, K. Toyota, R. Fukuda, J. Hasegawa, M. Ishida, T. Nakajima, 
 Y. Honda, O. Kitao, H. Nakai, T. Vreven, J. A. Montgomery, Jr., 
 J. E. Peralta, F. Ogliaro, M. Bearpark, J. J. Heyd, E. Brothers, 
 K. N. Kudin, V. N. Staroverov, T. Keith, R. Kobayashi, J. Normand, 
 K. Raghavachari, A. Rendell, J. C. Burant, S. S. Iyengar, J. Tomasi, 
 M. Cossi, N. Rega, J. M. Millam, M. Klene, J. E. Knox, J. B. Cross, 
 V. Bakken, C. Adamo, J. Jaramillo, R. Gomperts, R. E. Stratmann, 
 O. Yazyev, A. J. Austin, R. Cammi, C. Pomelli, J. W. Ochterski, 
 R. L. Martin, K. Morokuma, V. G. Zakrzewski, G. A. Voth, 
 P. Salvador, J. J. Dannenberg, S. Dapprich, A. D. Daniels, 
 O. Farkas, J. B. Foresman, J. V. Ortiz, J. Cioslowski, 
 and D. J. Fox, Gaussian, Inc., Wallingford CT, 2013.
 
 ******************************************
 Gaussian 09:  ES64L-G09RevE.01 30-Nov-2015
                14-Nov-2019 
 ******************************************
 %chk=29_c2.M062X_6-311pGd_opt_Pentadecane_GD3.chk
 %mem=196608000
 %nproc=4
 Will use up to    4 processors via shared memory.
 ----------------------------------------------------------------------
 # M062X/6-311+G* SCF=Tight INT(grid=ultrafine) OPT IOP(2/17=4) Empiric
 alDispersion=GD3 SCRF=(SMD,Solvent=n-Pentadecane) maxdisk=2147483648
 ----------------------------------------------------------------------
 1/14=-1,18=20,19=15,26=4,38=1/1,3;
 2/9=110,12=2,17=4,18=5,40=1/2;
 3/5=4,6=6,7=11,11=2,16=1,25=1,30=1,70=32201,71=1,72=151,74=-55,75=-5,124=31/1,2,3;
 4//1;
 5/5=2,32=2,38=5,53=151/2;
 6/7=2,8=2,9=2,10=2,28=1/1;
 7//1,2,3,16;
 1/14=-1,18=20,19=15,26=4/3(2);
 2/9=110,17=4/2;
 99//99;
 2/9=110,17=4/2;
 3/5=4,6=6,7=11,11=2,16=1,25=1,30=1,70=32205,71=1,72=151,74=-55,75=-5,124=31/1,2,3;
 4/5=5,16=3,69=1/1;
 5/5=2,32=2,38=5,53=151/2;
 7//1,2,3,16;
 1/14=-1,18=20,19=15,26=4/3(-5);
 2/9=110,17=4/2;
 6/7=2,8=2,9=2,10=2,19=2,28=1/1;
 99/9=1/99;
 ----------------------------------------
 29_c2.M062X_6-311pGd_opt_Pentadecane_GD3
 ----------------------------------------
 Symbolic Z-matrix:
 Charge =  0 Multiplicity = 1
 C                    -6.22629   1.44901  -0.07335 
 N                    -4.97902   0.82104  -0.02032 
 C                    -3.72694   1.42095  -0.05262 
 O                    -3.55814   2.62068  -0.15868 
 N                    -2.69572   0.52951   0.02265 
 C                    -1.32292   1.00706   0.11831 
 C                    -0.3471   -0.14672  -0.0601 
 C                     1.09905   0.32645   0.03226 
 C                    -7.35342   0.62047  -0.09083 
 C                    -8.6346    1.14921  -0.13061 
 C                    -8.80818   2.53297  -0.15454 
 C                    -7.6959    3.3597   -0.13814 
 C                    -6.41087   2.83482  -0.09834 
 H                    -5.00366  -0.18864  -0.03868 
 H                    -2.87991  -0.40855   0.34855 
 H                    -1.15503   1.50427   1.08083 
 H                    -1.17275   1.75687  -0.66033 
 H                    -0.52882  -0.62098  -1.02938 
 H                    -0.53475  -0.90683   0.70732 
 H                     1.32      1.06865  -0.73899 
 H                     1.7955   -0.504    -0.09681 
 H                     1.30461   0.78462   1.00308 
 H                    -7.22639  -0.45585  -0.07164 
 C                    -9.81446   0.21381  -0.14628 
 Cl                   -10.39258   3.25355  -0.2047 
 H                    -7.83401   4.43397  -0.15803 
 H                    -5.55838   3.49589  -0.08988 
 F                    -9.43032  -1.07195  -0.11843 
 F                    -10.61874   0.39664   0.91016 
 F                    -10.56649   0.36577  -1.24501 
 

 GradGradGradGradGradGradGradGradGradGradGradGradGradGradGradGradGradGrad
 Berny optimization.
 Initialization pass.
                           ----------------------------
                           !    Initial Parameters    !
                           ! (Angstroms and Degrees)  !
 --------------------------                            --------------------------
 ! Name  Definition              Value          Derivative Info.                !
 --------------------------------------------------------------------------------
 ! R1    R(1,2)                  1.3974         estimate D2E/DX2                !
 ! R2    R(1,9)                  1.399          estimate D2E/DX2                !
 ! R3    R(1,13)                 1.3983         estimate D2E/DX2                !
 ! R4    R(2,3)                  1.3888         estimate D2E/DX2                !
 ! R5    R(2,14)                 1.0102         estimate D2E/DX2                !
 ! R6    R(3,4)                  1.2162         estimate D2E/DX2                !
 ! R7    R(3,5)                  1.3652         estimate D2E/DX2                !
 ! R8    R(5,6)                  1.4566         estimate D2E/DX2                !
 ! R9    R(5,15)                 1.01           estimate D2E/DX2                !
 ! R10   R(6,7)                  1.5216         estimate D2E/DX2                !
 ! R11   R(6,16)                 1.0963         estimate D2E/DX2                !
 ! R12   R(6,17)                 1.0914         estimate D2E/DX2                !
 ! R13   R(7,8)                  1.5244         estimate D2E/DX2                !
 ! R14   R(7,18)                 1.0943         estimate D2E/DX2                !
 ! R15   R(7,19)                 1.0963         estimate D2E/DX2                !
 ! R16   R(8,20)                 1.0929         estimate D2E/DX2                !
 ! R17   R(8,21)                 1.0915         estimate D2E/DX2                !
 ! R18   R(8,22)                 1.093          estimate D2E/DX2                !
 ! R19   R(9,10)                 1.3866         estimate D2E/DX2                !
 ! R20   R(9,23)                 1.084          estimate D2E/DX2                !
 ! R21   R(10,11)                1.3948         estimate D2E/DX2                !
 ! R22   R(10,24)                1.5058         estimate D2E/DX2                !
 ! R23   R(11,12)                1.386          estimate D2E/DX2                !
 ! R24   R(11,25)                1.7413         estimate D2E/DX2                !
 ! R25   R(12,13)                1.3887         estimate D2E/DX2                !
 ! R26   R(12,26)                1.0833         estimate D2E/DX2                !
 ! R27   R(13,27)                1.0788         estimate D2E/DX2                !
 ! R28   R(24,28)                1.3422         estimate D2E/DX2                !
 ! R29   R(24,29)                1.3403         estimate D2E/DX2                !
 ! R30   R(24,30)                1.3401         estimate D2E/DX2                !
 ! A1    A(2,1,9)              116.9638         estimate D2E/DX2                !
 ! A2    A(2,1,13)             124.3238         estimate D2E/DX2                !
 ! A3    A(9,1,13)             118.7102         estimate D2E/DX2                !
 ! A4    A(1,2,3)              127.5681         estimate D2E/DX2                !
 ! A5    A(1,2,14)             115.2588         estimate D2E/DX2                !
 ! A6    A(3,2,14)             116.9579         estimate D2E/DX2                !
 ! A7    A(2,3,4)              123.5932         estimate D2E/DX2                !
 ! A8    A(2,3,5)              113.4332         estimate D2E/DX2                !
 ! A9    A(4,3,5)              122.964          estimate D2E/DX2                !
 ! A10   A(3,5,6)              120.095          estimate D2E/DX2                !
 ! A11   A(3,5,15)             119.1116         estimate D2E/DX2                !
 ! A12   A(6,5,15)             117.076          estimate D2E/DX2                !
 ! A13   A(5,6,7)              110.3716         estimate D2E/DX2                !
 ! A14   A(5,6,16)             110.5292         estimate D2E/DX2                !
 ! A15   A(5,6,17)             107.9434         estimate D2E/DX2                !
 ! A16   A(7,6,16)             110.4036         estimate D2E/DX2                !
 ! A17   A(7,6,17)             110.4298         estimate D2E/DX2                !
 ! A18   A(16,6,17)            107.0816         estimate D2E/DX2                !
 ! A19   A(6,7,8)              111.4648         estimate D2E/DX2                !
 ! A20   A(6,7,18)             109.0253         estimate D2E/DX2                !
 ! A21   A(6,7,19)             109.5047         estimate D2E/DX2                !
 ! A22   A(8,7,18)             110.2264         estimate D2E/DX2                !
 ! A23   A(8,7,19)             109.5837         estimate D2E/DX2                !
 ! A24   A(18,7,19)            106.9252         estimate D2E/DX2                !
 ! A25   A(7,8,20)             111.0892         estimate D2E/DX2                !
 ! A26   A(7,8,21)             111.2229         estimate D2E/DX2                !
 ! A27   A(7,8,22)             111.244          estimate D2E/DX2                !
 ! A28   A(20,8,21)            107.7122         estimate D2E/DX2                !
 ! A29   A(20,8,22)            107.7042         estimate D2E/DX2                !
 ! A30   A(21,8,22)            107.6955         estimate D2E/DX2                !
 ! A31   A(1,9,10)             121.2615         estimate D2E/DX2                !
 ! A32   A(1,9,23)             119.5659         estimate D2E/DX2                !
 ! A33   A(10,9,23)            119.1725         estimate D2E/DX2                !
 ! A34   A(9,10,11)            119.5905         estimate D2E/DX2                !
 ! A35   A(9,10,24)            119.171          estimate D2E/DX2                !
 ! A36   A(11,10,24)           121.2385         estimate D2E/DX2                !
 ! A37   A(10,11,12)           119.4517         estimate D2E/DX2                !
 ! A38   A(10,11,25)           121.6192         estimate D2E/DX2                !
 ! A39   A(12,11,25)           118.9292         estimate D2E/DX2                !
 ! A40   A(11,12,13)           121.166          estimate D2E/DX2                !
 ! A41   A(11,12,26)           119.2744         estimate D2E/DX2                !
 ! A42   A(13,12,26)           119.5596         estimate D2E/DX2                !
 ! A43   A(1,13,12)            119.8201         estimate D2E/DX2                !
 ! A44   A(1,13,27)            120.1894         estimate D2E/DX2                !
 ! A45   A(12,13,27)           119.9902         estimate D2E/DX2                !
 ! A46   A(10,24,28)           111.7539         estimate D2E/DX2                !
 ! A47   A(10,24,29)           112.1644         estimate D2E/DX2                !
 ! A48   A(10,24,30)           112.1979         estimate D2E/DX2                !
 ! A49   A(28,24,29)           106.6223         estimate D2E/DX2                !
 ! A50   A(28,24,30)           106.6332         estimate D2E/DX2                !
 ! A51   A(29,24,30)           107.0999         estimate D2E/DX2                !
 ! D1    D(9,1,2,3)            176.9447         estimate D2E/DX2                !
 ! D2    D(9,1,2,14)             2.4822         estimate D2E/DX2                !
 ! D3    D(13,1,2,3)            -3.6028         estimate D2E/DX2                !
 ! D4    D(13,1,2,14)         -178.0653         estimate D2E/DX2                !
 ! D5    D(2,1,9,10)           179.4126         estimate D2E/DX2                !
 ! D6    D(2,1,9,23)            -0.5028         estimate D2E/DX2                !
 ! D7    D(13,1,9,10)           -0.0719         estimate D2E/DX2                !
 ! D8    D(13,1,9,23)         -179.9872         estimate D2E/DX2                !
 ! D9    D(2,1,13,12)         -179.3719         estimate D2E/DX2                !
 ! D10   D(2,1,13,27)            0.8185         estimate D2E/DX2                !
 ! D11   D(9,1,13,12)            0.0718         estimate D2E/DX2                !
 ! D12   D(9,1,13,27)         -179.7378         estimate D2E/DX2                !
 ! D13   D(1,2,3,4)             -1.3495         estimate D2E/DX2                !
 ! D14   D(1,2,3,5)            179.747          estimate D2E/DX2                !
 ! D15   D(14,2,3,4)           173.0317         estimate D2E/DX2                !
 ! D16   D(14,2,3,5)            -5.8718         estimate D2E/DX2                !
 ! D17   D(2,3,5,6)           -174.6501         estimate D2E/DX2                !
 ! D18   D(2,3,5,15)           -16.9974         estimate D2E/DX2                !
 ! D19   D(4,3,5,6)              6.4386         estimate D2E/DX2                !
 ! D20   D(4,3,5,15)           164.0913         estimate D2E/DX2                !
 ! D21   D(3,5,6,7)           -169.9118         estimate D2E/DX2                !
 ! D22   D(3,5,6,16)            67.6655         estimate D2E/DX2                !
 ! D23   D(3,5,6,17)           -49.1392         estimate D2E/DX2                !
 ! D24   D(15,5,6,7)            31.9937         estimate D2E/DX2                !
 ! D25   D(15,5,6,16)          -90.429          estimate D2E/DX2                !
 ! D26   D(15,5,6,17)          152.7663         estimate D2E/DX2                !
 ! D27   D(5,6,7,8)            179.8612         estimate D2E/DX2                !
 ! D28   D(5,6,7,18)            57.9539         estimate D2E/DX2                !
 ! D29   D(5,6,7,19)           -58.7149         estimate D2E/DX2                !
 ! D30   D(16,6,7,8)           -57.6425         estimate D2E/DX2                !
 ! D31   D(16,6,7,18)         -179.5498         estimate D2E/DX2                !
 ! D32   D(16,6,7,19)           63.7814         estimate D2E/DX2                !
 ! D33   D(17,6,7,8)            60.5859         estimate D2E/DX2                !
 ! D34   D(17,6,7,18)          -61.3214         estimate D2E/DX2                !
 ! D35   D(17,6,7,19)         -177.9902         estimate D2E/DX2                !
 ! D36   D(6,7,8,20)           -59.9958         estimate D2E/DX2                !
 ! D37   D(6,7,8,21)          -179.9668         estimate D2E/DX2                !
 ! D38   D(6,7,8,22)            59.9792         estimate D2E/DX2                !
 ! D39   D(18,7,8,20)           61.2142         estimate D2E/DX2                !
 ! D40   D(18,7,8,21)          -58.7568         estimate D2E/DX2                !
 ! D41   D(18,7,8,22)         -178.8108         estimate D2E/DX2                !
 ! D42   D(19,7,8,20)          178.6262         estimate D2E/DX2                !
 ! D43   D(19,7,8,21)           58.6551         estimate D2E/DX2                !
 ! D44   D(19,7,8,22)          -61.3988         estimate D2E/DX2                !
 ! D45   D(1,9,10,11)            0.037          estimate D2E/DX2                !
 ! D46   D(1,9,10,24)         -179.9252         estimate D2E/DX2                !
 ! D47   D(23,9,10,11)         179.9527         estimate D2E/DX2                !
 ! D48   D(23,9,10,24)          -0.0094         estimate D2E/DX2                !
 ! D49   D(9,10,11,12)          -0.0017         estimate D2E/DX2                !
 ! D50   D(9,10,11,25)         179.999          estimate D2E/DX2                !
 ! D51   D(24,10,11,12)        179.9596         estimate D2E/DX2                !
 ! D52   D(24,10,11,25)         -0.0397         estimate D2E/DX2                !
 ! D53   D(9,10,24,28)          -0.032          estimate D2E/DX2                !
 ! D54   D(9,10,24,29)         119.6461         estimate D2E/DX2                !
 ! D55   D(9,10,24,30)        -119.7472         estimate D2E/DX2                !
 ! D56   D(11,10,24,28)       -179.9935         estimate D2E/DX2                !
 ! D57   D(11,10,24,29)        -60.3155         estimate D2E/DX2                !
 ! D58   D(11,10,24,30)         60.2913         estimate D2E/DX2                !
 ! D59   D(10,11,12,13)          0.0027         estimate D2E/DX2                !
 ! D60   D(10,11,12,26)        179.9258         estimate D2E/DX2                !
 ! D61   D(25,11,12,13)       -179.9979         estimate D2E/DX2                !
 ! D62   D(25,11,12,26)         -0.0749         estimate D2E/DX2                !
 ! D63   D(11,12,13,1)          -0.0384         estimate D2E/DX2                !
 ! D64   D(11,12,13,27)        179.7715         estimate D2E/DX2                !
 ! D65   D(26,12,13,1)        -179.9613         estimate D2E/DX2                !
 ! D66   D(26,12,13,27)         -0.1513         estimate D2E/DX2                !
 --------------------------------------------------------------------------------
 Trust Radius=3.00D-01 FncErr=1.00D-07 GrdErr=1.00D-06
 Number of steps in this run=    157 maximum allowed number of steps=    180.
 GradGradGradGradGradGradGradGradGradGradGradGradGradGradGradGradGradGrad

                          Input orientation:                          
 ---------------------------------------------------------------------
 Center     Atomic      Atomic             Coordinates (Angstroms)
 Number     Number       Type             X           Y           Z
 ---------------------------------------------------------------------
      1          6           0       -6.226288    1.449012   -0.073347
      2          7           0       -4.979024    0.821045   -0.020317
      3          6           0       -3.726943    1.420945   -0.052618
      4          8           0       -3.558143    2.620680   -0.158678
      5          7           0       -2.695723    0.529507    0.022651
      6          6           0       -1.322925    1.007062    0.118313
      7          6           0       -0.347098   -0.146720   -0.060098
      8          6           0        1.099051    0.326448    0.032257
      9          6           0       -7.353419    0.620467   -0.090835
     10          6           0       -8.634598    1.149215   -0.130612
     11          6           0       -8.808183    2.532975   -0.154541
     12          6           0       -7.695899    3.359697   -0.138139
     13          6           0       -6.410875    2.834819   -0.098339
     14          1           0       -5.003660   -0.188641   -0.038676
     15          1           0       -2.879907   -0.408554    0.348546
     16          1           0       -1.155032    1.504267    1.080828
     17          1           0       -1.172747    1.756874   -0.660333
     18          1           0       -0.528819   -0.620976   -1.029385
     19          1           0       -0.534751   -0.906835    0.707316
     20          1           0        1.320001    1.068649   -0.738991
     21          1           0        1.795504   -0.504000   -0.096815
     22          1           0        1.304613    0.784616    1.003084
     23          1           0       -7.226385   -0.455853   -0.071642
     24          6           0       -9.814463    0.213812   -0.146278
     25         17           0      -10.392582    3.253546   -0.204702
     26          1           0       -7.834009    4.433974   -0.158025
     27          1           0       -5.558380    3.495893   -0.089882
     28          9           0       -9.430323   -1.071952   -0.118433
     29          9           0      -10.618744    0.396637    0.910165
     30          9           0      -10.566490    0.365772   -1.245012
 ---------------------------------------------------------------------
                    Distance matrix (angstroms):
                    1          2          3          4          5
     1  C    0.000000
     2  N    1.397434   0.000000
     3  C    2.499588   1.388751   0.000000
     4  O    2.915319   2.297115   1.216186   0.000000
     5  N    3.649602   2.302239   1.365190   2.269285   0.000000
     6  C    4.926969   3.663452   2.445368   2.770684   1.456635
     7  C    6.091914   4.732113   3.725720   4.240170   2.445439
     8  C    7.411606   6.098393   4.949278   5.195134   3.800216
     9  C    1.399005   2.383895   3.713967   4.290638   4.659966
    10  C    2.427574   3.671932   4.915791   5.285489   5.973087
    11  C    2.801384   4.196568   5.202499   5.250775   6.434862
    12  C    2.411363   3.720221   4.417995   4.203284   5.747833
    13  C    1.398269   2.472159   3.033911   2.861394   4.373951
    14  H    2.043998   1.010153   2.054499   3.161678   2.417864
    15  H    3.850560   2.460542   2.055595   3.145400   1.009994
    16  H    5.201232   4.037602   2.811827   2.925354   2.107991
    17  H    5.096823   3.971541   2.646901   2.586103   2.071800
    18  H    6.136775   4.785600   3.918101   4.521423   2.669431
    19  H    6.209110   4.823544   4.023202   4.725908   2.683588
    20  H    7.585132   6.344723   5.105572   5.151878   4.122719
    21  H    8.256147   6.903321   5.848487   6.199113   4.610156
    22  H    7.636400   6.366536   5.180346   5.326089   4.126624
    23  H    2.151443   2.585292   3.970998   4.788386   4.637534
    24  C    3.795528   4.875045   6.206757   6.703335   7.127738
    25  Cl   4.542202   5.937817   6.914643   6.863832   8.167846
    26  H    3.391450   4.606860   5.094844   4.644466   6.455965
    27  H    2.153160   2.737755   2.767843   2.184417   4.123944
    28  F    4.077147   4.838091   6.224742   6.936833   6.923829
    29  F    4.622603   5.731697   7.033709   7.479363   7.973681
    30  F    4.624236   5.738199   7.022435   7.441886   7.973880
                    6          7          8          9         10
     6  C    0.000000
     7  C    1.521605   0.000000
     8  C    2.517262   1.524390   0.000000
     9  C    6.046491   7.048266   8.458478   0.000000
    10  C    7.317291   8.388510   9.769719   1.386571   0.000000
    11  C    7.644080   8.875791  10.151697   2.403765   1.394810
    12  C    6.798195   8.142846   9.304880   2.760962   2.401550
    13  C    5.410625   6.757250   7.918836   2.406616   2.790564
    14  H    3.873262   4.656800   6.124821   2.485708   3.870662
    15  H    2.116877   2.578889   4.058617   4.611317   5.981029
    16  H    1.096283   2.163383   2.750936   6.369764   7.585352
    17  H    1.091358   2.160012   2.772520   6.310028   7.505270
    18  H    2.144369   1.094284   2.162096   6.999801   8.345359
    19  H    2.152009   1.096317   2.155459   7.033059   8.398630
    20  H    2.779176   2.171919   1.092933   8.709143   9.973498
    21  H    3.471914   2.172496   1.091490   9.217769  10.560365
    22  H    2.781413   2.173912   1.093014   8.728409  10.010301
    23  H    6.084986   6.886240   8.362756   1.083961   2.136068
    24  C    8.532612   9.474619  10.915555   2.495031   1.505757
    25  Cl   9.349316  10.606341  11.860931   4.022759   2.743028
    26  H    7.363036   8.777596   9.833999   3.844258   3.381026
    27  H    4.916981   6.358222   7.374394   3.389726   3.869325
    28  F    8.373067   9.130413  10.622898   2.679286   2.359430
    29  F    9.349433  10.331668  11.750845   3.422637   2.363561
    30  F    9.365544  10.300615  11.735324   3.423569   2.363869
                   11         12         13         14         15
    11  C    0.000000
    12  C    1.385971   0.000000
    13  C    2.416890   1.388657   0.000000
    14  H    4.679211   4.455193   3.335434   0.000000
    15  H    6.637029   6.134359   4.815278   2.169938   0.000000
    16  H    7.820173   6.907347   5.548395   4.350995   2.677744
    17  H    7.691426   6.737450   5.377339   4.341357   2.936207
    18  H    8.902844   8.246642   6.885342   4.603543   2.733392
    19  H    9.001376   8.378552   7.012694   4.587314   2.424202
    20  H   10.250168   9.321822   7.955892   6.485360   4.583022
    21  H   11.030174  10.247761   8.859592   6.806722   4.697545
    22  H   10.327900   9.430941   8.058860   6.467364   4.400259
    23  H    3.382610   3.844904   3.390323   2.238973   4.366998
    24  C    2.528079   3.792752   4.296089   4.828806   6.979990
    25  Cl   1.741280   2.699592   4.005076   6.396616   8.375998
    26  H    2.136077   1.083301   2.141535   5.421595   6.946209
    27  H    3.390076   2.142397   1.078813   3.726409   4.755117
    28  F    3.658395   4.759005   4.937644   4.514637   6.600464
    29  F    2.995942   4.292049   4.966686   5.724685   7.800855
    30  F    2.996254   4.292907   4.967916   5.719065   7.888129
                   16         17         18         19         20
    16  H    0.000000
    17  H    1.759479   0.000000
    18  H    3.059705   2.490987   0.000000
    19  H    2.517473   3.061511   1.760079   0.000000
    20  H    3.102788   2.587206   2.521367   3.071554   0.000000
    21  H    3.758410   3.773543   2.507160   2.497797   1.764006
    22  H    2.563942   3.138401   3.077027   2.516296   1.765145
    23  H    6.483178   6.472191   6.767712   6.751898   8.706904
    24  C    8.840634   8.793437   9.364823   9.386028  11.182948
    25  Cl   9.489199   9.351629  10.629479  10.738593  11.926602
    26  H    7.397748   7.196636   8.926229   9.085825   9.770303
    27  H    4.972586   4.752197   6.567172   6.727286   7.322908
    28  F    8.749604   8.745483   8.959352   8.935342  10.978922
    29  F    9.529838   9.671792  10.324919  10.169911  12.070830
    30  F    9.761212   9.514170  10.088360  10.298879  11.918002
                   21         22         23         24         25
    21  H    0.000000
    22  H    1.763883   0.000000
    23  H    9.022054   8.687447   0.000000
    24  C   11.632241  11.192886   2.674353   0.000000
    25  Cl  12.754616  12.015770   4.878745   3.094773   0.000000
    26  H   10.821962   9.908602   4.928192   4.661770   2.818135
    27  H    8.371309   7.459643   4.289391   5.374893   4.841634
    28  F   11.240207  10.951872   2.288910   1.342210   4.432078
    29  F   12.487542  11.930029   3.633012   1.340286   3.075062
    30  F   12.445633  12.089354   3.634304   1.340095   3.074366
                   26         27         28         29         30
    26  H    0.000000
    27  H    2.462341   0.000000
    28  F    5.732801   5.988152   0.000000
    29  F    5.019548   6.017704   2.151072   0.000000
    30  F    5.019787   6.017736   2.151071   2.156031   0.000000
 Stoichiometry    C11H12ClF3N2O
 Framework group  C1[X(C11H12ClF3N2O)]
 Deg. of freedom    84
 Full point group                 C1      NOp   1
 Largest Abelian subgroup         C1      NOp   1
 Largest concise Abelian subgroup C1      NOp   1
                         Standard orientation:                         
 ---------------------------------------------------------------------
 Center     Atomic      Atomic             Coordinates (Angstroms)
 Number     Number       Type             X           Y           Z
 ---------------------------------------------------------------------
      1          6           0        0.128175   -0.199600   -0.019646
      2          7           0        1.424199    0.322651   -0.039589
      3          6           0        2.621102   -0.380207    0.005615
      4          8           0        2.687302   -1.591301    0.094935
      5          7           0        3.724250    0.422951   -0.036151
      6          6           0        5.054115   -0.166184   -0.114654
      7          6           0        6.118967    0.899218    0.100500
      8          6           0        7.522214    0.308273    0.026711
      9          6           0       -0.926166    0.719893   -0.009030
     10          6           0       -2.247460    0.299535   -0.001318
     11          6           0       -2.536113   -1.065079   -0.003375
     12          6           0       -1.496433   -1.981531   -0.013145
     13          6           0       -0.171630   -1.565350   -0.020874
     14          1           0        1.483380    1.330477   -0.005035
     15          1           0        3.625224    1.377878   -0.349834
     16          1           0        5.198780   -0.661273   -1.082019
     17          1           0        5.126096   -0.937452    0.654128
     18          1           0        5.958480    1.372494    1.074005
     19          1           0        6.010286    1.683714   -0.657566
     20          1           0        7.665486   -0.461215    0.789512
     21          1           0        8.282753    1.075593    0.182121
     22          1           0        7.707824   -0.150944   -0.947634
     23          1           0       -0.709590    1.781997   -0.008156
     24          6           0       -3.345408    1.329934    0.008278
     25         17           0       -4.175692   -1.651382    0.006032
     26          1           0       -1.723888   -3.040684   -0.013494
     27          1           0        0.622853   -2.295158   -0.024702
     28          9           0       -2.855057    2.579367    0.008638
     29          9           0       -4.141339    1.230740   -1.065510
     30          9           0       -4.128788    1.224989    1.090477
 ---------------------------------------------------------------------
 Rotational constants (GHZ):      0.9468295      0.1280001      0.1153062
 Standard basis: 6-311+G(d) (5D, 7F)
 There are   458 symmetry adapted cartesian basis functions of A   symmetry.
 There are   440 symmetry adapted basis functions of A   symmetry.
   440 basis functions,   725 primitive gaussians,   458 cartesian basis functions
    72 alpha electrons       72 beta electrons
       nuclear repulsion energy      1429.7709094244 Hartrees.
 NAtoms=   30 NActive=   30 NUniq=   30 SFac= 1.00D+00 NAtFMM=   60 NAOKFM=F Big=F
 Integral buffers will be    131072 words long.
 Raffenetti 2 integral format.
 Two-electron integral symmetry is turned on.
 Nuclear repulsion after empirical dispersion term =     1429.7696178411 Hartrees.
 ------------------------------------------------------------------------------
 Polarizable Continuum Model (PCM)
 =================================
 Model                : PCM (using non-symmetric T matrix).
 Atomic radii         : SMD-Coulomb.
 Polarization charges : Total charges.
 Charge compensation  : None.
 Solution method      : On-the-fly selection.
 Cavity type          : VdW (van der Waals Surface) (Alpha=1.000).
 Cavity algorithm     : GePol (No added spheres)
                        Default sphere list used, NSphG=   30.
                        Lebedev-Laikov grids with approx.  5.0 points / Ang**2.
                        Smoothing algorithm: York/Karplus (Gamma=1.0000).
                        Polarization charges: spherical gaussians, with
                                              point-specific exponents (IZeta= 3).
                        Self-potential: point-specific (ISelfS= 7).
                        Self-field    : sphere-specific E.n sum rule (ISelfD= 2).
 1st derivatives      : Analytical E(r).r(x)/FMM algorithm (CHGder, D1EAlg=3).
                        Cavity 1st derivative terms included.
 Solvent              : n-Pentadecane, Eps=   2.033300 Eps(inf)=   2.049192
 ------------------------------------------------------------------------------
 ------------------------------------------------------------------------------
 Atomic radii for non-electrostatic terms: SMD-CDS.
 ------------------------------------------------------------------------------
 Nuclear repulsion after PCM non-electrostatic terms =     1429.7622499146 Hartrees.
 One-electron integrals computed using PRISM.
 NBasis=   440 RedAO= T EigKep=  1.58D-06  NBF=   440
 NBsUse=   438 1.00D-06 EigRej=  8.58D-07 NBFU=   438
 ExpMin= 4.38D-02 ExpMax= 1.06D+05 ExpMxC= 3.62D+03 IAcc=3 IRadAn=         5 AccDes= 0.00D+00
 Harris functional with IExCor= 1009 and IRadAn=       5 diagonalized for initial guess.
 HarFok:  IExCor= 1009 AccDes= 0.00D+00 IRadAn=         5 IDoV= 1 UseB2=F ITyADJ=14
 ICtDFT=  3500011 ScaDFX=  1.000000  1.000000  1.000000  1.000000
 FoFCou: FMM=F IPFlag=           0 FMFlag=      100000 FMFlg1=           0
         NFxFlg=           0 DoJE=T BraDBF=F KetDBF=T FulRan=T
         wScrn=  0.000000 ICntrl=     500 IOpCl=  0 I1Cent=   200000004 NGrid=           0
         NMat0=    1 NMatS0=      1 NMatT0=    0 NMatD0=    1 NMtDS0=    0 NMtDT0=    0
 Petite list used in FoFCou.
 Requested convergence on RMS density matrix=1.00D-08 within 128 cycles.
 Requested convergence on MAX density matrix=1.00D-06.
 Requested convergence on             energy=1.00D-06.
 No special actions if energy rises.
 Inv3:  Mode=1 IEnd=    18095808.
 Iteration    1 A*A^-1 deviation from unit magnitude is 3.55D-15 for   2438.
 Iteration    1 A*A^-1 deviation from orthogonality  is 2.28D-15 for   2370    826.
 Iteration    1 A^-1*A deviation from unit magnitude is 3.44D-15 for    372.
 Iteration    1 A^-1*A deviation from orthogonality  is 3.87D-14 for   1816   1801.
 Error on total polarization charges =  0.01969
 SCF Done:  E(RM062X) =  -1370.81148663     A.U. after   15 cycles
            NFock= 15  Conv=0.53D-08     -V/T= 2.0029
 SMD-CDS (non-electrostatic) energy       (kcal/mol) =      -4.62
 (included in total energy above)

 **********************************************************************

            Population analysis using the SCF density.

 **********************************************************************

 Orbital symmetries:
       Occupied  (A) (A) (A) (A) (A) (A) (A) (A) (A) (A) (A) (A)
                 (A) (A) (A) (A) (A) (A) (A) (A) (A) (A) (A) (A)
                 (A) (A) (A) (A) (A) (A) (A) (A) (A) (A) (A) (A)
                 (A) (A) (A) (A) (A) (A) (A) (A) (A) (A) (A) (A)
                 (A) (A) (A) (A) (A) (A) (A) (A) (A) (A) (A) (A)
                 (A) (A) (A) (A) (A) (A) (A) (A) (A) (A) (A) (A)
       Virtual   (A) (A) (A) (A) (A) (A) (A) (A) (A) (A) (A) (A)
                 (A) (A) (A) (A) (A) (A) (A) (A) (A) (A) (A) (A)
                 (A) (A) (A) (A) (A) (A) (A) (A) (A) (A) (A) (A)
                 (A) (A) (A) (A) (A) (A) (A) (A) (A) (A) (A) (A)
                 (A) (A) (A) (A) (A) (A) (A) (A) (A) (A) (A) (A)
                 (A) (A) (A) (A) (A) (A) (A) (A) (A) (A) (A) (A)
                 (A) (A) (A) (A) (A) (A) (A) (A) (A) (A) (A) (A)
                 (A) (A) (A) (A) (A) (A) (A) (A) (A) (A) (A) (A)
                 (A) (A) (A) (A) (A) (A) (A) (A) (A) (A) (A) (A)
                 (A) (A) (A) (A) (A) (A) (A) (A) (A) (A) (A) (A)
                 (A) (A) (A) (A) (A) (A) (A) (A) (A) (A) (A) (A)
                 (A) (A) (A) (A) (A) (A) (A) (A) (A) (A) (A) (A)
                 (A) (A) (A) (A) (A) (A) (A) (A) (A) (A) (A) (A)
                 (A) (A) (A) (A) (A) (A) (A) (A) (A) (A) (A) (A)
                 (A) (A) (A) (A) (A) (A) (A) (A) (A) (A) (A) (A)
                 (A) (A) (A) (A) (A) (A) (A) (A) (A) (A) (A) (A)
                 (A) (A) (A) (A) (A) (A) (A) (A) (A) (A) (A) (A)
                 (A) (A) (A) (A) (A) (A) (A) (A) (A) (A) (A) (A)
                 (A) (A) (A) (A) (A) (A) (A) (A) (A) (A) (A) (A)
                 (A) (A) (A) (A) (A) (A) (A) (A) (A) (A) (A) (A)
                 (A) (A) (A) (A) (A) (A) (A) (A) (A) (A) (A) (A)
                 (A) (A) (A) (A) (A) (A) (A) (A) (A) (A) (A) (A)
                 (A) (A) (A) (A) (A) (A) (A) (A) (A) (A) (A) (A)
                 (A) (A) (A) (A) (A) (A) (A) (A) (A) (A) (A) (A)
                 (A) (A) (A) (A) (A) (A) (A) (A) (A) (A) (A) (A)
                 (A) (A) (A) (A) (A) (A) (A) (A) (A) (A) (A) (A)
                 (A) (A) (A) (A) (A) (A) (A) (A) (A) (A) (A) (A)
                 (A) (A) (A) (A) (A) (A) (A) (A) (A) (A) (A) (A)
                 (A) (A) (A) (A) (A) (A) (A) (A) (A) (A) (A) (A)
                 (A) (A) (A) (A) (A) (A) (A) (A) (A) (A) (A) (A)
                 (A) (A) (A) (A) (A) (A)
 The electronic state is 1-A.
 Alpha  occ. eigenvalues -- -102.68411 -25.28541 -25.27988 -25.27986 -19.59772
 Alpha  occ. eigenvalues --  -14.79784 -14.77629 -10.81158 -10.68572 -10.62152
 Alpha  occ. eigenvalues --  -10.61629 -10.59174 -10.57435 -10.57425 -10.56774
 Alpha  occ. eigenvalues --  -10.56007 -10.54321 -10.52903  -9.82685  -7.55205
 Alpha  occ. eigenvalues --   -7.54514  -7.54507  -1.47716  -1.38310  -1.37962
 Alpha  occ. eigenvalues --   -1.19145  -1.07468  -1.04109  -1.01355  -0.94951
 Alpha  occ. eigenvalues --   -0.90408  -0.89028  -0.85085  -0.81556  -0.78438
 Alpha  occ. eigenvalues --   -0.74668  -0.72601  -0.70532  -0.69980  -0.69549
 Alpha  occ. eigenvalues --   -0.69416  -0.65552  -0.64735  -0.60091  -0.58218
 Alpha  occ. eigenvalues --   -0.58147  -0.57592  -0.56622  -0.55673  -0.54575
 Alpha  occ. eigenvalues --   -0.54004  -0.53383  -0.53196  -0.51826  -0.51701
 Alpha  occ. eigenvalues --   -0.51358  -0.49199  -0.49014  -0.47727  -0.46441
 Alpha  occ. eigenvalues --   -0.46021  -0.44294  -0.43258  -0.43004  -0.41098
 Alpha  occ. eigenvalues --   -0.40399  -0.38645  -0.37534  -0.35877  -0.33956
 Alpha  occ. eigenvalues --   -0.33038  -0.28081
 Alpha virt. eigenvalues --   -0.01148  -0.00253  -0.00044   0.01895   0.02070
 Alpha virt. eigenvalues --    0.03033   0.03127   0.03367   0.03931   0.04922
 Alpha virt. eigenvalues --    0.05016   0.05394   0.06465   0.06624   0.06646
 Alpha virt. eigenvalues --    0.07097   0.07461   0.07633   0.08120   0.08972
 Alpha virt. eigenvalues --    0.08991   0.09134   0.09346   0.10489   0.11223
 Alpha virt. eigenvalues --    0.11550   0.12060   0.12715   0.12993   0.13249
 Alpha virt. eigenvalues --    0.13509   0.14552   0.14697   0.15040   0.15577
 Alpha virt. eigenvalues --    0.16625   0.16831   0.17639   0.18158   0.18263
 Alpha virt. eigenvalues --    0.18526   0.18979   0.19569   0.19930   0.20133
 Alpha virt. eigenvalues --    0.20435   0.20806   0.21233   0.21320   0.22082
 Alpha virt. eigenvalues --    0.22220   0.22617   0.23174   0.23375   0.24009
 Alpha virt. eigenvalues --    0.24166   0.24714   0.24764   0.25329   0.25509
 Alpha virt. eigenvalues --    0.26016   0.26635   0.27008   0.27254   0.27971
 Alpha virt. eigenvalues --    0.28383   0.28518   0.28685   0.29377   0.29881
 Alpha virt. eigenvalues --    0.29910   0.30600   0.30729   0.31442   0.31715
 Alpha virt. eigenvalues --    0.31803   0.32303   0.32775   0.33975   0.34200
 Alpha virt. eigenvalues --    0.34713   0.35377   0.35925   0.36689   0.37310
 Alpha virt. eigenvalues --    0.37754   0.37810   0.38252   0.39674   0.39767
 Alpha virt. eigenvalues --    0.41381   0.42748   0.43083   0.43267   0.43904
 Alpha virt. eigenvalues --    0.44634   0.45864   0.46110   0.46792   0.47026
 Alpha virt. eigenvalues --    0.48571   0.48836   0.49261   0.50574   0.51492
 Alpha virt. eigenvalues --    0.51626   0.52106   0.53390   0.56229   0.56943
 Alpha virt. eigenvalues --    0.57525   0.58334   0.58879   0.59980   0.61398
 Alpha virt. eigenvalues --    0.61839   0.62267   0.62946   0.64090   0.64552
 Alpha virt. eigenvalues --    0.64685   0.66273   0.66635   0.67315   0.68418
 Alpha virt. eigenvalues --    0.69227   0.70271   0.70822   0.71518   0.72077
 Alpha virt. eigenvalues --    0.72392   0.72943   0.73070   0.73544   0.73772
 Alpha virt. eigenvalues --    0.75496   0.76155   0.76922   0.77745   0.77986
 Alpha virt. eigenvalues --    0.78698   0.79401   0.80212   0.82044   0.84314
 Alpha virt. eigenvalues --    0.84955   0.86735   0.87291   0.89879   0.90290
 Alpha virt. eigenvalues --    0.91319   0.92816   0.93260   0.94259   0.94673
 Alpha virt. eigenvalues --    0.95381   0.95638   0.96400   0.96770   0.97358
 Alpha virt. eigenvalues --    0.99521   1.01693   1.02480   1.04875   1.04933
 Alpha virt. eigenvalues --    1.06561   1.06902   1.09335   1.10183   1.10745
 Alpha virt. eigenvalues --    1.11903   1.13813   1.14965   1.18505   1.20179
 Alpha virt. eigenvalues --    1.21081   1.23114   1.24270   1.24926   1.25999
 Alpha virt. eigenvalues --    1.28597   1.30305   1.31713   1.33641   1.34876
 Alpha virt. eigenvalues --    1.35533   1.38137   1.38535   1.42163   1.44269
 Alpha virt. eigenvalues --    1.44916   1.46056   1.47207   1.48396   1.49247
 Alpha virt. eigenvalues --    1.49729   1.52808   1.53250   1.53442   1.53943
 Alpha virt. eigenvalues --    1.55054   1.56026   1.57497   1.58003   1.59207
 Alpha virt. eigenvalues --    1.59589   1.61444   1.62149   1.63271   1.63713
 Alpha virt. eigenvalues --    1.67139   1.68304   1.72251   1.74799   1.75085
 Alpha virt. eigenvalues --    1.76548   1.78436   1.79380   1.80007   1.80674
 Alpha virt. eigenvalues --    1.81393   1.84485   1.84789   1.86350   1.87689
 Alpha virt. eigenvalues --    1.89636   1.90299   1.93257   1.95794   1.96443
 Alpha virt. eigenvalues --    1.96475   1.98278   1.99845   2.05429   2.06047
 Alpha virt. eigenvalues --    2.08487   2.08628   2.11150   2.12840   2.14957
 Alpha virt. eigenvalues --    2.19928   2.21793   2.23413   2.26939   2.29836
 Alpha virt. eigenvalues --    2.31667   2.32254   2.33474   2.35610   2.38342
 Alpha virt. eigenvalues --    2.38624   2.40577   2.46086   2.48870   2.51888
 Alpha virt. eigenvalues --    2.54596   2.54958   2.56078   2.57497   2.58397
 Alpha virt. eigenvalues --    2.59767   2.61528   2.62448   2.64932   2.67114
 Alpha virt. eigenvalues --    2.70816   2.71859   2.76190   2.80995   2.82085
 Alpha virt. eigenvalues --    2.83522   2.85111   2.87949   2.90899   2.92581
 Alpha virt. eigenvalues --    2.94918   2.97029   3.00129   3.02299   3.02588
 Alpha virt. eigenvalues --    3.03902   3.05938   3.09588   3.11724   3.12069
 Alpha virt. eigenvalues --    3.16858   3.19301   3.24539   3.25211   3.27178
 Alpha virt. eigenvalues --    3.28845   3.31025   3.35600   3.38769   3.40760
 Alpha virt. eigenvalues --    3.41519   3.43536   3.44384   3.52646   3.56910
 Alpha virt. eigenvalues --    3.66572   3.68185   3.70837   3.74988   3.78522
 Alpha virt. eigenvalues --    3.80023   3.81846   3.83774   3.84181   3.86336
 Alpha virt. eigenvalues --    3.86787   3.88278   3.96675   3.98587   4.00105
 Alpha virt. eigenvalues --    4.00854   4.02025   4.02642   4.06134   4.07537
 Alpha virt. eigenvalues --    4.11684   4.22670   4.27356   4.32087   4.54268
 Alpha virt. eigenvalues --    4.58468   4.76307   4.81844   4.89111   4.98406
 Alpha virt. eigenvalues --    5.01926   5.18018   5.20816   5.42139   5.90310
 Alpha virt. eigenvalues --    6.44155   6.48363   6.49665   6.52386   6.55670
 Alpha virt. eigenvalues --    6.57409   6.63148   6.87620   6.90766  10.00394
 Alpha virt. eigenvalues --   23.44166  23.58262  23.65166  23.73519  23.80693
 Alpha virt. eigenvalues --   23.92885  23.93914  23.95508  24.07840  24.12581
 Alpha virt. eigenvalues --   24.19629  25.95789  26.30464  26.81567  35.58945
 Alpha virt. eigenvalues --   35.69475  50.14332  66.88476  66.91269  66.97020
 Alpha virt. eigenvalues --  216.11346
          Condensed to atoms (all electrons):
               1          2          3          4          5          6
     1  C   16.583422   0.047107  -1.344130  -0.346134  -0.391815  -0.608210
     2  N    0.047107   7.865177   0.213651  -0.058371  -0.603107  -0.395575
     3  C   -1.344130   0.213651   8.056155   0.663629   0.141575  -0.965103
     4  O   -0.346134  -0.058371   0.663629   8.082574  -0.201586  -0.124638
     5  N   -0.391815  -0.603107   0.141575  -0.201586   7.769531   0.614232
     6  C   -0.608210  -0.395575  -0.965103  -0.124638   0.614232   8.117807
     7  C   -0.008989   0.018247   0.185502   0.015778  -0.145565  -0.783249
     8  C   -0.009287  -0.008482  -0.194569  -0.001733   0.005498   0.335097
     9  C    3.274799  -0.077955   0.401233  -0.041126   0.010903   0.102515
    10  C   -4.179531   0.073662  -0.764913  -0.026965   0.057633  -0.025122
    11  C   -1.530827  -0.008807  -0.320774   0.016859  -0.018582  -0.030179
    12  C   -1.771773   0.106995  -0.179072   0.151309  -0.019449  -0.059606
    13  C   -1.866801  -0.075111  -0.074222   0.247576  -0.082185  -0.164210
    14  H   -0.112272   0.239957  -0.032546  -0.002568   0.067106   0.019339
    15  H   -0.022508   0.088014   0.032831  -0.001684   0.230655  -0.076247
    16  H    0.011223   0.006897   0.075278  -0.003253  -0.090944   0.371479
    17  H    0.005667   0.009798   0.034836   0.000153  -0.046195   0.365990
    18  H    0.005362  -0.000517   0.033428  -0.000109   0.003859  -0.093532
    19  H   -0.004654  -0.000646  -0.022351  -0.000232   0.002524  -0.052738
    20  H   -0.000370  -0.000084  -0.010243  -0.000078  -0.000132  -0.047660
    21  H    0.000039  -0.000001   0.003685   0.000022  -0.001215   0.072301
    22  H    0.000249   0.000034   0.009977  -0.000029   0.000287  -0.040231
    23  H   -0.058550  -0.014796  -0.009972  -0.000037  -0.001666  -0.001089
    24  C   -1.766932  -0.001785  -0.134324  -0.001351   0.006830  -0.001888
    25  Cl   0.197830   0.001649  -0.011618   0.000107   0.000353  -0.000245
    26  H    0.015473  -0.001790   0.000690   0.000073   0.000092  -0.000007
    27  H    0.008335  -0.022108   0.074760   0.003313   0.002224   0.006930
    28  F    0.081187   0.001507  -0.003067   0.000001   0.000033  -0.000026
    29  F    0.000719   0.000546  -0.000204  -0.000000   0.000003  -0.000003
    30  F    0.000664   0.000608  -0.000018   0.000001   0.000005  -0.000000
               7          8          9         10         11         12
     1  C   -0.008989  -0.009287   3.274799  -4.179531  -1.530827  -1.771773
     2  N    0.018247  -0.008482  -0.077955   0.073662  -0.008807   0.106995
     3  C    0.185502  -0.194569   0.401233  -0.764913  -0.320774  -0.179072
     4  O    0.015778  -0.001733  -0.041126  -0.026965   0.016859   0.151309
     5  N   -0.145565   0.005498   0.010903   0.057633  -0.018582  -0.019449
     6  C   -0.783249   0.335097   0.102515  -0.025122  -0.030179  -0.059606
     7  C    6.252703  -0.172861  -0.007323  -0.002236   0.000859   0.003594
     8  C   -0.172861   6.057375   0.001404   0.000013  -0.000306  -0.001174
     9  C   -0.007323   0.001404  12.892610   1.442197  -6.880234  -0.854933
    10  C   -0.002236   0.000013   1.442197  33.524176 -13.918304  -3.901304
    11  C    0.000859  -0.000306  -6.880234 -13.918304  33.730488   1.750761
    12  C    0.003594  -0.001174  -0.854933  -3.901304   1.750761  13.892567
    13  C    0.017208  -0.007169  -3.136743  -3.408603  -3.207199  -2.226525
    14  H   -0.002478   0.000055   0.025613   0.025838  -0.015445   0.005868
    15  H    0.004218   0.004828  -0.005714  -0.004269  -0.000035   0.003495
    16  H   -0.058462  -0.007339  -0.000164   0.000263  -0.000026  -0.000033
    17  H   -0.007501  -0.021685   0.002091   0.000317  -0.000043  -0.001089
    18  H    0.448105  -0.053860  -0.000391   0.000075  -0.000004   0.000001
    19  H    0.452280  -0.034395   0.000540  -0.000039   0.000004   0.000010
    20  H    0.010484   0.393072   0.000025  -0.000002   0.000000  -0.000002
    21  H   -0.113184   0.389104  -0.000010  -0.000000   0.000000   0.000001
    22  H    0.011018   0.365011  -0.000022   0.000001   0.000000   0.000003
    23  H    0.000056  -0.000001   0.356049   0.032433  -0.038148  -0.028573
    24  C   -0.000124   0.000002  -1.559142  -2.102472  -2.257285  -1.078754
    25  Cl  -0.000008  -0.000001   0.458086   0.083949  -1.342751   0.319136
    26  H    0.000001   0.000000  -0.020610   0.067035  -0.051461   0.295796
    27  H   -0.000246   0.000043   0.009841  -0.029295   0.004820  -0.097999
    28  F    0.000002  -0.000000   0.265438  -0.311588  -0.212246  -0.015379
    29  F    0.000000   0.000000   0.014666   0.279045  -0.173800   0.019494
    30  F    0.000000   0.000000   0.008678   0.278193  -0.171340   0.017328
              13         14         15         16         17         18
     1  C   -1.866801  -0.112272  -0.022508   0.011223   0.005667   0.005362
     2  N   -0.075111   0.239957   0.088014   0.006897   0.009798  -0.000517
     3  C   -0.074222  -0.032546   0.032831   0.075278   0.034836   0.033428
     4  O    0.247576  -0.002568  -0.001684  -0.003253   0.000153  -0.000109
     5  N   -0.082185   0.067106   0.230655  -0.090944  -0.046195   0.003859
     6  C   -0.164210   0.019339  -0.076247   0.371479   0.365990  -0.093532
     7  C    0.017208  -0.002478   0.004218  -0.058462  -0.007501   0.448105
     8  C   -0.007169   0.000055   0.004828  -0.007339  -0.021685  -0.053860
     9  C   -3.136743   0.025613  -0.005714  -0.000164   0.002091  -0.000391
    10  C   -3.408603   0.025838  -0.004269   0.000263   0.000317   0.000075
    11  C   -3.207199  -0.015445  -0.000035  -0.000026  -0.000043  -0.000004
    12  C   -2.226525   0.005868   0.003495  -0.000033  -0.001089   0.000001
    13  C   18.864790   0.044509   0.017713   0.001103  -0.005317   0.000228
    14  H    0.044509   0.341128   0.002277   0.000206   0.000030   0.000003
    15  H    0.017713   0.002277   0.365223   0.002087   0.002073  -0.000979
    16  H    0.001103   0.000206   0.002087   0.462604  -0.038624   0.006120
    17  H   -0.005317   0.000030   0.002073  -0.038624   0.428066  -0.007830
    18  H    0.000228   0.000003  -0.000979   0.006120  -0.007830   0.444228
    19  H   -0.000265   0.000047   0.003316  -0.009203   0.005245  -0.044125
    20  H   -0.000067   0.000000  -0.000024  -0.000785   0.003450  -0.008463
    21  H    0.000030   0.000000  -0.000022  -0.000089  -0.000199  -0.003395
    22  H    0.000079  -0.000000   0.000038   0.003215  -0.000207   0.005922
    23  H    0.000444   0.005636   0.000021   0.000000   0.000000   0.000000
    24  C    0.973395   0.009296  -0.000067   0.000009   0.000000   0.000004
    25  Cl  -0.357541   0.000120  -0.000003  -0.000000  -0.000000   0.000000
    26  H    0.012321  -0.000003  -0.000000  -0.000000  -0.000000  -0.000000
    27  H    0.367887  -0.000020  -0.000014  -0.000004  -0.000011  -0.000000
    28  F   -0.013512   0.000020  -0.000000  -0.000000  -0.000000  -0.000000
    29  F    0.011459  -0.000005   0.000000   0.000000   0.000000   0.000000
    30  F    0.010322  -0.000010  -0.000000  -0.000000   0.000000  -0.000000
              19         20         21         22         23         24
     1  C   -0.004654  -0.000370   0.000039   0.000249  -0.058550  -1.766932
     2  N   -0.000646  -0.000084  -0.000001   0.000034  -0.014796  -0.001785
     3  C   -0.022351  -0.010243   0.003685   0.009977  -0.009972  -0.134324
     4  O   -0.000232  -0.000078   0.000022  -0.000029  -0.000037  -0.001351
     5  N    0.002524  -0.000132  -0.001215   0.000287  -0.001666   0.006830
     6  C   -0.052738  -0.047660   0.072301  -0.040231  -0.001089  -0.001888
     7  C    0.452280   0.010484  -0.113184   0.011018   0.000056  -0.000124
     8  C   -0.034395   0.393072   0.389104   0.365011  -0.000001   0.000002
     9  C    0.000540   0.000025  -0.000010  -0.000022   0.356049  -1.559142
    10  C   -0.000039  -0.000002  -0.000000   0.000001   0.032433  -2.102472
    11  C    0.000004   0.000000   0.000000   0.000000  -0.038148  -2.257285
    12  C    0.000010  -0.000002   0.000001   0.000003  -0.028573  -1.078754
    13  C   -0.000265  -0.000067   0.000030   0.000079   0.000444   0.973395
    14  H    0.000047   0.000000   0.000000  -0.000000   0.005636   0.009296
    15  H    0.003316  -0.000024  -0.000022   0.000038   0.000021  -0.000067
    16  H   -0.009203  -0.000785  -0.000089   0.003215   0.000000   0.000009
    17  H    0.005245   0.003450  -0.000199  -0.000207   0.000000   0.000000
    18  H   -0.044125  -0.008463  -0.003395   0.005922   0.000000   0.000004
    19  H    0.467526   0.006460  -0.003422  -0.008322  -0.000000  -0.000003
    20  H    0.006460   0.447946  -0.023889  -0.035736  -0.000000  -0.000000
    21  H   -0.003422  -0.023889   0.432374  -0.025530   0.000000   0.000000
    22  H   -0.008322  -0.035736  -0.025530   0.449932   0.000000   0.000000
    23  H   -0.000000  -0.000000   0.000000   0.000000   0.387055   0.076644
    24  C   -0.000003  -0.000000   0.000000   0.000000   0.076644  13.271821
    25  Cl   0.000000  -0.000000   0.000000   0.000000  -0.000696  -0.428491
    26  H    0.000000   0.000000  -0.000000  -0.000000   0.000046   0.019753
    27  H   -0.000000  -0.000000   0.000000  -0.000000  -0.000117   0.000657
    28  F    0.000000   0.000000  -0.000000  -0.000000   0.012241   0.331451
    29  F    0.000000   0.000000  -0.000000  -0.000000   0.000112   0.010613
    30  F    0.000000  -0.000000   0.000000  -0.000000   0.000069   0.017710
              25         26         27         28         29         30
     1  C    0.197830   0.015473   0.008335   0.081187   0.000719   0.000664
     2  N    0.001649  -0.001790  -0.022108   0.001507   0.000546   0.000608
     3  C   -0.011618   0.000690   0.074760  -0.003067  -0.000204  -0.000018
     4  O    0.000107   0.000073   0.003313   0.000001  -0.000000   0.000001
     5  N    0.000353   0.000092   0.002224   0.000033   0.000003   0.000005
     6  C   -0.000245  -0.000007   0.006930  -0.000026  -0.000003  -0.000000
     7  C   -0.000008   0.000001  -0.000246   0.000002   0.000000   0.000000
     8  C   -0.000001   0.000000   0.000043  -0.000000   0.000000   0.000000
     9  C    0.458086  -0.020610   0.009841   0.265438   0.014666   0.008678
    10  C    0.083949   0.067035  -0.029295  -0.311588   0.279045   0.278193
    11  C   -1.342751  -0.051461   0.004820  -0.212246  -0.173800  -0.171340
    12  C    0.319136   0.295796  -0.097999  -0.015379   0.019494   0.017328
    13  C   -0.357541   0.012321   0.367887  -0.013512   0.011459   0.010322
    14  H    0.000120  -0.000003  -0.000020   0.000020  -0.000005  -0.000010
    15  H   -0.000003  -0.000000  -0.000014  -0.000000   0.000000  -0.000000
    16  H   -0.000000  -0.000000  -0.000004  -0.000000   0.000000  -0.000000
    17  H   -0.000000  -0.000000  -0.000011  -0.000000   0.000000   0.000000
    18  H    0.000000  -0.000000  -0.000000  -0.000000   0.000000  -0.000000
    19  H    0.000000   0.000000  -0.000000   0.000000   0.000000   0.000000
    20  H   -0.000000   0.000000  -0.000000   0.000000   0.000000  -0.000000
    21  H    0.000000  -0.000000   0.000000  -0.000000  -0.000000   0.000000
    22  H    0.000000  -0.000000  -0.000000  -0.000000  -0.000000  -0.000000
    23  H   -0.000696   0.000046  -0.000117   0.012241   0.000112   0.000069
    24  C   -0.428491   0.019753   0.000657   0.331451   0.010613   0.017710
    25  Cl  17.657050  -0.013724   0.000226   0.012140  -0.013868  -0.013853
    26  H   -0.013724   0.385229  -0.002825   0.000025   0.000005   0.000007
    27  H    0.000226  -0.002825   0.356572  -0.000006  -0.000000  -0.000002
    28  F    0.012140   0.000025  -0.000006   9.074405  -0.037750  -0.037719
    29  F   -0.013868   0.000005  -0.000000  -0.037750   8.976802  -0.049573
    30  F   -0.013853   0.000007  -0.000002  -0.037719  -0.049573   8.976568
 Mulliken charges:
               1
     1  C   -0.209294
     2  N   -0.404715
     3  C    0.139896
     4  O   -0.371500
     5  N   -0.310901
     6  C   -0.536132
     7  C   -0.117829
     8  C   -1.038641
     9  C   -0.682320
    10  C   -1.190188
    11  C    0.674004
    12  C   -0.330693
    13  C    0.056406
    14  H    0.378299
    15  H    0.354777
    16  H    0.268442
    17  H    0.270984
    18  H    0.265869
    19  H    0.242443
    20  H    0.266097
    21  H    0.273399
    22  H    0.264313
    23  H    0.282836
    24  C    0.614435
    25  Cl   0.452154
    26  H    0.293875
    27  H    0.317040
    28  F   -0.147156
    29  F   -0.038261
    30  F   -0.037638
 Sum of Mulliken charges =  -0.00000
 Mulliken charges with hydrogens summed into heavy atoms:
               1
     1  C   -0.209294
     2  N   -0.026416
     3  C    0.139896
     4  O   -0.371500
     5  N    0.043876
     6  C    0.003294
     7  C    0.390483
     8  C   -0.234831
     9  C   -0.399484
    10  C   -1.190188
    11  C    0.674004
    12  C   -0.036818
    13  C    0.373447
    24  C    0.614435
    25  Cl   0.452154
    28  F   -0.147156
    29  F   -0.038261
    30  F   -0.037638
 Electronic spatial extent (au):  <R**2>=           8704.7376
 Charge=              0.0000 electrons
 Dipole moment (field-independent basis, Debye):
    X=              6.2384    Y=              2.9722    Z=             -0.6680  Tot=              6.9424
 Quadrupole moment (field-independent basis, Debye-Ang):
   XX=           -111.2082   YY=           -109.8726   ZZ=           -115.3874
   XY=             15.9447   XZ=             -2.2716   YZ=             -0.5600
 Traceless Quadrupole moment (field-independent basis, Debye-Ang):
   XX=              0.9478   YY=              2.2835   ZZ=             -3.2313
   XY=             15.9447   XZ=             -2.2716   YZ=             -0.5600
 Octapole moment (field-independent basis, Debye-Ang**2):
  XXX=            116.6791  YYY=             22.8340  ZZZ=              0.0380  XYY=            -17.3123
  XXY=             31.5736  XXZ=             -6.8451  XZZ=            -11.5722  YZZ=              9.5395
  YYZ=             -1.7207  XYZ=             -2.6526
 Hexadecapole moment (field-independent basis, Debye-Ang**3):
 XXXX=          -9291.8725 YYYY=          -1148.4805 ZZZZ=           -209.9124 XXXY=             93.3645
 XXXZ=            -17.0938 YYYX=            -13.9966 YYYZ=             -2.6081 ZZZX=             -3.2854
 ZZZY=             -0.2153 XXYY=          -1851.0353 XXZZ=          -1678.2178 YYZZ=           -238.8452
 XXYZ=            -11.1849 YYXZ=             -4.7635 ZZXY=            -35.8218
 N-N= 1.429762249915D+03 E-N=-6.090037956855D+03  KE= 1.366884855405D+03
 D1PCM: PCM CHGder 1st derivatives, ID1Alg=3 FixD1E=F DoIter=F DoCFld=F I1PDM=0.
 Calling FoFJK, ICntrl=      2127 FMM=F ISym2X=0 I1Cent= 0 IOpClX= 0 NMat=1 NMatS=1 NMatT=0.
 ***** Axes restored to original set *****
 -------------------------------------------------------------------
 Center     Atomic                   Forces (Hartrees/Bohr)
 Number     Number              X              Y              Z
 -------------------------------------------------------------------
      1        6          -0.000001795    0.000003894   -0.000001543
      2        7           0.000004633    0.000001868    0.000003600
      3        6          -0.000002926   -0.000007368    0.000000358
      4        8           0.000004224    0.000001287    0.000004475
      5        7          -0.000000292   -0.000002661   -0.000003185
      6        6          -0.000002755   -0.000004236    0.000002044
      7        6          -0.000002215   -0.000006213   -0.000002443
      8        6          -0.000001257   -0.000008645   -0.000001279
      9        6           0.000000478    0.000003679   -0.000001030
     10        6          -0.000000411    0.000005954    0.000000599
     11        6           0.000003528    0.000007060    0.000002253
     12        6           0.000002077    0.000004879    0.000004805
     13        6           0.000003385    0.000001772    0.000003029
     14        1          -0.000002827    0.000000079   -0.000003223
     15        1          -0.000001479   -0.000002774   -0.000004149
     16        1           0.000001025   -0.000007378    0.000001544
     17        1           0.000001225   -0.000004341    0.000001687
     18        1          -0.000002322   -0.000003680   -0.000003590
     19        1          -0.000002814   -0.000007760   -0.000003835
     20        1           0.000000115   -0.000007455    0.000000685
     21        1          -0.000002241   -0.000009470   -0.000002607
     22        1          -0.000000516   -0.000011265    0.000000011
     23        1          -0.000002495    0.000003980   -0.000003264
     24        6          -0.000000507    0.000008483   -0.000003642
     25       17           0.000003031    0.000008902    0.000004384
     26        1           0.000005218    0.000004963    0.000007181
     27        1           0.000003745    0.000001360    0.000005693
     28        9          -0.000003613    0.000007406   -0.000004906
     29        9          -0.000001095    0.000006387   -0.000001573
     30        9          -0.000001123    0.000011294   -0.000002078
 -------------------------------------------------------------------
 Cartesian Forces:  Max     0.000011294 RMS     0.000004349

 GradGradGradGradGradGradGradGradGradGradGradGradGradGradGradGradGradGrad
 Berny optimization.
 FormGI is forming the generalized inverse of G from B-inverse, IUseBI=4.
 Internal  Forces:  Max     0.000003278 RMS     0.000000795
 Search for a local minimum.
 Step number   1 out of a maximum of  157
 All quantities printed in internal units (Hartrees-Bohrs-Radians)
 Mixed Optimization -- En-DIIS/RFO-DIIS
 Second derivative matrix not updated -- first step.
 ITU=  0
     Eigenvalues ---    0.00443   0.00480   0.00690   0.00943   0.01597
     Eigenvalues ---    0.01692   0.01726   0.01800   0.01841   0.01995
     Eigenvalues ---    0.01996   0.02124   0.02152   0.02168   0.02183
     Eigenvalues ---    0.02202   0.02226   0.02237   0.02257   0.03726
     Eigenvalues ---    0.04453   0.04935   0.05524   0.05533   0.05549
     Eigenvalues ---    0.08182   0.09207   0.10623   0.10753   0.12078
     Eigenvalues ---    0.12661   0.15231   0.15967   0.16000   0.16000
     Eigenvalues ---    0.16000   0.16000   0.16000   0.16000   0.21893
     Eigenvalues ---    0.21904   0.22012   0.22174   0.22375   0.23481
     Eigenvalues ---    0.24606   0.24996   0.24999   0.25000   0.25000
     Eigenvalues ---    0.25000   0.25000   0.25000   0.25000   0.29948
     Eigenvalues ---    0.30212   0.31347   0.31781   0.34093   0.34097
     Eigenvalues ---    0.34322   0.34467   0.34476   0.34641   0.34656
     Eigenvalues ---    0.35520   0.35598   0.36138   0.37389   0.42509
     Eigenvalues ---    0.42778   0.45947   0.45973   0.46048   0.46164
     Eigenvalues ---    0.46472   0.47537   0.47632   0.47796   0.51912
     Eigenvalues ---    0.56713   0.57141   0.57184   0.97093
 RFO step:  Lambda= 0.00000000D+00 EMin= 4.43314926D-03
 Linear search not attempted -- first point.
 Iteration  1 RMS(Cart)=  0.00009086 RMS(Int)=  0.00000000
 Iteration  2 RMS(Cart)=  0.00000000 RMS(Int)=  0.00000000
 Variable       Old X    -DE/DX   Delta X   Delta X   Delta X     New X
                                 (Linear)    (Quad)   (Total)
    R1        2.64077   0.00000   0.00000   0.00000   0.00000   2.64077
    R2        2.64374  -0.00000   0.00000  -0.00000  -0.00000   2.64374
    R3        2.64235  -0.00000   0.00000  -0.00000  -0.00000   2.64234
    R4        2.62436  -0.00000   0.00000  -0.00001  -0.00001   2.62435
    R5        1.90891   0.00000   0.00000   0.00000   0.00000   1.90891
    R6        2.29826   0.00000   0.00000   0.00000   0.00000   2.29826
    R7        2.57983  -0.00000   0.00000  -0.00000  -0.00000   2.57983
    R8        2.75264  -0.00000   0.00000  -0.00000  -0.00000   2.75264
    R9        1.90861  -0.00000   0.00000  -0.00000  -0.00000   1.90861
   R10        2.87542  -0.00000   0.00000  -0.00000  -0.00000   2.87542
   R11        2.07167   0.00000   0.00000   0.00000   0.00000   2.07168
   R12        2.06237  -0.00000   0.00000  -0.00000  -0.00000   2.06237
   R13        2.88068  -0.00000   0.00000  -0.00000  -0.00000   2.88068
   R14        2.06790   0.00000   0.00000   0.00000   0.00000   2.06790
   R15        2.07174   0.00000   0.00000   0.00000   0.00000   2.07174
   R16        2.06534  -0.00000   0.00000  -0.00000  -0.00000   2.06534
   R17        2.06262   0.00000   0.00000   0.00000   0.00000   2.06262
   R18        2.06550  -0.00000   0.00000  -0.00000  -0.00000   2.06550
   R19        2.62024   0.00000   0.00000   0.00000   0.00000   2.62024
   R20        2.04839  -0.00000   0.00000  -0.00000  -0.00000   2.04839
   R21        2.63581   0.00000   0.00000   0.00000   0.00000   2.63581
   R22        2.84547  -0.00000   0.00000  -0.00000  -0.00000   2.84547
   R23        2.61911  -0.00000   0.00000  -0.00000  -0.00000   2.61910
   R24        3.29054   0.00000   0.00000   0.00000   0.00000   3.29054
   R25        2.62418   0.00000   0.00000   0.00000   0.00000   2.62418
   R26        2.04714  -0.00000   0.00000  -0.00000  -0.00000   2.04714
   R27        2.03866   0.00000   0.00000   0.00000   0.00000   2.03866
   R28        2.53641  -0.00000   0.00000  -0.00000  -0.00000   2.53641
   R29        2.53277   0.00000   0.00000   0.00000   0.00000   2.53277
   R30        2.53241   0.00000   0.00000   0.00000   0.00000   2.53241
    A1        2.04140   0.00000   0.00000   0.00000   0.00000   2.04140
    A2        2.16986  -0.00000   0.00000  -0.00000  -0.00000   2.16986
    A3        2.07188   0.00000   0.00000   0.00000   0.00000   2.07189
    A4        2.22648  -0.00000   0.00000  -0.00001  -0.00001   2.22648
    A5        2.01164  -0.00000   0.00000  -0.00001  -0.00001   2.01164
    A6        2.04130   0.00000   0.00000   0.00001   0.00001   2.04131
    A7        2.15711   0.00000   0.00000   0.00000   0.00000   2.15711
    A8        1.97978   0.00000   0.00000   0.00001   0.00001   1.97980
    A9        2.14613  -0.00000   0.00000  -0.00001  -0.00001   2.14611
   A10        2.09605  -0.00000   0.00000  -0.00001  -0.00001   2.09604
   A11        2.07889   0.00000   0.00000   0.00001   0.00001   2.07890
   A12        2.04336   0.00000   0.00000  -0.00000  -0.00000   2.04336
   A13        1.92635  -0.00000   0.00000  -0.00000  -0.00000   1.92634
   A14        1.92910   0.00000   0.00000   0.00001   0.00001   1.92910
   A15        1.88397   0.00000   0.00000  -0.00000  -0.00000   1.88397
   A16        1.92691   0.00000   0.00000   0.00000   0.00000   1.92691
   A17        1.92736  -0.00000   0.00000  -0.00001  -0.00001   1.92736
   A18        1.86893   0.00000   0.00000   0.00000   0.00000   1.86893
   A19        1.94543   0.00000   0.00000   0.00000   0.00000   1.94543
   A20        1.90285  -0.00000   0.00000  -0.00000  -0.00000   1.90285
   A21        1.91122  -0.00000   0.00000   0.00000   0.00000   1.91122
   A22        1.92381  -0.00000   0.00000  -0.00000  -0.00000   1.92381
   A23        1.91260  -0.00000   0.00000  -0.00000  -0.00000   1.91259
   A24        1.86620   0.00000   0.00000   0.00000   0.00000   1.86620
   A25        1.93887   0.00000   0.00000   0.00000   0.00000   1.93887
   A26        1.94121   0.00000   0.00000   0.00000   0.00000   1.94121
   A27        1.94157  -0.00000   0.00000  -0.00000  -0.00000   1.94157
   A28        1.87993  -0.00000   0.00000   0.00000   0.00000   1.87993
   A29        1.87979   0.00000   0.00000   0.00000   0.00000   1.87979
   A30        1.87964  -0.00000   0.00000  -0.00000  -0.00000   1.87964
   A31        2.11641  -0.00000   0.00000  -0.00000  -0.00000   2.11641
   A32        2.08682   0.00000   0.00000   0.00000   0.00000   2.08682
   A33        2.07995   0.00000   0.00000  -0.00000  -0.00000   2.07995
   A34        2.08725  -0.00000   0.00000  -0.00000  -0.00000   2.08725
   A35        2.07993   0.00000   0.00000   0.00000   0.00000   2.07993
   A36        2.11601  -0.00000   0.00000  -0.00000  -0.00000   2.11601
   A37        2.08482   0.00000   0.00000   0.00000   0.00000   2.08483
   A38        2.12266  -0.00000   0.00000  -0.00000  -0.00000   2.12265
   A39        2.07571   0.00000   0.00000   0.00000   0.00000   2.07571
   A40        2.11475  -0.00000   0.00000  -0.00000  -0.00000   2.11474
   A41        2.08173   0.00000   0.00000   0.00000   0.00000   2.08173
   A42        2.08671  -0.00000   0.00000  -0.00000  -0.00000   2.08671
   A43        2.09125   0.00000   0.00000   0.00000   0.00000   2.09125
   A44        2.09770  -0.00000   0.00000  -0.00000  -0.00000   2.09770
   A45        2.09422   0.00000   0.00000   0.00000   0.00000   2.09423
   A46        1.95047   0.00000   0.00000   0.00000   0.00000   1.95047
   A47        1.95764  -0.00000   0.00000  -0.00000  -0.00000   1.95764
   A48        1.95822   0.00000   0.00000   0.00000   0.00000   1.95823
   A49        1.86091  -0.00000   0.00000  -0.00000  -0.00000   1.86091
   A50        1.86110  -0.00000   0.00000  -0.00000  -0.00000   1.86110
   A51        1.86925  -0.00000   0.00000   0.00000   0.00000   1.86925
    D1        3.08827   0.00000   0.00000   0.00002   0.00002   3.08829
    D2        0.04332   0.00000   0.00000   0.00008   0.00008   0.04341
    D3       -0.06288   0.00000   0.00000   0.00002   0.00002  -0.06286
    D4       -3.10783   0.00000   0.00000   0.00008   0.00008  -3.10774
    D5        3.13134   0.00000   0.00000   0.00000   0.00000   3.13134
    D6       -0.00878   0.00000   0.00000   0.00001   0.00001  -0.00876
    D7       -0.00125   0.00000   0.00000   0.00000   0.00000  -0.00125
    D8       -3.14137   0.00000   0.00000   0.00001   0.00001  -3.14136
    D9       -3.13063  -0.00000   0.00000  -0.00001  -0.00001  -3.13064
   D10        0.01429  -0.00000   0.00000  -0.00001  -0.00001   0.01428
   D11        0.00125  -0.00000   0.00000  -0.00001  -0.00001   0.00124
   D12       -3.13702  -0.00000   0.00000  -0.00001  -0.00001  -3.13703
   D13       -0.02355   0.00000   0.00000   0.00013   0.00013  -0.02342
   D14        3.13718   0.00000   0.00000   0.00012   0.00012   3.13729
   D15        3.01997   0.00000   0.00000   0.00007   0.00007   3.02004
   D16       -0.10248   0.00000   0.00000   0.00005   0.00005  -0.10243
   D17       -3.04822   0.00000   0.00000   0.00006   0.00006  -3.04816
   D18       -0.29666   0.00000   0.00000   0.00004   0.00004  -0.29662
   D19        0.11237   0.00000   0.00000   0.00004   0.00004   0.11242
   D20        2.86393   0.00000   0.00000   0.00002   0.00002   2.86396
   D21       -2.96552   0.00000   0.00000  -0.00001  -0.00001  -2.96553
   D22        1.18099  -0.00000   0.00000  -0.00001  -0.00001   1.18097
   D23       -0.85764  -0.00000   0.00000  -0.00002  -0.00002  -0.85766
   D24        0.55839   0.00000   0.00000   0.00001   0.00001   0.55840
   D25       -1.57828   0.00000   0.00000   0.00001   0.00001  -1.57828
   D26        2.66627  -0.00000   0.00000   0.00000   0.00000   2.66627
   D27        3.13917  -0.00000   0.00000   0.00000   0.00000   3.13917
   D28        1.01149  -0.00000   0.00000   0.00000   0.00000   1.01149
   D29       -1.02477  -0.00000   0.00000   0.00000   0.00000  -1.02477
   D30       -1.00605   0.00000   0.00000   0.00001   0.00001  -1.00604
   D31       -3.13373   0.00000   0.00000   0.00001   0.00001  -3.13372
   D32        1.11320   0.00000   0.00000   0.00001   0.00001   1.11320
   D33        1.05742   0.00000   0.00000   0.00001   0.00001   1.05743
   D34       -1.07026   0.00000   0.00000   0.00001   0.00001  -1.07025
   D35       -3.10652   0.00000   0.00000   0.00001   0.00001  -3.10651
   D36       -1.04712  -0.00000   0.00000  -0.00001  -0.00001  -1.04713
   D37       -3.14101  -0.00000   0.00000  -0.00001  -0.00001  -3.14103
   D38        1.04684   0.00000   0.00000  -0.00001  -0.00001   1.04683
   D39        1.06839  -0.00000   0.00000  -0.00001  -0.00001   1.06838
   D40       -1.02550  -0.00000   0.00000  -0.00001  -0.00001  -1.02551
   D41       -3.12084   0.00000   0.00000  -0.00001  -0.00001  -3.12085
   D42        3.11762  -0.00000   0.00000  -0.00001  -0.00001   3.11761
   D43        1.02373  -0.00000   0.00000  -0.00001  -0.00001   1.02371
   D44       -1.07161   0.00000   0.00000  -0.00001  -0.00001  -1.07162
   D45        0.00065   0.00000   0.00000   0.00001   0.00001   0.00065
   D46       -3.14029   0.00000   0.00000   0.00001   0.00001  -3.14028
   D47        3.14077  -0.00000   0.00000  -0.00000  -0.00000   3.14076
   D48       -0.00016  -0.00000   0.00000  -0.00000  -0.00000  -0.00017
   D49       -0.00003  -0.00000   0.00000  -0.00001  -0.00001  -0.00004
   D50        3.14157  -0.00000   0.00000  -0.00000  -0.00000   3.14157
   D51        3.14089  -0.00000   0.00000  -0.00001  -0.00001   3.14088
   D52       -0.00069   0.00000   0.00000   0.00000   0.00000  -0.00069
   D53       -0.00056   0.00000   0.00000  -0.00001  -0.00001  -0.00056
   D54        2.08822  -0.00000   0.00000  -0.00001  -0.00001   2.08821
   D55       -2.08998  -0.00000   0.00000  -0.00001  -0.00001  -2.08999
   D56       -3.14148   0.00000   0.00000  -0.00001  -0.00001  -3.14149
   D57       -1.05270  -0.00000   0.00000  -0.00001  -0.00001  -1.05272
   D58        1.05228  -0.00000   0.00000  -0.00001  -0.00001   1.05227
   D59        0.00005   0.00000   0.00000   0.00000   0.00000   0.00005
   D60        3.14030   0.00000   0.00000   0.00001   0.00001   3.14030
   D61       -3.14156  -0.00000   0.00000  -0.00001  -0.00001  -3.14156
   D62       -0.00131  -0.00000   0.00000  -0.00000  -0.00000  -0.00131
   D63       -0.00067   0.00000   0.00000   0.00001   0.00001  -0.00067
   D64        3.13761   0.00000   0.00000   0.00001   0.00001   3.13761
   D65       -3.14092   0.00000   0.00000   0.00000   0.00000  -3.14091
   D66       -0.00264   0.00000   0.00000   0.00000   0.00000  -0.00264
         Item               Value     Threshold  Converged?
 Maximum Force            0.000003     0.000450     YES
 RMS     Force            0.000001     0.000300     YES
 Maximum Displacement     0.000346     0.001800     YES
 RMS     Displacement     0.000091     0.001200     YES
 Predicted change in Energy=-7.001010D-10
 Optimization completed.
    -- Stationary point found.
                           ----------------------------
                           !   Optimized Parameters   !
                           ! (Angstroms and Degrees)  !
 --------------------------                            --------------------------
 ! Name  Definition              Value          Derivative Info.                !
 --------------------------------------------------------------------------------
 ! R1    R(1,2)                  1.3974         -DE/DX =    0.0                 !
 ! R2    R(1,9)                  1.399          -DE/DX =    0.0                 !
 ! R3    R(1,13)                 1.3983         -DE/DX =    0.0                 !
 ! R4    R(2,3)                  1.3888         -DE/DX =    0.0                 !
 ! R5    R(2,14)                 1.0102         -DE/DX =    0.0                 !
 ! R6    R(3,4)                  1.2162         -DE/DX =    0.0                 !
 ! R7    R(3,5)                  1.3652         -DE/DX =    0.0                 !
 ! R8    R(5,6)                  1.4566         -DE/DX =    0.0                 !
 ! R9    R(5,15)                 1.01           -DE/DX =    0.0                 !
 ! R10   R(6,7)                  1.5216         -DE/DX =    0.0                 !
 ! R11   R(6,16)                 1.0963         -DE/DX =    0.0                 !
 ! R12   R(6,17)                 1.0914         -DE/DX =    0.0                 !
 ! R13   R(7,8)                  1.5244         -DE/DX =    0.0                 !
 ! R14   R(7,18)                 1.0943         -DE/DX =    0.0                 !
 ! R15   R(7,19)                 1.0963         -DE/DX =    0.0                 !
 ! R16   R(8,20)                 1.0929         -DE/DX =    0.0                 !
 ! R17   R(8,21)                 1.0915         -DE/DX =    0.0                 !
 ! R18   R(8,22)                 1.093          -DE/DX =    0.0                 !
 ! R19   R(9,10)                 1.3866         -DE/DX =    0.0                 !
 ! R20   R(9,23)                 1.084          -DE/DX =    0.0                 !
 ! R21   R(10,11)                1.3948         -DE/DX =    0.0                 !
 ! R22   R(10,24)                1.5058         -DE/DX =    0.0                 !
 ! R23   R(11,12)                1.386          -DE/DX =    0.0                 !
 ! R24   R(11,25)                1.7413         -DE/DX =    0.0                 !
 ! R25   R(12,13)                1.3887         -DE/DX =    0.0                 !
 ! R26   R(12,26)                1.0833         -DE/DX =    0.0                 !
 ! R27   R(13,27)                1.0788         -DE/DX =    0.0                 !
 ! R28   R(24,28)                1.3422         -DE/DX =    0.0                 !
 ! R29   R(24,29)                1.3403         -DE/DX =    0.0                 !
 ! R30   R(24,30)                1.3401         -DE/DX =    0.0                 !
 ! A1    A(2,1,9)              116.9638         -DE/DX =    0.0                 !
 ! A2    A(2,1,13)             124.3238         -DE/DX =    0.0                 !
 ! A3    A(9,1,13)             118.7102         -DE/DX =    0.0                 !
 ! A4    A(1,2,3)              127.5681         -DE/DX =    0.0                 !
 ! A5    A(1,2,14)             115.2588         -DE/DX =    0.0                 !
 ! A6    A(3,2,14)             116.9579         -DE/DX =    0.0                 !
 ! A7    A(2,3,4)              123.5932         -DE/DX =    0.0                 !
 ! A8    A(2,3,5)              113.4332         -DE/DX =    0.0                 !
 ! A9    A(4,3,5)              122.964          -DE/DX =    0.0                 !
 ! A10   A(3,5,6)              120.095          -DE/DX =    0.0                 !
 ! A11   A(3,5,15)             119.1116         -DE/DX =    0.0                 !
 ! A12   A(6,5,15)             117.076          -DE/DX =    0.0                 !
 ! A13   A(5,6,7)              110.3716         -DE/DX =    0.0                 !
 ! A14   A(5,6,16)             110.5292         -DE/DX =    0.0                 !
 ! A15   A(5,6,17)             107.9434         -DE/DX =    0.0                 !
 ! A16   A(7,6,16)             110.4036         -DE/DX =    0.0                 !
 ! A17   A(7,6,17)             110.4298         -DE/DX =    0.0                 !
 ! A18   A(16,6,17)            107.0816         -DE/DX =    0.0                 !
 ! A19   A(6,7,8)              111.4648         -DE/DX =    0.0                 !
 ! A20   A(6,7,18)             109.0253         -DE/DX =    0.0                 !
 ! A21   A(6,7,19)             109.5047         -DE/DX =    0.0                 !
[...]
 0.00005224,0.00001196,-0.00013938,-0.00009949,-0.00005597,0.00015620,0
 .00002694,0.00005620,-0.00012995,0.00001511,-0.00005640,-0.00020719,-0
 .00000525,0.00000418,0.00007343,-0.00000171,-0.00000145,0.00004237,0.0
 0000129,-0.00000313,-0.00000076,-0.00064430,-0.00057885,0.00092232,-0.
 00152801,-0.00027799,-0.06508639,0.00089152,0.00002880,-0.00137729,-0.
 00010070,0.00026010,0.00537328,0.00001196,0.00007335,-0.00120056,-0.00
 002096,-0.00000899,0.00039146,-0.00001730,0.00003108,0.00015292,-0.000
 01848,-0.00002005,-0.00002120,0.00001128,0.00001813,-0.00000278,0.0000
 0513,-0.00001718,-0.00002347,-0.00000037,0.00002032,-0.00001035,0.0000
 0688,0.00001393,-0.00000400,0.00000388,-0.00000241,0.00000637,-0.00000
 963,-0.00000992,-0.00001229,0.00000168,-0.00003157,-0.00326392,0.00159
 539,0.00006516,0.50487543,0.00397869,0.00144249,0.00019446,-0.00561948
 ,0.00073648,-0.00021621,0.00407015,0.00132633,0.00005258,-0.00123194,-
 0.00083063,0.00004633,-0.00171866,0.00073790,0.00017327,0.00049875,0.0
 0023649,-0.00004427,-0.00004609,-0.00012494,-0.00003302,-0.00001089,0.
 00007268,0.00000656,-0.00158944,0.00122204,-0.00014640,-0.01473143,0.0
 0886844,-0.00058575,-0.15311481,0.05205867,-0.00405713,-0.04357526,0.0
 1975829,-0.00146317,0.00096344,-0.00682280,-0.00005896,-0.00009041,-0.
 00024247,-0.00000328,0.00002424,-0.00017315,-0.00007310,-0.00013334,-0
 .00005061,-0.00004101,-0.00003408,-0.00002369,-0.00000771,0.00001378,0
 .00000467,0.00000023,0.00000236,0.00001092,0.00000428,0.00000202,-0.00
 001517,0.00000400,-0.00005237,0.00001079,0.00000181,0.00000001,-0.0000
 1273,-0.00000782,-0.00100188,0.00007840,-0.00004365,-0.00794456,-0.001
 81158,-0.00008836,0.21491717,-0.00118406,0.00146550,-0.00009126,0.0028
 3278,-0.00018158,0.00009668,-0.00202653,-0.00098612,-0.00000531,0.0003
 8793,0.00064458,-0.00001833,0.00082663,-0.00028527,-0.00008203,-0.0002
 3749,-0.00011825,0.00002286,0.00002445,0.00005867,0.00001382,0.0000044
 9,-0.00003410,-0.00000260,-0.00266661,-0.00460396,0.00005089,0.0332080
 8,-0.00974189,0.00102294,0.05156110,-0.06345295,0.00196607,-0.00725403
 ,0.00707036,-0.00020979,-0.00094966,-0.00148854,0.00007068,-0.00006608
 ,0.00012562,-0.00000340,-0.00002160,0.00008431,0.00002856,0.00006540,0
 .00002356,0.00002181,0.00001963,0.00001153,0.00000103,-0.00000725,-0.0
 0000187,0.00000159,-0.00000205,-0.00000343,-0.00000355,-0.00000016,0.0
 0000735,-0.00000289,0.00002426,-0.00000478,-0.00000083,0.00000062,0.00
 000561,0.00000442,0.00156056,-0.00030274,0.00005251,0.00275950,0.00013
 787,0.00001423,-0.07582537,0.07787197,0.00015066,0.00001900,-0.0007298
 6,-0.00016294,0.00001367,-0.00055804,0.00012076,0.00003155,-0.00013086
 ,-0.00005628,-0.00001713,-0.00000584,-0.00005200,0.00001928,0.00006366
 ,0.00001351,0.00000464,0.00000978,-0.00000194,-0.00000465,-0.00000256,
 -0.00000020,0.00000231,0.00000053,-0.00011709,0.00014455,0.00389729,-0
 .00089430,0.00037823,0.00238796,-0.00409124,0.00200310,-0.02041499,-0.
 00109744,0.00048692,0.00347963,-0.00009472,-0.00007104,0.00500884,-0.0
 0000128,-0.00002126,-0.00001130,0.00000686,-0.00000586,0.00000754,-0.0
 0000020,-0.00000229,-0.00000519,-0.00000562,0.00000337,-0.00000331,0.0
 0000108,0.00000008,0.00000004,-0.00000063,0.00000060,0.00000039,0.0000
 0001,-0.00000064,0.00000016,-0.00000186,0.00000030,0.00000010,-0.00000
 022,-0.00000006,-0.00000009,-0.00005967,0.00001417,0.00056998,-0.00017
 115,-0.00008551,-0.00300685,0.00623692,-0.00294206,0.01206878,-0.00485
 721,0.00175577,-0.00039676,0.00012525,0.00143455,0.00003328,0.00057801
 ,0.00040852,-0.00002904,-0.00010159,-0.00031544,0.00001398,-0.00019397
 ,-0.00003808,0.00000327,0.00005405,0.00004163,0.00000393,-0.00001155,-
 0.00001415,-0.00000468,-0.00000062,0.00000909,0.00000062,-0.00133485,0
 .00001688,0.00000348,-0.00388953,-0.00287409,-0.00019991,0.00481564,-0
 .02545114,0.00043415,-0.06170165,0.03701168,-0.00117253,0.00047710,0.0
 2878691,-0.00048856,-0.00039881,0.00013762,-0.00003153,0.00002335,-0.0
 0002490,0.00001266,-0.00001539,-0.00000473,-0.00000818,-0.00000757,-0.
 00000323,0.00000212,0.00000209,0.00000012,-0.00000171,0.00000106,-0.00
 000096,0.00000222,-0.00000126,-0.00000124,0.00000228,-0.00000438,-0.00
 000115,-0.00000027,-0.00000102,-0.00000005,-0.00000197,0.00007838,0.00
 001533,0.00000946,0.00118198,-0.00075287,0.00001773,0.00028454,-0.0013
 5205,0.00008906,0.06444925,0.00110435,0.00139778,0.00012654,0.00018266
 ,-0.00039393,0.00000335,-0.00033894,-0.00017414,0.00000567,0.00007631,
 0.00010654,-0.00000615,0.00013433,-0.00002877,-0.00000928,-0.00003516,
 -0.00002185,0.00000018,0.00000520,0.00000995,0.00000310,0.00000066,-0.
 00000587,-0.00000040,-0.00011086,0.00075944,-0.00002792,-0.00328246,-0
 .00058890,0.00000535,0.00494095,-0.01428631,0.00039678,0.03435577,-0.3
 4618953,0.00554566,-0.00002780,-0.00563759,0.00014945,0.00009897,0.000
 01892,0.00000487,-0.00000587,0.00001361,-0.00000006,0.00001069,0.00000
 415,0.00000326,0.00000415,0.00000224,0.00000070,-0.00000109,-0.0000005
 6,0.00000015,-0.00000039,-0.00000072,-0.00000072,0.00000028,0.00000110
 ,-0.00000048,0.00000333,-0.00000017,0.00000005,0.00000031,0.00000070,0
 .00000062,0.00001258,-0.00007138,-0.00000449,0.00107823,-0.00011359,0.
 00004032,0.00034651,0.00077654,-0.00005818,-0.03792893,0.36408925,-0.0
 0032749,0.00014563,0.00735050,0.00000823,0.00001210,0.00002905,0.00001
 270,0.00000974,0.00007168,0.00002208,-0.00001169,0.00000395,-0.0000013
 2,-0.00000820,-0.00003714,0.00000208,0.00000239,0.00002432,-0.00000143
 ,-0.00000046,0.00000160,0.00000013,-0.00000032,0.00000161,0.00001530,-
 0.00002026,-0.00103605,-0.00021219,0.00001806,0.00556146,-0.00004295,-
 0.00041281,0.00318808,-0.00109745,0.00567091,-0.03786880,-0.00006297,0
 .00089754,0.00418946,-0.00000458,-0.00000046,-0.00017368,0.00000040,-0
 .00000097,0.00000127,-0.00000382,-0.00000041,-0.00000490,0.00000050,0.
 00000078,0.00000001,0.00000073,-0.00000317,-0.00000230,0.00000001,0.00
 000250,-0.00000123,0.00000105,0.00000157,-0.00000040,0.00000024,-0.000
 00033,0.00000026,-0.00000125,-0.00000062,-0.00000194,0.00001313,-0.000
 00462,-0.00037868,-0.00000592,-0.00000519,0.00075390,0.00004085,-0.000
 08450,-0.00289556,0.00155720,-0.00608427,0.02620884,0.01121161,0.00387
 188,0.00015792,-0.00278449,-0.00179237,0.00012619,0.00164274,0.0073728
 0,-0.00049784,-0.00860900,-0.00223240,0.00036338,0.00035201,-0.0015138
 8,0.00001149,-0.00033685,-0.00014237,0.00000555,0.00000720,0.00005051,
 0.00002296,0.00000656,-0.00003450,-0.00000545,0.00004128,0.00189703,-0
 .00011178,0.00029199,0.00088732,0.00002836,-0.00224635,0.00224374,-0.0
 0021895,-0.01608992,-0.01587102,-0.00025465,-0.24308231,-0.15119062,-0
 .00269274,-0.00011411,-0.00014520,-0.00001650,0.00019189,0.00000868,0.
 00006498,0.00002850,0.00005075,0.00001277,-0.00001924,0.00002015,0.000
 00458,-0.00000199,-0.00000336,-0.00000245,0.00000445,-0.00001285,0.000
 00088,-0.00000227,0.00000732,0.00000141,0.00002493,-0.00000517,-0.0000
 0096,0.00000028,0.00000691,0.00000152,0.00038639,0.00049413,-0.0000171
 1,-0.00055471,-0.00029908,-0.00000547,-0.00098048,-0.00018825,-0.00001
 108,0.00102562,0.00003854,0.00008151,0.25909485,-0.02586211,-0.0126323
 3,-0.00036343,0.00087680,0.00210287,-0.00010854,0.00034305,-0.00576026
 ,0.00035687,-0.00158709,0.00287876,-0.00000055,-0.00048080,0.00115539,
 -0.00000624,0.00027276,0.00012969,0.00001213,-0.00000515,-0.00003881,-
 0.00002872,-0.00000144,0.00003293,0.00000242,0.00153229,-0.00524410,0.
 00023748,0.00124659,-0.00074751,0.00002779,0.00290457,0.00030948,0.000
 22243,0.01228586,0.01257781,0.00012596,-0.14695497,-0.17649042,-0.0010
 2866,-0.00006438,-0.00002841,0.00000753,-0.00010893,0.00004101,-0.0000
 7350,-0.00003331,-0.00003792,-0.00001562,0.00001677,-0.00000180,-0.000
 01226,0.00000072,0.00000442,0.00000075,-0.00000979,0.00001167,0.000003
 22,0.00000016,-0.00000687,0.00000367,-0.00002383,0.00000208,0.00000063
 ,-0.00000059,-0.00000459,-0.00000512,-0.00113669,-0.00064071,-0.000033
 16,0.00004456,-0.00028754,-0.00000722,0.00098194,0.00005861,0.00002795
 ,-0.00035595,0.00066375,-0.00010653,0.15632579,0.18171386,0.00056076,0
 .00038298,0.00529661,0.00020333,-0.00009675,-0.00350731,-0.00022631,-0
 .00032194,-0.00004977,0.00010460,0.00020683,-0.00058848,-0.00001196,0.
 00006432,0.00033056,0.00001180,0.00000277,0.00013681,-0.00000917,-0.00
 000826,-0.00000370,-0.00000031,-0.00000011,0.00000387,-0.00020859,0.00
 019152,0.00629800,0.00004130,-0.00000055,-0.00055647,-0.00030045,0.000
 24582,0.00759673,-0.00083407,-0.00069194,0.00368830,-0.00245213,-0.000
 68393,-0.03938375,0.00003735,-0.00000151,-0.00029185,0.00002762,0.0000
 1726,0.00013546,0.00000538,-0.00001078,-0.00004427,-0.00001748,0.00003
 207,-0.00001631,0.00000492,-0.00001161,-0.00000888,0.00000159,0.000008
 90,-0.00000277,0.00000389,0.00000407,-0.00000163,-0.00000022,-0.000000
 81,-0.00000106,-0.00000536,-0.00000215,-0.00000584,0.00003644,0.000006
 26,-0.00037289,-0.00000996,-0.00001918,-0.00062836,-0.00007643,-0.0000
 0703,0.00005750,0.00014603,-0.00007648,-0.00457450,0.00293668,0.000771
 74,0.02668165,0.00209197,-0.00134927,0.00007901,-0.00090145,-0.0000586
 9,-0.00001683,0.00107307,0.00037268,0.00001191,-0.00031163,-0.00027756
 ,0.00000946,-0.00045985,0.00013667,0.00002848,0.00016177,0.00007663,-0
 .00000547,-0.00001432,-0.00003191,-0.00001032,-0.00000059,0.00001999,0
 .00000203,-0.00540350,-0.00156503,-0.00013210,0.00862216,-0.02238052,0
 .00036705,-0.00519382,-0.00017316,-0.00017237,0.00050415,-0.00149452,0
 .00004333,-0.00037868,-0.00040065,-0.00001738,0.00020894,-0.00001276,-
 0.00000172,0.00003291,-0.00003698,-0.00000548,-0.00003679,-0.00001649,
 -0.00001467,-0.00001091,-0.00000966,-0.00000032,0.00000639,0.00000142,
 -0.00000393,0.00000231,0.00000077,0.00000614,-0.00000052,-0.00000644,0
 .00000243,-0.00001688,0.00000499,0.00000091,-0.00000080,-0.00000500,-0
 .00000419,-0.00235965,-0.00496465,0.00002666,-0.08385067,0.03371935,-0
 .00082239,0.00110458,-0.00013836,0.00002379,-0.00025562,-0.00019001,0.
 00000323,0.00008946,-0.00016210,0.00000450,0.11877065,0.00143316,-0.00
 058933,0.00006813,-0.00226504,0.00029840,-0.00011206,0.00168403,-0.000
 12448,0.00006670,-0.00054200,0.00017202,-0.00003049,-0.00086710,0.0005
 1436,0.00012418,0.00018774,0.00009712,-0.00003882,-0.00001634,-0.00008
 309,-0.00000771,-0.00001567,0.00004110,0.00000214,0.00287097,-0.002579
 58,0.00024547,0.01145043,-0.04790016,0.00110525,-0.00971741,0.00099448
 ,-0.00024165,0.00121295,-0.00264369,0.00006446,-0.00034094,0.00019805,
 -0.00002669,-0.00018051,-0.00024213,0.00001100,-0.00003347,-0.00013238
 ,-0.00006952,-0.00005201,-0.00002119,-0.00000165,-0.00000415,-0.000004
 27,-0.00001230,-0.00000079,0.00000086,0.00001961,-0.00000230,0.0000176
 0,-0.00002269,0.00000876,-0.00000111,-0.00000795,-0.00002885,0.0000052
 0,0.00000153,0.00000557,-0.00000598,0.00000585,-0.00324822,-0.00054291
 ,-0.00008682,0.02270287,-0.26580468,0.00334358,0.00004803,0.00020307,0
 .00000186,-0.00070615,-0.00041017,-0.00001773,0.00006820,0.00014062,-0
 .00000196,-0.09186070,0.37586852,0.00001722,-0.00002372,0.00002441,0.0
 0001431,-0.00000909,0.00010584,0.00000049,0.00001786,0.00000267,0.0000
 0157,-0.00001444,0.00002420,0.00000420,0.00000482,0.00003932,-0.000001
 16,-0.00000257,-0.00001480,0.00000106,0.00000208,-0.00001139,-0.000000
 11,-0.00000043,0.00000052,-0.00017849,0.00011849,0.00048288,-0.0001395
 0,0.00026265,0.00809163,-0.00002206,0.00000373,0.00169388,0.00000377,0
 .00000052,-0.00046719,-0.00000534,-0.00001453,0.00010893,0.00000546,0.
 00000285,-0.00011430,0.00000550,-0.00000350,-0.00003058,0.00000380,0.0
 0000402,0.00000427,-0.00000238,-0.00000372,0.00000038,-0.00000152,0.00
 000324,0.00000490,0.00000028,-0.00000467,0.00000302,-0.00000135,-0.000
 00271,0.00000077,-0.00000037,0.00000044,-0.00000139,0.00000204,0.00000
 210,0.00000224,0.00001567,-0.00012228,-0.00022025,-0.00066124,0.003620
 48,-0.07087969,0.00001814,-0.00000067,0.00025499,0.00001024,-0.0000024
 5,-0.00024816,0.00000208,-0.00000665,-0.00002901,0.00220725,-0.0065629
 1,0.08135371,-0.00000267,-0.00154295,-0.00209165,-0.00167591,-0.000410
 75,-0.00022187,0.00173198,0.00030781,0.00007545,-0.00060835,-0.0001658
 0,-0.00005398,-0.00090040,0.00032808,0.00005424,0.00028708,0.00015247,
 0.00000348,-0.00002940,-0.00006977,-0.00001112,-0.00000476,0.00004075,
 0.00000333,0.00084539,-0.00472683,0.00131814,-0.02824211,0.00014288,0.
 03515779,-0.00529931,0.00363116,-0.00033216,0.00026043,-0.00034425,-0.
 00126178,-0.00110008,0.00011209,0.00027359,0.00011300,-0.00007394,0.00
 006507,0.00003037,-0.00007864,-0.00000708,-0.00006527,-0.00003353,-0.0
 0002481,-0.00001162,-0.00001366,-0.00000433,0.00000967,-0.00000029,-0.
 00000475,0.00000267,0.00000891,0.00000162,0.00000272,-0.00000772,0.000
 00112,-0.00003191,0.00000824,0.00000273,-0.00000089,-0.00001059,-0.000
 00686,0.00040334,0.00030025,0.00111412,-0.16342711,0.00259490,0.100169
 77,0.00303396,-0.00071862,0.00025382,-0.00016212,-0.00023918,0.0000049
 8,0.00021088,-0.00002055,0.00018748,-0.01796679,0.03528439,0.02586337,
 0.19119060,-0.00031558,-0.00052359,-0.00073152,-0.00103786,-0.00003409
 ,-0.00012751,0.00076018,0.00005239,-0.00001190,-0.00023310,0.00001981,
 -0.00001288,-0.00041133,0.00020306,0.00005530,0.00009718,0.00005518,-0
 .00001048,-0.00001033,-0.00003700,-0.00000485,-0.00000586,0.00001900,0
 .00000112,-0.00009169,-0.00287358,0.00106722,-0.01534645,0.01027183,0.
 01279226,0.00178874,0.00018432,-0.00058594,0.00034800,0.00073798,-0.00
 010185,-0.00069596,0.00052319,0.00009593,-0.00004738,-0.00008948,0.000
 01339,-0.00000625,-0.00005466,-0.00002860,-0.00002416,-0.00001090,-0.0
 0000322,-0.00000355,-0.00000401,-0.00000451,0.00000115,0.00000089,0.00
 000634,-0.00000058,0.00000656,-0.00000692,0.00000296,-0.00000170,-0.00
 000248,-0.00001370,0.00000276,0.00000071,0.00000181,-0.00000302,0.0000
 0150,-0.00046149,0.00016739,0.00026128,0.00403373,-0.07535146,-0.00998
 744,-0.00106784,-0.00361654,0.00180320,0.00010401,0.00004201,0.0000287
 6,0.00004289,0.00004943,-0.00000753,0.04684989,-0.02987125,-0.04406915
 ,-0.03414739,0.08818084,0.00015023,0.00014192,0.00039679,0.00111048,0.
 00033904,0.00025882,-0.00094659,-0.00030944,-0.00005419,0.00030746,0.0
 0016755,0.00006636,0.00049344,-0.00013795,0.00002937,-0.00015305,-0.00
 008793,-0.00002556,0.00001813,0.00003769,-0.00000482,0.00000198,-0.000
 02164,-0.00000272,0.00089293,0.00343898,-0.00050596,0.01655376,-0.0028
 7196,-0.00784707,0.00179568,-0.00205538,0.00094801,-0.00000388,0.00047
 820,0.00034320,0.00032106,-0.00005142,-0.00006153,-0.00009036,0.000033
 84,-0.00014325,-0.00001485,0.00003213,-0.00004004,0.00004206,0.0000234
 7,0.00002062,0.00000460,0.00000368,0.00000254,-0.00000690,0.00000476,0
 .00001032,-0.00000120,-0.00001042,0.00000068,-0.00000264,0.00000068,-0
 .00000010,0.00001571,-0.00000335,-0.00000314,0.00000384,0.00000835,0.0
 0000758,-0.00035473,-0.00006149,-0.00044392,0.10067605,-0.00603555,-0.
 18183031,-0.00121148,0.00171029,-0.00008968,0.00007373,0.00012251,-0.0
 0008107,-0.00008724,0.00004129,-0.00008007,0.02360615,-0.03223437,-0.0
 0771811,-0.15452045,0.03988999,0.28596583,-0.00009905,-0.00146690,0.00
 205016,-0.00161899,-0.00039349,0.00019917,0.00167714,0.00029257,-0.000
 00541,-0.00059318,-0.00015521,0.00003278,-0.00087237,0.00032899,0.0000
 7723,0.00027391,0.00014259,-0.00002807,-0.00002557,-0.00006699,-0.0000
 2288,-0.00000556,0.00004068,0.00000343,0.00092225,-0.00459858,-0.00112
 118,-0.02563120,-0.00094036,-0.03596353,-0.00520817,0.00352915,-0.0000
 7268,0.00020204,-0.00029011,0.00124026,-0.00107059,0.00010207,-0.00034
 244,0.00010842,-0.00007568,-0.00006600,0.00003365,-0.00008165,-0.00004
 456,-0.00005887,-0.00002681,-0.00001721,-0.00001376,-0.00001766,-0.000
 00323,0.00000768,0.00000482,0.00000269,0.00000238,0.00000222,0.0000048
 8,0.00000065,-0.00001153,0.00000226,-0.00003174,0.00000878,0.00000065,
 0.00000198,-0.00000714,-0.00000273,0.00044259,0.00026462,-0.00108605,-
 0.15401942,-0.00052566,-0.09910623,0.00298142,-0.00063727,-0.00007663,
 -0.00015919,-0.00023311,-0.00000297,0.00021109,-0.00002417,-0.00016122
 ,-0.01550589,0.03292456,-0.02716293,0.02140661,-0.00011007,0.01132609,
 0.17664173,-0.00035353,-0.00049978,0.00074026,-0.00107174,-0.00004507,
 0.00007455,0.00078425,0.00005709,0.00004835,-0.00024478,0.00002036,-0.
 00001009,-0.00042749,0.00020638,0.00004552,0.00010193,0.00005669,-0.00
 001965,-0.00001011,-0.00003779,-0.00000591,-0.00000616,0.00001958,0.00
 000216,-0.00007600,-0.00300759,-0.00100013,-0.01513300,0.00997531,-0.0
 1410033,0.00171467,0.00027748,0.00070853,0.00033576,0.00072443,0.00009
 410,-0.00069702,0.00051888,-0.00014596,-0.00004501,-0.00009016,-0.0000
 1054,-0.00000605,-0.00005368,-0.00002471,-0.00002725,-0.00001169,-0.00
 000376,-0.00000283,-0.00000406,-0.00000440,0.00000107,0.00000089,0.000
 00629,-0.00000032,0.00000648,-0.00000680,0.00000302,-0.00000184,-0.000
 00245,-0.00001416,0.00000297,0.00000073,0.00000184,-0.00000322,0.00000
 131,-0.00043656,0.00016131,-0.00030602,0.00073619,-0.07497875,0.006877
 29,-0.00094007,-0.00372310,-0.00174609,0.00010303,0.00003748,-0.000027
 45,0.00004443,0.00004891,0.00000800,0.04395207,-0.02759501,0.04680020,
 -0.00030751,0.01195462,-0.00259346,-0.02797864,0.08598287,-0.00017651,
 -0.00017534,0.00048197,-0.00116676,-0.00036495,0.00024021,0.00101556,0
 .00034573,-0.00006894,-0.00033130,-0.00019253,0.00007929,-0.00051747,0
 .00017504,0.00010279,0.00015424,0.00008359,-0.00003303,-0.00001549,-0.
 00003674,-0.00002794,-0.00000364,0.00002404,0.00000240,-0.00083058,-0.
 00359542,-0.00046482,-0.01694154,0.00231074,-0.01004752,-0.00214166,0.
 00223911,0.00077138,-0.00001255,-0.00050168,0.00041308,-0.00034580,0.0
 0003198,-0.00011125,0.00009636,-0.00003714,-0.00014985,0.00002920,-0.0
 0005262,-0.00006244,-0.00002951,-0.00001067,-0.00000440,-0.00001260,-0
 .00001585,-0.00000121,0.00000274,0.00000848,0.00000723,0.00000140,-0.0
 0000553,0.00000803,-0.00000211,-0.00001083,0.00000282,-0.00001851,0.00
 000526,-0.00000176,0.00000356,-0.00000096,0.00000165,0.00041202,0.0000
 5625,-0.00047455,-0.09968899,0.00283171,-0.19210979,0.00137832,-0.0016
 2412,0.00004696,-0.00008030,-0.00013770,-0.00008156,0.00009997,-0.0000
 4567,-0.00007859,-0.02521517,0.03441556,-0.01246369,-0.00600923,-0.000
 32020,-0.08911858,0.15034634,-0.03539957,0.30314211\\0.00000186,-0.000
 00386,0.00000155,-0.00000464,-0.00000186,-0.00000360,0.00000291,0.0000
 0737,-0.00000036,-0.00000422,-0.00000130,-0.00000447,0.00000029,0.0000
 0266,0.00000318,0.00000276,0.00000424,-0.00000204,0.00000221,0.0000062
 1,0.00000244,0.00000126,0.00000865,0.00000128,-0.00000049,-0.00000370,
 0.00000103,0.00000042,-0.00000597,-0.00000060,-0.00000349,-0.00000700,
 -0.00000225,-0.00000213,-0.00000489,-0.00000480,-0.00000339,-0.0000018
 0,-0.00000303,0.00000283,-0.00000008,0.00000322,0.00000148,0.00000278,
 0.00000415,-0.00000103,0.00000738,-0.00000154,-0.00000123,0.00000434,-
 0.00000169,0.00000232,0.00000368,0.00000359,0.00000281,0.00000776,0.00
 000383,-0.00000011,0.00000745,-0.00000069,0.00000224,0.00000947,0.0000
 0261,0.00000052,0.00001127,-0.00000001,0.00000249,-0.00000398,0.000003
 26,0.00000049,-0.00000849,0.00000364,-0.00000304,-0.00000890,-0.000004
 38,-0.00000522,-0.00000497,-0.00000718,-0.00000374,-0.00000136,-0.0000
 0569,0.00000362,-0.00000741,0.00000491,0.00000110,-0.00000638,0.000001
 57,0.00000113,-0.00001129,0.00000208\\\@


 ... I FELL INTO A REVERIE ... THE ATOMS WERE GAMBOLING BEFORE MY EYES
 ... I SAW HOW TWO SMALL ONES UNITED TO FORM A PAIR;
 HOW THE LARGER ONES SEIZED TWO OF THE SMALLER ONES;
 HOW STILL LARGER ONES KEPT HOLD OF THREE OR FOUR
 SMALLER ONES ... I SAW HOW THE LARGER ONES FORMED A CHAIN ...
 THIS WAS THE ORIGIN OF THE STRUCTURE THEORY.

                                   -- C.F.KEKULE VON STRADONITZ
 Job cpu time:       0 days  4 hours 30 minutes  8.5 seconds.
 File lengths (MBytes):  RWF=    690 Int=      0 D2E=      0 Chk=     23 Scr=      1
 Normal termination of Gaussian 09 at Thu Nov 14 10:33:01 2019.
pbs_rusage has been removed.
Please contact help@nci.org.au if you require this functionality.
