 Entering Gaussian System, Link 0=/apps/gaussian/g09e01/g09/g09
 AtFile(1): /home/507/hio507/Basis/6-31pGd.gbs
 Initial command:
 /apps/gaussian/g09e01/g09/l1.exe "/jobfs/local/4126027.r-man2/Gau-8337.inp" -scrdir="/jobfs/local/4126027.r-man2/"
 Entering Link 1 = /apps/gaussian/g09e01/g09/l1.exe PID=      8338.
  
 Copyright (c) 1988,1990,1992,1993,1995,1998,2003,2009,2015,
            Gaussian, Inc.  All Rights Reserved.
  
 This is part of the Gaussian(R) 09 program.  It is based on
 the Gaussian(R) 03 system (copyright 2003, Gaussian, Inc.),
 the Gaussian(R) 98 system (copyright 1998, Gaussian, Inc.),
 the Gaussian(R) 94 system (copyright 1995, Gaussian, Inc.),
 the Gaussian 92(TM) system (copyright 1992, Gaussian, Inc.),
 the Gaussian 90(TM) system (copyright 1990, Gaussian, Inc.),
 the Gaussian 88(TM) system (copyright 1988, Gaussian, Inc.),
 the Gaussian 86(TM) system (copyright 1986, Carnegie Mellon
 University), and the Gaussian 82(TM) system (copyright 1983,
 Carnegie Mellon University). Gaussian is a federally registered
 trademark of Gaussian, Inc.
  
 This software contains proprietary and confidential information,
 including trade secrets, belonging to Gaussian, Inc.
  
 This software is provided under written license and may be
 used, copied, transmitted, or stored only in accord with that
 written license.
  
 The following legend is applicable only to US Government
 contracts under FAR:
  
                    RESTRICTED RIGHTS LEGEND
  
 Use, reproduction and disclosure by the US Government is
 subject to restrictions as set forth in subparagraphs (a)
 and (c) of the Commercial Computer Software - Restricted
 Rights clause in FAR 52.227-19.
  
 Gaussian, Inc.
 340 Quinnipiac St., Bldg. 40, Wallingford CT 06492
  
  
 ---------------------------------------------------------------
 Warning -- This program may not be used in any manner that
 competes with the business of Gaussian, Inc. or will provide
 assistance to any competitor of Gaussian, Inc.  The licensee
 of this program is prohibited from giving any competitor of
 Gaussian, Inc. access to this program.  By using this program,
 the user acknowledges that Gaussian, Inc. is engaged in the
 business of creating and licensing software in the field of
 computational chemistry and represents and warrants to the
 licensee that it is not a competitor of Gaussian, Inc. and that
 it will not use this program in any manner prohibited above.
 ---------------------------------------------------------------
  

 Cite this work as:
 Gaussian 09, Revision E.01,
 M. J. Frisch, G. W. Trucks, H. B. Schlegel, G. E. Scuseria, 
 M. A. Robb, J. R. Cheeseman, G. Scalmani, V. Barone, B. Mennucci, 
 G. A. Petersson, H. Nakatsuji, M. Caricato, X. Li, H. P. Hratchian, 
 A. F. Izmaylov, J. Bloino, G. Zheng, J. L. Sonnenberg, M. Hada, 
 M. Ehara, K. Toyota, R. Fukuda, J. Hasegawa, M. Ishida, T. Nakajima, 
 Y. Honda, O. Kitao, H. Nakai, T. Vreven, J. A. Montgomery, Jr., 
 J. E. Peralta, F. Ogliaro, M. Bearpark, J. J. Heyd, E. Brothers, 
 K. N. Kudin, V. N. Staroverov, T. Keith, R. Kobayashi, J. Normand, 
 K. Raghavachari, A. Rendell, J. C. Burant, S. S. Iyengar, J. Tomasi, 
 M. Cossi, N. Rega, J. M. Millam, M. Klene, J. E. Knox, J. B. Cross, 
 V. Bakken, C. Adamo, J. Jaramillo, R. Gomperts, R. E. Stratmann, 
 O. Yazyev, A. J. Austin, R. Cammi, C. Pomelli, J. W. Ochterski, 
 R. L. Martin, K. Morokuma, V. G. Zakrzewski, G. A. Voth, 
 P. Salvador, J. J. Dannenberg, S. Dapprich, A. D. Daniels, 
 O. Farkas, J. B. Foresman, J. V. Ortiz, J. Cioslowski, 
 and D. J. Fox, Gaussian, Inc., Wallingford CT, 2013.
 
 ******************************************
 Gaussian 09:  ES64L-G09RevE.01 30-Nov-2015
                13-Dec-2019 
 ******************************************
 %chk=29_c2.MP2_6-31pGd.chk
 %mem=1114112000
 %nproc=4
 Will use up to    4 processors via shared memory.
 -------------------------------------------------------------
 # MP2/Gen 6D SCF=Tight INT(grid=ultrafine) maxdisk=3489660928
 -------------------------------------------------------------
 1/38=1/1;
 2/12=2,17=6,18=5,40=1/2;
 3/5=7,8=2,11=9,16=1,25=1,30=1,75=-5/1,2,3;
 4//1;
 5/5=2,32=2,38=5/2;
 8/10=1/1;
 9/16=-3/6;
 6/7=2,8=2,9=2,10=2/1;
 99/5=1,9=1/99;
 -----------------
 29_c2.MP2_6-31pGd
 -----------------
 Symbolic Z-matrix:
 Charge =  0 Multiplicity = 1
 C                    -5.93969   0.77587   0.76554 
 N                    -4.63953   0.25746   0.82466 
 C                    -3.4505    0.95457   0.64092 
 O                    -3.40262   2.14024   0.39111 
 N                    -2.33692   0.16751   0.79155 
 C                    -1.01099   0.69129   0.49184 
 C                    -0.54438   0.3722   -0.92818 
 C                    -1.45698   0.95726  -2.00178 
 C                    -6.97844  -0.05979   1.18409 
 C                    -8.30104   0.35574   1.13788 
 C                    -8.60371   1.63331   0.66857 
 C                    -7.57615   2.46693   0.25324 
 C                    -6.25131   2.05414   0.29437 
 H                    -0.31106   0.28622   1.22649 
 H                    -1.06318   1.76972   0.64263 
 H                    -0.46932  -0.71493  -1.04964 
 H                     0.47165   0.76266  -1.04374 
 H                    -2.46592   0.54278  -1.93636 
 H                    -1.07497   0.73997  -3.00087 
 H                    -1.54465   2.04016  -1.89436 
 H                    -6.75606  -1.05472   1.55283 
 C                    -9.38331  -0.58664   1.5991 
 Cl                   -10.23999   2.213     0.58952 
 H                    -7.81766   3.45842  -0.10966 
 H                    -5.46522   2.71915  -0.02778 
 F                    -8.87254  -1.75896   2.00953 
 F                    -10.07979  -0.08749   2.62671 
 F                    -10.25485  -0.86581   0.6227 
 H                    -2.44706  -0.83509   0.75719 
 H                    -4.56979  -0.68113   1.1876 
 
                          Input orientation:                          
 ---------------------------------------------------------------------
 Center     Atomic      Atomic             Coordinates (Angstroms)
 Number     Number       Type             X           Y           Z
 ---------------------------------------------------------------------
      1          6           0       -5.939690    0.775869    0.765538
      2          7           0       -4.639527    0.257457    0.824658
      3          6           0       -3.450499    0.954566    0.640920
      4          8           0       -3.402620    2.140240    0.391112
      5          7           0       -2.336920    0.167510    0.791548
      6          6           0       -1.010992    0.691285    0.491841
      7          6           0       -0.544376    0.372203   -0.928183
      8          6           0       -1.456976    0.957263   -2.001780
      9          6           0       -6.978438   -0.059789    1.184090
     10          6           0       -8.301041    0.355740    1.137883
     11          6           0       -8.603708    1.633306    0.668569
     12          6           0       -7.576150    2.466930    0.253241
     13          6           0       -6.251307    2.054144    0.294375
     14          1           0       -0.311057    0.286216    1.226490
     15          1           0       -1.063180    1.769717    0.642628
     16          1           0       -0.469315   -0.714934   -1.049644
     17          1           0        0.471650    0.762665   -1.043738
     18          1           0       -2.465922    0.542777   -1.936364
     19          1           0       -1.074973    0.739969   -3.000874
     20          1           0       -1.544648    2.040159   -1.894357
     21          1           0       -6.756061   -1.054723    1.552826
     22          6           0       -9.383314   -0.586644    1.599099
     23         17           0      -10.239992    2.213005    0.589520
     24          1           0       -7.817664    3.458420   -0.109657
     25          1           0       -5.465218    2.719146   -0.027778
     26          9           0       -8.872544   -1.758956    2.009533
     27          9           0      -10.079791   -0.087487    2.626708
     28          9           0      -10.254853   -0.865806    0.622703
     29          1           0       -2.447062   -0.835087    0.757185
     30          1           0       -4.569791   -0.681131    1.187601
 ---------------------------------------------------------------------
                    Distance matrix (angstroms):
                    1          2          3          4          5
     1  C    0.000000
     2  N    1.400954   0.000000
     3  C    2.498707   1.390506   0.000000
     4  O    2.904897   2.294073   1.212649   0.000000
     5  N    3.653865   2.304601   1.371935   2.277659   0.000000
     6  C    4.937016   3.669501   2.458198   2.798124   1.456794
     7  C    5.669308   4.455993   3.353622   3.610547   2.492506
     8  C    5.271212   4.313596   3.310288   3.303165   3.033264
     9  C    1.397322   2.387539   3.710836   4.272636   4.663630
    10  C    2.427165   3.676202   4.912568   5.266558   5.977133
    11  C    2.800285   4.199055   5.197790   5.233096   6.437105
    12  C    2.408347   3.719145   4.411183   4.188567   5.746881
    13  C    1.397529   2.471259   3.028811   2.851630   4.373671
    14  H    5.668664   4.347177   3.262772   3.700408   2.075424
    15  H    4.978272   3.887200   2.522651   2.381917   2.052233
    16  H    5.953350   4.674314   3.812177   4.339594   2.767064
    17  H    6.661752   5.465370   4.272956   4.355052   3.407426
    18  H    4.407002   3.525508   2.789508   2.974296   2.756623
    19  H    6.152448   5.251052   4.353371   4.345604   4.037658
    20  H    5.290545   4.488802   3.352374   2.947108   3.368767
    21  H    2.153451   2.594564   3.974362   4.775241   4.647817
    22  C    3.796026   4.880142   6.204170   6.683100   7.132500
    23  Cl   4.537503   5.936722   6.905326   6.840637   8.165991
    24  H    3.389518   4.606481   5.089674   4.634758   6.456069
    25  H    2.151929   2.732823   2.760433   2.182868   4.119271
    26  F    4.071179   4.836144   6.215696   6.909637   6.921643
    27  F    4.620582   5.741328   6.998339   7.385477   7.961463
    28  F    4.619105   5.730131   7.043673   7.486191   7.986859
    29  H    3.846259   2.450532   2.055058   3.146375   1.009214
    30  H    2.043921   1.008732   2.056011   3.155443   2.421315
                    6          7          8          9         10
     6  C    0.000000
     7  C    1.528401   0.000000
     8  C    2.547115   1.525695   0.000000
     9  C    6.054233   6.785681   6.455286   0.000000
    10  C    7.326307   8.027126   7.553843   1.387112   0.000000
    11  C    7.652972   8.312210   7.659216   2.402880   1.394287
    12  C    6.805229   7.431655   6.693916   2.758269   2.401079
    13  C    5.418236   6.073931   5.427807   2.406040   2.792399
    14  H    1.092565   2.168973   3.490725   6.676488   7.990778
    15  H    1.090173   2.165560   2.794289   6.215348   7.391295
    16  H    2.155700   1.096474   2.162933   6.912848   8.201680
    17  H    2.135726   1.094587   2.162246   7.819429   9.049042
    18  H    2.834618   2.176664   1.092726   5.519341   6.598075
    19  H    3.493640   2.170907   1.091481   7.280414   8.336246
    20  H    2.792524   2.171662   1.091737   6.588831   7.594774
    21  H    6.097544   6.839338   6.690561   1.084117   2.132733
    22  C    8.541364   9.243017   8.841765   2.496645   1.507356
    23  Cl   9.354123   9.984836   9.243003   4.019557   2.740376
    24  H    7.372220   7.943264   7.091846   3.841338   3.378851
    25  H    4.921621   5.525718   4.802804   3.388353   3.871220
    26  F    8.373236   9.084624   8.857716   2.675100   2.357611
    27  F    9.349185  10.186889   9.842121   3.420571   2.361568
    28  F    9.375000   9.911170   9.360243   3.420485   2.361137
    29  H    2.112467   2.813935   3.435794   4.617002   5.985990
    30  H    3.877198   4.667979   4.748274   2.487501   3.872958
                   11         12         13         14         15
    11  C    0.000000
    12  C    1.386832   0.000000
    13  C    2.418867   1.388269   0.000000
    14  H    8.419857   7.647503   6.267454   0.000000
    15  H    7.541807   6.561746   5.207576   1.762770   0.000000
    16  H    8.639146   7.894863   6.550238   2.491613   3.064303
    17  H    9.276429   8.327890   6.975430   2.448177   2.492727
    18  H    6.756282   5.883125   4.646458   3.835742   3.181866
    19  H    8.422869   7.472413   6.275361   4.319730   3.786242
    20  H    7.520934   6.416644   5.190702   3.786522   2.596391
    21  H    3.379528   3.842330   3.391685   6.591106   6.419876
    22  C    2.530187   3.794929   4.299481   9.121763   8.700109
    23  Cl   1.737735   2.696964   4.002743  10.134199   9.187666
    24  H    2.134138   1.083087   2.142127   8.258167   7.002907
    25  H    3.393239   2.144439   1.078863   5.835898   4.552889
    26  F    3.657580   4.756397   4.934814   8.837135   8.677911
    27  F    2.995706   4.292623   4.968264   9.875649   9.417275
    28  F    2.995654   4.291746   4.966115  10.028499   9.562073
    29  H    6.633635   6.120852   4.799389   2.457658   2.951823
    30  H    4.679583   4.452136   3.332729   4.367389   4.312769
                   16         17         18         19         20
    16  H    0.000000
    17  H    1.751785   0.000000
    18  H    2.520823   3.078062   0.000000
    19  H    2.508159   2.494582   1.762613   0.000000
    20  H    3.075779   2.533969   1.758597   1.770725   0.000000
    21  H    6.812596   7.892075   5.756017   7.498790   6.972817
    22  C    9.300090  10.292013   7.850185   9.588961   8.974910
    23  Cl  10.330818  10.932076   8.343015   9.952805   9.044806
    24  H    8.502864   8.766546   6.362309   7.823873   6.674380
    25  H    6.147858   6.332961   4.168340   5.659566   4.394998
    26  F    9.003488  10.148645   7.868474   9.599527   9.130810
    27  F   10.308758  11.203921   8.898868  10.650873   9.890176
    28  F    9.928558  10.976649   8.318676   9.998951   9.520919
    29  H    2.681520   3.783519   3.025570   4.299586   4.013984
    30  H    4.671222   5.699083   3.960224   5.637074   5.104447
                   21         22         23         24         25
    21  H    0.000000
    22  C    2.669026   0.000000
    23  Cl   4.872759   3.096963   0.000000
    24  H    4.925374   4.661937   2.812042   0.000000
    25  H    4.290299   5.378332   4.841043   2.467232   0.000000
    26  F    2.276846   1.343003   4.434278   5.729289   5.984472
    27  F    3.624356   1.337990   3.077022   5.017805   6.018120
    28  F    3.625241   1.338231   3.079026   5.017487   6.017941
    29  H    4.387340   6.991576   8.369512   6.930295   4.728425
    30  H    2.247829   4.832004   6.394130   5.419174   3.720325
                   26         27         28         29         30
    26  F    0.000000
    27  F    2.152245   0.000000
    28  F    2.152160   2.156957   0.000000
    29  H    6.611258   7.893832   7.809010   0.000000
    30  H    4.511204   5.725691   5.716043   2.171392   0.000000
 Stoichiometry    C11H12ClF3N2O
 Framework group  C1[X(C11H12ClF3N2O)]
 Deg. of freedom    84
 Full point group                 C1      NOp   1
 Largest Abelian subgroup         C1      NOp   1
 Largest concise Abelian subgroup C1      NOp   1
                         Standard orientation:                         
 ---------------------------------------------------------------------
 Center     Atomic      Atomic             Coordinates (Angstroms)
 Number     Number       Type             X           Y           Z
 ---------------------------------------------------------------------
      1          6           0       -0.308088   -0.010725   -0.195639
      2          7           0       -1.551182   -0.654679   -0.247698
      3          6           0       -2.780233   -0.080096   -0.552322
      4          8           0       -2.922276    1.095881   -0.811976
      5          7           0       -3.812117   -0.984202   -0.548980
      6          6           0       -5.190707   -0.538572   -0.701145
      7          6           0       -5.907339   -0.331645    0.632884
      8          6           0       -5.241124    0.723449    1.510767
      9          6           0        0.824043   -0.820186   -0.070895
     10          6           0        2.095717   -0.272804    0.014512
     11          6           0        2.251788    1.112057   -0.028337
     12          6           0        1.131329    1.919671   -0.153384
     13          6           0       -0.143622    1.376515   -0.235678
     14          1           0       -5.720400   -1.273400   -1.312006
     15          1           0       -5.153677    0.395061   -1.262781
     16          1           0       -5.960841   -1.287212    1.167940
     17          1           0       -6.941448   -0.044445    0.417815
     18          1           0       -4.222594    0.432949    1.779574
     19          1           0       -5.798282    0.869560    2.437890
     20          1           0       -5.177771    1.682013    0.992085
     21          1           0        0.716195   -1.898434   -0.038325
     22          6           0        3.282953   -1.191525    0.150695
     23         17           0        3.818260    1.857773    0.070641
     24          1           0        1.259199    2.994665   -0.186777
     25          1           0       -1.002715    2.021006   -0.338329
     26          9           0        2.907330   -2.480769    0.171059
     27          9           0        4.142736   -1.055402   -0.865406
     28          9           0        3.961965   -0.969203    1.282233
     29          1           0       -3.670693   -1.875354   -0.096918
     30          1           0       -1.512688   -1.661904   -0.208234
 ---------------------------------------------------------------------
 Rotational constants (GHZ):      0.8638875      0.1464232      0.1331408
 General basis read from cards:  (6D, 7F)
 There are   370 symmetry adapted cartesian basis functions of A   symmetry.
 There are   370 symmetry adapted basis functions of A   symmetry.
   370 basis functions,   648 primitive gaussians,   370 cartesian basis functions
    72 alpha electrons       72 beta electrons
       nuclear repulsion energy      1457.8803802363 Hartrees.
 NAtoms=   30 NActive=   30 NUniq=   30 SFac= 1.00D+00 NAtFMM=   60 NAOKFM=F Big=F
 Integral buffers will be    131072 words long.
 Raffenetti 1 integral format.
 Two-electron integral symmetry is turned on.
 One-electron integrals computed using PRISM.
 NBasis=   370 RedAO= T EigKep=  1.08D-06  NBF=   370
 NBsUse=   370 1.00D-06 EigRej= -1.00D+00 NBFU=   370
 ExpMin= 4.38D-02 ExpMax= 2.52D+04 ExpMxC= 3.78D+03 IAcc=3 IRadAn=         5 AccDes= 0.00D+00
 Harris functional with IExCor=  205 and IRadAn=       5 diagonalized for initial guess.
 HarFok:  IExCor=  205 AccDes= 0.00D+00 IRadAn=         5 IDoV= 1 UseB2=F ITyADJ=14
 ICtDFT=  3500011 ScaDFX=  1.000000  1.000000  1.000000  1.000000
 FoFCou: FMM=F IPFlag=           0 FMFlag=      100000 FMFlg1=           0
         NFxFlg=           0 DoJE=T BraDBF=F KetDBF=T FulRan=T
         wScrn=  0.000000 ICntrl=     500 IOpCl=  0 I1Cent=   200000004 NGrid=           0
         NMat0=    1 NMatS0=      1 NMatT0=    0 NMatD0=    1 NMtDS0=    0 NMtDT0=    0
 Petite list used in FoFCou.
 Requested convergence on RMS density matrix=1.00D-08 within 128 cycles.
 Requested convergence on MAX density matrix=1.00D-06.
 Requested convergence on             energy=1.00D-06.
 No special actions if energy rises.
 Initial convergence to 1.0D-05 achieved.  Increase integral accuracy.
 SCF Done:  E(RHF) =  -1365.16087609     A.U. after   17 cycles
            NFock= 17  Conv=0.72D-08     -V/T= 2.0017
 ExpMin= 4.38D-02 ExpMax= 2.52D+04 ExpMxC= 3.78D+03 IAcc=3 IRadAn=         5 AccDes= 0.00D+00
 HarFok:  IExCor=  205 AccDes= 0.00D+00 IRadAn=         5 IDoV=-2 UseB2=F ITyADJ=14
 ICtDFT= 12500011 ScaDFX=  1.000000  1.000000  1.000000  1.000000
 Range of M.O.s used for correlation:    23   370
 NBasis=   370 NAE=    72 NBE=    72 NFC=    22 NFV=     0
 NROrb=    348 NOA=    50 NOB=    50 NVA=   298 NVB=   298

 **** Warning!!: The largest alpha MO coefficient is  0.18800201D+03

 Fully direct method using O(OVN) memory.
 JobTyp=1 Pass  1:  I=   1 to  50 NPSUse=  4 ParTrn=T ParDer=T DoDerP=F.
 Spin components of T(2) and E(2):
     alpha-alpha T2 =       0.1146735340D+00 E2=     -0.3532991685D+00
     alpha-beta  T2 =       0.5879651891D+00 E2=     -0.1877365861D+01
     beta-beta   T2 =       0.1146735340D+00 E2=     -0.3532991685D+00
 ANorm=    0.1348077244D+01
 E2 =    -0.2583964198D+01 EUMP2 =    -0.13677448402861D+04

 **********************************************************************

            Population analysis using the SCF density.

 **********************************************************************

 Orbital symmetries:
       Occupied  (A) (A) (A) (A) (A) (A) (A) (A) (A) (A) (A) (A)
                 (A) (A) (A) (A) (A) (A) (A) (A) (A) (A) (A) (A)
                 (A) (A) (A) (A) (A) (A) (A) (A) (A) (A) (A) (A)
                 (A) (A) (A) (A) (A) (A) (A) (A) (A) (A) (A) (A)
                 (A) (A) (A) (A) (A) (A) (A) (A) (A) (A) (A) (A)
                 (A) (A) (A) (A) (A) (A) (A) (A) (A) (A) (A) (A)
       Virtual   (A) (A) (A) (A) (A) (A) (A) (A) (A) (A) (A) (A)
                 (A) (A) (A) (A) (A) (A) (A) (A) (A) (A) (A) (A)
                 (A) (A) (A) (A) (A) (A) (A) (A) (A) (A) (A) (A)
                 (A) (A) (A) (A) (A) (A) (A) (A) (A) (A) (A) (A)
                 (A) (A) (A) (A) (A) (A) (A) (A) (A) (A) (A) (A)
                 (A) (A) (A) (A) (A) (A) (A) (A) (A) (A) (A) (A)
                 (A) (A) (A) (A) (A) (A) (A) (A) (A) (A) (A) (A)
                 (A) (A) (A) (A) (A) (A) (A) (A) (A) (A) (A) (A)
                 (A) (A) (A) (A) (A) (A) (A) (A) (A) (A) (A) (A)
                 (A) (A) (A) (A) (A) (A) (A) (A) (A) (A) (A) (A)
                 (A) (A) (A) (A) (A) (A) (A) (A) (A) (A) (A) (A)
                 (A) (A) (A) (A) (A) (A) (A) (A) (A) (A) (A) (A)
                 (A) (A) (A) (A) (A) (A) (A) (A) (A) (A) (A) (A)
                 (A) (A) (A) (A) (A) (A) (A) (A) (A) (A) (A) (A)
                 (A) (A) (A) (A) (A) (A) (A) (A) (A) (A) (A) (A)
                 (A) (A) (A) (A) (A) (A) (A) (A) (A) (A) (A) (A)
                 (A) (A) (A) (A) (A) (A) (A) (A) (A) (A) (A) (A)
                 (A) (A) (A) (A) (A) (A) (A) (A) (A) (A) (A) (A)
                 (A) (A) (A) (A) (A) (A) (A) (A) (A) (A) (A) (A)
                 (A) (A) (A) (A) (A) (A) (A) (A) (A) (A) (A) (A)
                 (A) (A) (A) (A) (A) (A) (A) (A) (A) (A) (A) (A)
                 (A) (A) (A) (A) (A) (A) (A) (A) (A) (A) (A) (A)
                 (A) (A) (A) (A) (A) (A) (A) (A) (A) (A) (A) (A)
                 (A) (A) (A) (A) (A) (A) (A) (A) (A) (A) (A) (A)
                 (A) (A) (A) (A) (A) (A) (A) (A) (A) (A)
 The electronic state is 1-A.
 Alpha  occ. eigenvalues -- -104.83765 -26.35877 -26.35180 -26.35172 -20.54701
 Alpha  occ. eigenvalues --  -15.63025 -15.60798 -11.52545 -11.40860 -11.32193
 Alpha  occ. eigenvalues --  -11.31954 -11.29121 -11.27507 -11.27496 -11.26929
 Alpha  occ. eigenvalues --  -11.25915 -11.23718 -11.22019 -10.57011  -8.03955
 Alpha  occ. eigenvalues --   -8.03610  -8.03605  -1.73878  -1.64178  -1.63788
 Alpha  occ. eigenvalues --   -1.42453  -1.28708  -1.24698  -1.20861  -1.13028
 Alpha  occ. eigenvalues --   -1.08301  -1.06364  -1.01987  -0.97136  -0.94562
 Alpha  occ. eigenvalues --   -0.88947  -0.86888  -0.84559  -0.82624  -0.82428
 Alpha  occ. eigenvalues --   -0.81553  -0.79240  -0.77230  -0.72062  -0.71363
 Alpha  occ. eigenvalues --   -0.71138  -0.68313  -0.67352  -0.66461  -0.66314
 Alpha  occ. eigenvalues --   -0.65972  -0.64875  -0.64708  -0.62616  -0.62512
 Alpha  occ. eigenvalues --   -0.61298  -0.59959  -0.59343  -0.56161  -0.55576
 Alpha  occ. eigenvalues --   -0.55057  -0.54045  -0.51935  -0.50536  -0.49866
 Alpha  occ. eigenvalues --   -0.49165  -0.46439  -0.45560  -0.44860  -0.41033
 Alpha  occ. eigenvalues --   -0.37457  -0.32281
 Alpha virt. eigenvalues --    0.04532   0.07268   0.07602   0.07973   0.08369
 Alpha virt. eigenvalues --    0.08645   0.09047   0.09234   0.09818   0.10880
 Alpha virt. eigenvalues --    0.11102   0.11220   0.12288   0.12663   0.12747
 Alpha virt. eigenvalues --    0.13422   0.13926   0.14377   0.14915   0.15637
 Alpha virt. eigenvalues --    0.15960   0.16503   0.16777   0.18048   0.18218
 Alpha virt. eigenvalues --    0.18381   0.18898   0.19116   0.19985   0.20789
 Alpha virt. eigenvalues --    0.21063   0.21447   0.22201   0.22758   0.23033
 Alpha virt. eigenvalues --    0.23480   0.24466   0.24974   0.25492   0.25913
 Alpha virt. eigenvalues --    0.26886   0.27018   0.28065   0.28273   0.28505
 Alpha virt. eigenvalues --    0.29335   0.29933   0.30702   0.30852   0.31366
 Alpha virt. eigenvalues --    0.32480   0.33321   0.33431   0.33670   0.34333
 Alpha virt. eigenvalues --    0.34391   0.35325   0.35805   0.36054   0.36915
 Alpha virt. eigenvalues --    0.37352   0.38033   0.38765   0.39430   0.39623
 Alpha virt. eigenvalues --    0.40101   0.40817   0.41713   0.41848   0.42578
 Alpha virt. eigenvalues --    0.42804   0.43486   0.44093   0.44572   0.44621
 Alpha virt. eigenvalues --    0.45461   0.46088   0.46347   0.46882   0.47329
 Alpha virt. eigenvalues --    0.47845   0.49118   0.49418   0.49588   0.49877
 Alpha virt. eigenvalues --    0.50375   0.50605   0.51292   0.51903   0.52598
 Alpha virt. eigenvalues --    0.53198   0.54578   0.55348   0.56176   0.56765
 Alpha virt. eigenvalues --    0.58623   0.60062   0.61098   0.61585   0.63619
 Alpha virt. eigenvalues --    0.65088   0.67513   0.68495   0.73653   0.75535
 Alpha virt. eigenvalues --    0.77677   0.83306   0.85574   0.85708   0.86686
 Alpha virt. eigenvalues --    0.88626   0.89226   0.89473   0.90705   0.90873
 Alpha virt. eigenvalues --    0.91992   0.92449   0.94220   0.95560   0.96210
 Alpha virt. eigenvalues --    0.97070   0.97859   0.99936   1.00110   1.01670
 Alpha virt. eigenvalues --    1.02315   1.03189   1.03300   1.03884   1.05756
 Alpha virt. eigenvalues --    1.06215   1.07689   1.08124   1.09107   1.12598
 Alpha virt. eigenvalues --    1.14683   1.17140   1.18548   1.18724   1.19493
 Alpha virt. eigenvalues --    1.20753   1.22352   1.22532   1.24036   1.24241
 Alpha virt. eigenvalues --    1.24824   1.24845   1.26320   1.27475   1.28818
 Alpha virt. eigenvalues --    1.30055   1.30937   1.32338   1.33479   1.34569
 Alpha virt. eigenvalues --    1.35523   1.38001   1.38593   1.40086   1.40992
 Alpha virt. eigenvalues --    1.42442   1.42951   1.44222   1.44891   1.46047
 Alpha virt. eigenvalues --    1.48103   1.49173   1.50135   1.51653   1.54046
 Alpha virt. eigenvalues --    1.56516   1.58868   1.60505   1.61121   1.63503
 Alpha virt. eigenvalues --    1.64986   1.65678   1.66557   1.69616   1.71062
 Alpha virt. eigenvalues --    1.71933   1.73467   1.74438   1.77708   1.78494
 Alpha virt. eigenvalues --    1.81216   1.84069   1.86927   1.87143   1.87455
 Alpha virt. eigenvalues --    1.91353   1.92328   1.93358   1.93705   1.96917
 Alpha virt. eigenvalues --    1.97179   1.97517   1.98390   1.99412   2.00320
 Alpha virt. eigenvalues --    2.02961   2.03028   2.04374   2.07267   2.09246
 Alpha virt. eigenvalues --    2.10989   2.11281   2.11488   2.12323   2.12715
 Alpha virt. eigenvalues --    2.14354   2.14901   2.15489   2.17871   2.18716
 Alpha virt. eigenvalues --    2.20306   2.22477   2.25404   2.26376   2.28103
 Alpha virt. eigenvalues --    2.28918   2.31397   2.32687   2.34612   2.35165
 Alpha virt. eigenvalues --    2.35908   2.37466   2.38668   2.38876   2.39531
 Alpha virt. eigenvalues --    2.39924   2.41952   2.43504   2.45867   2.47866
 Alpha virt. eigenvalues --    2.49047   2.50579   2.51552   2.53443   2.55754
 Alpha virt. eigenvalues --    2.57671   2.58809   2.60718   2.62902   2.66614
 Alpha virt. eigenvalues --    2.68308   2.69114   2.70675   2.71328   2.73855
 Alpha virt. eigenvalues --    2.75452   2.80313   2.80493   2.82694   2.88056
 Alpha virt. eigenvalues --    2.90438   2.96082   2.97814   2.98674   2.99641
 Alpha virt. eigenvalues --    3.00856   3.04469   3.05793   3.08426   3.10147
 Alpha virt. eigenvalues --    3.10686   3.14160   3.16940   3.17912   3.24743
 Alpha virt. eigenvalues --    3.30733   3.32810   3.46600   3.47433   3.51672
 Alpha virt. eigenvalues --    3.60795   3.61239   3.67449   3.70946   3.79595
 Alpha virt. eigenvalues --    4.55657   4.65008   4.66879   4.70278   4.71527
 Alpha virt. eigenvalues --    4.76990   4.81177   4.83281   4.85064   4.87294
 Alpha virt. eigenvalues --    4.91162   4.99914   5.00680   5.13435   5.20521
 Alpha virt. eigenvalues --    5.99762   6.55341   7.45276
          Condensed to atoms (all electrons):
               1          2          3          4          5          6
     1  C   21.337529  -0.249107  -0.658251  -0.444540   0.021571  -0.146835
     2  N   -0.249107   7.748064   0.207350  -0.091064  -0.355814  -0.048376
     3  C   -0.658251   0.207350   5.828003   0.751875   0.092503  -0.094300
     4  O   -0.444540  -0.091064   0.751875   8.301949  -0.132175  -0.036611
     5  N    0.021571  -0.355814   0.092503  -0.132175   7.921439   0.079646
     6  C   -0.146835  -0.048376  -0.094300  -0.036611   0.079646   5.600874
     7  C   -0.035986   0.038658   0.072779   0.005769  -0.144943   0.100516
     8  C   -0.034674  -0.037119  -0.164458  -0.024549   0.142304  -0.113661
     9  C   -9.206460   0.455690  -1.410495  -0.186645  -0.170601  -0.057767
    10  C    2.267578   0.076568  -0.249871  -0.016369   0.127768   0.002278
    11  C   -0.526507   0.036009   0.336453   0.024091  -0.017702   0.006176
    12  C   -3.108650   0.005132  -0.357469   0.151297  -0.034950  -0.002268
    13  C   -0.512947  -0.286167   0.988273   0.346978  -0.018640   0.054499
    14  H    0.008341  -0.005658  -0.022423   0.000972  -0.053923   0.461286
    15  H   -0.016498   0.013709   0.046232  -0.011440  -0.062060   0.406226
    16  H   -0.004855   0.004644   0.014779  -0.000396  -0.013423  -0.058553
    17  H    0.001960  -0.000917  -0.006896   0.000328   0.016957  -0.082109
    18  H    0.012470  -0.005818  -0.036929  -0.002065   0.021366  -0.034614
    19  H   -0.000549  -0.000788   0.001890   0.000821  -0.001183   0.045121
    20  H   -0.002996   0.004277   0.012486  -0.003793  -0.008529  -0.029631
    21  H    0.273141  -0.009646   0.002129   0.000139   0.000512  -0.000017
    22  C   -2.933077   0.009171  -0.149062  -0.003978   0.005071  -0.001538
    23  Cl   0.019238  -0.000260  -0.003165   0.000012   0.000103  -0.000011
    24  H   -0.072828   0.000138   0.003955  -0.000030   0.000009   0.000019
    25  H    0.064704  -0.007691   0.041047  -0.011512   0.000124   0.001461
    26  F    0.195699  -0.000212   0.000741  -0.000000  -0.000006   0.000002
    27  F    0.063899   0.000226   0.000091  -0.000000   0.000002  -0.000000
    28  F    0.063657   0.000136  -0.000097   0.000000   0.000000  -0.000001
    29  H   -0.000928   0.033897   0.044777   0.002070   0.221095  -0.012367
    30  H   -0.073752   0.270308  -0.026171   0.002911   0.011692   0.002142
               7          8          9         10         11         12
     1  C   -0.035986  -0.034674  -9.206460   2.267578  -0.526507  -3.108650
     2  N    0.038658  -0.037119   0.455690   0.076568   0.036009   0.005132
     3  C    0.072779  -0.164458  -1.410495  -0.249871   0.336453  -0.357469
     4  O    0.005769  -0.024549  -0.186645  -0.016369   0.024091   0.151297
     5  N   -0.144943   0.142304  -0.170601   0.127768  -0.017702  -0.034950
     6  C    0.100516  -0.113661  -0.057767   0.002278   0.006176  -0.002268
     7  C    5.616257   0.121593  -0.004635  -0.003777   0.001605   0.003439
     8  C    0.121593   5.548540   0.007944   0.006449  -0.003534   0.009640
     9  C   -0.004635   0.007944  39.276630 -12.423653  -5.787481  -0.531763
    10  C   -0.003777   0.006449 -12.423653  26.924704  -3.885694  -0.563808
    11  C    0.001605  -0.003534  -5.787481  -3.885694  21.237709  -3.641273
    12  C    0.003439   0.009640  -0.531763  -0.563808  -3.641273  19.113613
    13  C    0.018724   0.014075  -6.419155  -1.355409   1.043199  -5.438591
    14  H   -0.088038   0.028002   0.000945   0.000337  -0.000050  -0.000169
    15  H   -0.027877  -0.014275   0.000952  -0.000697   0.000311  -0.000116
    16  H    0.441809  -0.059541   0.000171  -0.000190   0.000025   0.000082
    17  H    0.411850  -0.009523   0.000087   0.000037  -0.000011   0.000004
    18  H   -0.028935   0.417936   0.000638   0.002418  -0.001077   0.002544
    19  H   -0.069299   0.387120  -0.000309  -0.000055   0.000022  -0.000212
    20  H   -0.026077   0.405399   0.001139  -0.000193   0.000066   0.001460
    21  H    0.000040  -0.000020  -0.155519   0.181743  -0.020620  -0.018720
    22  C   -0.000243   0.000892   3.261432  -4.380760  -2.557104   1.023778
    23  Cl  -0.000012   0.000015   0.259706  -0.098929  -0.536308   0.073640
    24  H    0.000003  -0.000002  -0.027038   0.083521   0.135477   0.066073
    25  H    0.000153  -0.000084   0.028959   0.000785  -0.047398   0.046865
    26  F    0.000002  -0.000000  -0.254434   0.068998  -0.004496   0.007834
    27  F   -0.000000   0.000000  -0.105377   0.389853  -0.201536  -0.004510
    28  F    0.000001  -0.000000  -0.096899   0.402773  -0.212979  -0.003884
    29  H   -0.006136  -0.014866  -0.005164  -0.002981   0.000052   0.002350
    30  H    0.000504   0.000073  -0.013441   0.073881  -0.000932   0.018770
              13         14         15         16         17         18
     1  C   -0.512947   0.008341  -0.016498  -0.004855   0.001960   0.012470
     2  N   -0.286167  -0.005658   0.013709   0.004644  -0.000917  -0.005818
     3  C    0.988273  -0.022423   0.046232   0.014779  -0.006896  -0.036929
     4  O    0.346978   0.000972  -0.011440  -0.000396   0.000328  -0.002065
     5  N   -0.018640  -0.053923  -0.062060  -0.013423   0.016957   0.021366
     6  C    0.054499   0.461286   0.406226  -0.058553  -0.082109  -0.034614
     7  C    0.018724  -0.088038  -0.027877   0.441809   0.411850  -0.028935
     8  C    0.014075   0.028002  -0.014275  -0.059541  -0.009523   0.417936
     9  C   -6.419155   0.000945   0.000952   0.000171   0.000087   0.000638
    10  C   -1.355409   0.000337  -0.000697  -0.000190   0.000037   0.002418
    11  C    1.043199  -0.000050   0.000311   0.000025  -0.000011  -0.001077
    12  C   -5.438591  -0.000169  -0.000116   0.000082   0.000004   0.002544
    13  C   16.601318  -0.002407   0.003352   0.000992  -0.000260   0.001083
    14  H   -0.002407   0.505930  -0.023083  -0.002855  -0.000520  -0.000126
    15  H    0.003352  -0.023083   0.435887   0.002937  -0.001714   0.000367
    16  H    0.000992  -0.002855   0.002937   0.515031  -0.028946  -0.002644
    17  H   -0.000260  -0.000520  -0.001714  -0.028946   0.504699   0.003280
    18  H    0.001083  -0.000126   0.000367  -0.002644   0.003280   0.516932
    19  H   -0.000811  -0.000075  -0.000156  -0.002082  -0.003168  -0.028563
    20  H    0.002168  -0.000060   0.002005   0.003200  -0.002650  -0.027246
    21  H    0.055647  -0.000000  -0.000000  -0.000000   0.000000   0.000000
    22  C   -0.352315   0.000007  -0.000012  -0.000003   0.000001   0.000129
    23  Cl   0.050088   0.000000  -0.000000  -0.000000   0.000000   0.000001
    24  H    0.146802  -0.000000   0.000000   0.000000  -0.000000  -0.000000
    25  H    0.201361   0.000000  -0.000003  -0.000000   0.000000  -0.000007
    26  F    0.008053  -0.000000   0.000000   0.000000   0.000000   0.000000
    27  F   -0.002108   0.000000  -0.000000   0.000000   0.000000   0.000000
    28  F    0.001172  -0.000000   0.000000   0.000000   0.000000   0.000000
    29  H    0.007942  -0.003461   0.002567   0.002003  -0.000263  -0.000502
    30  H   -0.011366  -0.000010  -0.000000  -0.000001   0.000000   0.000030
              19         20         21         22         23         24
     1  C   -0.000549  -0.002996   0.273141  -2.933077   0.019238  -0.072828
     2  N   -0.000788   0.004277  -0.009646   0.009171  -0.000260   0.000138
     3  C    0.001890   0.012486   0.002129  -0.149062  -0.003165   0.003955
     4  O    0.000821  -0.003793   0.000139  -0.003978   0.000012  -0.000030
     5  N   -0.001183  -0.008529   0.000512   0.005071   0.000103   0.000009
     6  C    0.045121  -0.029631  -0.000017  -0.001538  -0.000011   0.000019
     7  C   -0.069299  -0.026077   0.000040  -0.000243  -0.000012   0.000003
     8  C    0.387120   0.405399  -0.000020   0.000892   0.000015  -0.000002
     9  C   -0.000309   0.001139  -0.155519   3.261432   0.259706  -0.027038
    10  C   -0.000055  -0.000193   0.181743  -4.380760  -0.098929   0.083521
    11  C    0.000022   0.000066  -0.020620  -2.557104  -0.536308   0.135477
    12  C   -0.000212   0.001460  -0.018720   1.023778   0.073640   0.066073
    13  C   -0.000811   0.002168   0.055647  -0.352315   0.050088   0.146802
    14  H   -0.000075  -0.000060  -0.000000   0.000007   0.000000  -0.000000
    15  H   -0.000156   0.002005  -0.000000  -0.000012  -0.000000   0.000000
    16  H   -0.002082   0.003200  -0.000000  -0.000003  -0.000000   0.000000
    17  H   -0.003168  -0.002650   0.000000   0.000001   0.000000  -0.000000
    18  H   -0.028563  -0.027246   0.000000   0.000129   0.000001  -0.000000
    19  H    0.499489  -0.023989  -0.000000  -0.000002  -0.000000   0.000000
    20  H   -0.023989   0.477945  -0.000000   0.000000   0.000000  -0.000000
    21  H   -0.000000  -0.000000   0.416828   0.008705   0.000990   0.000009
    22  C   -0.000002   0.000000   0.008705  10.227600  -0.024334   0.010015
    23  Cl  -0.000000   0.000000   0.000990  -0.024334  16.985733  -0.014158
    24  H    0.000000  -0.000000   0.000009   0.010015  -0.014158   0.401600
    25  H   -0.000000   0.000001  -0.000084   0.003110   0.000449  -0.000770
    26  F   -0.000000   0.000000   0.000622   0.092688   0.000490   0.000012
    27  F   -0.000000   0.000000  -0.000040  -0.018431  -0.005734   0.000019
    28  F   -0.000000   0.000000  -0.000017  -0.032333  -0.004693   0.000020
    29  H   -0.000002   0.000067   0.000003  -0.000133  -0.000000  -0.000000
    30  H   -0.000000  -0.000000   0.005025   0.004913   0.000002   0.000002
              25         26         27         28         29         30
     1  C    0.064704   0.195699   0.063899   0.063657  -0.000928  -0.073752
     2  N   -0.007691  -0.000212   0.000226   0.000136   0.033897   0.270308
     3  C    0.041047   0.000741   0.000091  -0.000097   0.044777  -0.026171
     4  O   -0.011512  -0.000000  -0.000000   0.000000   0.002070   0.002911
     5  N    0.000124  -0.000006   0.000002   0.000000   0.221095   0.011692
     6  C    0.001461   0.000002  -0.000000  -0.000001  -0.012367   0.002142
     7  C    0.000153   0.000002  -0.000000   0.000001  -0.006136   0.000504
     8  C   -0.000084  -0.000000   0.000000  -0.000000  -0.014866   0.000073
     9  C    0.028959  -0.254434  -0.105377  -0.096899  -0.005164  -0.013441
    10  C    0.000785   0.068998   0.389853   0.402773  -0.002981   0.073881
    11  C   -0.047398  -0.004496  -0.201536  -0.212979   0.000052  -0.000932
    12  C    0.046865   0.007834  -0.004510  -0.003884   0.002350   0.018770
    13  C    0.201361   0.008053  -0.002108   0.001172   0.007942  -0.011366
    14  H    0.000000  -0.000000   0.000000  -0.000000  -0.003461  -0.000010
    15  H   -0.000003   0.000000  -0.000000   0.000000   0.002567  -0.000000
    16  H   -0.000000   0.000000   0.000000   0.000000   0.002003  -0.000001
    17  H    0.000000   0.000000   0.000000   0.000000  -0.000263   0.000000
    18  H   -0.000007   0.000000   0.000000   0.000000  -0.000502   0.000030
    19  H   -0.000000  -0.000000  -0.000000  -0.000000  -0.000002  -0.000000
    20  H    0.000001   0.000000   0.000000   0.000000   0.000067  -0.000000
    21  H   -0.000084   0.000622  -0.000040  -0.000017   0.000003   0.005025
    22  C    0.003110   0.092688  -0.018431  -0.032333  -0.000133   0.004913
    23  Cl   0.000449   0.000490  -0.005734  -0.004693  -0.000000   0.000002
    24  H   -0.000770   0.000012   0.000019   0.000020  -0.000000   0.000002
    25  H    0.359774   0.000001   0.000000   0.000000  -0.000001  -0.000087
    26  F    0.000001   9.363900  -0.018442  -0.018301   0.000000  -0.000016
    27  F    0.000000  -0.018442   9.281835  -0.029499   0.000000   0.000000
    28  F    0.000000  -0.018301  -0.029499   9.284115   0.000000   0.000001
    29  H   -0.000001   0.000000   0.000000   0.000000   0.310995   0.001857
    30  H   -0.000087  -0.000016   0.000000   0.000001   0.001857   0.275756
 Mulliken charges:
               1
     1  C   -0.300343
     2  N   -0.805341
     3  C    0.734225
     4  O   -0.624044
     5  N   -0.648215
     6  C   -0.041586
     7  C   -0.397744
     8  C   -0.613675
     9  C   -0.437456
    10  C   -1.627307
    11  C    0.623506
    12  C   -0.820135
    13  C    0.854451
    14  H    0.197038
    15  H    0.243385
    16  H    0.187817
    17  H    0.197776
    18  H    0.189334
    19  H    0.196782
    20  H    0.214951
    21  H    0.259147
    22  C    1.805814
    23  Cl   0.297137
    24  H    0.267154
    25  H    0.318844
    26  F   -0.443136
    27  F   -0.350246
    28  F   -0.353170
    29  H    0.417130
    30  H    0.457909
 Sum of Mulliken charges =  -0.00000
 Mulliken charges with hydrogens summed into heavy atoms:
               1
     1  C   -0.300343
     2  N   -0.347432
     3  C    0.734225
     4  O   -0.624044
     5  N   -0.231085
     6  C    0.398837
     7  C   -0.012152
     8  C   -0.012608
     9  C   -0.178309
    10  C   -1.627307
    11  C    0.623506
    12  C   -0.552981
    13  C    1.173295
    22  C    1.805814
    23  Cl   0.297137
    26  F   -0.443136
    27  F   -0.350246
    28  F   -0.353170
 Electronic spatial extent (au):  <R**2>=           7648.0043
 Charge=             -0.0000 electrons
 Dipole moment (field-independent basis, Debye):
    X=             -5.1738    Y=             -2.7897    Z=              0.6667  Tot=              5.9157
 Quadrupole moment (field-independent basis, Debye-Ang):
   XX=           -115.3123   YY=           -106.8410   ZZ=           -117.4914
   XY=             13.1697   XZ=             -3.0810   YZ=              1.0331
 Traceless Quadrupole moment (field-independent basis, Debye-Ang):
   XX=             -2.0974   YY=              6.3739   ZZ=             -4.2765
   XY=             13.1697   XZ=             -3.0810   YZ=              1.0331
 Octapole moment (field-independent basis, Debye-Ang**2):
  XXX=            -72.8032  YYY=            -25.3256  ZZZ=              2.3380  XYY=              5.9334
  XXY=            -31.4293  XXZ=              2.1954  XZZ=             19.1790  YZZ=            -10.4655
  YYZ=              1.1544  XYZ=             -2.8507
 Hexadecapole moment (field-independent basis, Debye-Ang**3):
 XXXX=          -7845.5329 YYYY=          -1090.6495 ZZZZ=           -411.1160 XXXY=             58.5561
 XXXZ=             46.4420 YYYX=            -12.8082 YYYZ=             -9.6202 ZZZX=             20.9335
 ZZZY=             -5.2490 XXYY=          -1553.5257 XXZZ=          -1461.4908 YYZZ=           -271.4594
 XXYZ=             10.5829 YYXZ=              0.2139 ZZXY=            -25.2729
 N-N= 1.457880380236D+03 E-N=-6.140252146169D+03  KE= 1.362862137262D+03
 1\1\GINC-R3720\SP\RMP2-FC\Gen\C11H12Cl1F3N2O1\ROOT\13-Dec-2019\0\\# MP
 2/Gen 6D SCF=Tight INT(grid=ultrafine) maxdisk=3489660928\\29_c2.MP2_6
 -31pGd\\0,1\C,0,-5.9396901522,0.775869309,0.76553785\N,0,-4.6395265642
 ,0.2574574751,0.8246577716\C,0,-3.4504987326,0.9545662909,0.6409201008
 \O,0,-3.4026197702,2.1402401561,0.3911123898\N,0,-2.3369198371,0.16750
 96577,0.7915476587\C,0,-1.0109918701,0.6912852672,0.4918409895\C,0,-0.
 5443757832,0.3722031251,-0.9281825296\C,0,-1.4569758152,0.9572628141,-
 2.001780253\C,0,-6.97843822,-0.059789002,1.18409015\C,0,-8.3010412172,
 0.3557402292,1.1378825224\C,0,-8.6037084785,1.6333055363,0.6685693988\
 C,0,-7.5761500663,2.4669297494,0.2532406189\C,0,-6.2513072699,2.054144
 4847,0.2943749996\H,0,-0.3110569068,0.286216153,1.2264897775\H,0,-1.06
 31798623,1.7697174466,0.6426281545\H,0,-0.4693153598,-0.7149342099,-1.
 0496443044\H,0,0.4716499199,0.7626646867,-1.0437384598\H,0,-2.46592246
 08,0.5427770851,-1.9363644369\H,0,-1.0749734849,0.7399688441,-3.000874
 1757\H,0,-1.5446481667,2.040158569,-1.8943574145\H,0,-6.7560605303,-1.
 054722628,1.5528256361\C,0,-9.3833137492,-0.5866440949,1.5990994201\Cl
 ,0,-10.2399919835,2.2130046841,0.5895195449\H,0,-7.817664093,3.4584203
 392,-0.1096572444\H,0,-5.4652179938,2.7191458358,-0.0277777333\F,0,-8.
 8725441875,-1.7589559745,2.0095328751\F,0,-10.0797912453,-0.087486988,
 2.6267076156\F,0,-10.2548533064,-0.8658064367,0.6227026563\H,0,-2.4470
 616288,-0.835087188,0.7571851451\H,0,-4.5697911841,-0.6811312163,1.187
 6012761\\Version=ES64L-G09RevE.01\State=1-A\HF=-1365.1608761\MP2=-1367
 .7448403\RMSD=7.189e-09\PG=C01 [X(C11H12Cl1F3N2O1)]\\@


 Other things may change us, but we start and end with family.
 -- Anthony Brandt
 Job cpu time:       0 days  0 hours 12 minutes 48.1 seconds.
 File lengths (MBytes):  RWF=     75 Int=      0 D2E=      0 Chk=      9 Scr=      1
 Normal termination of Gaussian 09 at Fri Dec 13 11:00:10 2019.
pbs_rusage has been removed.
Please contact help@nci.org.au if you require this functionality.
