 Entering Gaussian System, Link 0=/apps/gaussian/g09e01/g09/g09
 AtFile(1): /home/507/hio507/Basis/GTMP2LARGE.gbs
 Initial command:
 /apps/gaussian/g09e01/g09/l1.exe "/jobfs/local/4126031.r-man2/Gau-1651.inp" -scrdir="/jobfs/local/4126031.r-man2/"
 Entering Link 1 = /apps/gaussian/g09e01/g09/l1.exe PID=      1652.
  
 Copyright (c) 1988,1990,1992,1993,1995,1998,2003,2009,2015,
            Gaussian, Inc.  All Rights Reserved.
  
 This is part of the Gaussian(R) 09 program.  It is based on
 the Gaussian(R) 03 system (copyright 2003, Gaussian, Inc.),
 the Gaussian(R) 98 system (copyright 1998, Gaussian, Inc.),
 the Gaussian(R) 94 system (copyright 1995, Gaussian, Inc.),
 the Gaussian 92(TM) system (copyright 1992, Gaussian, Inc.),
 the Gaussian 90(TM) system (copyright 1990, Gaussian, Inc.),
 the Gaussian 88(TM) system (copyright 1988, Gaussian, Inc.),
 the Gaussian 86(TM) system (copyright 1986, Carnegie Mellon
 University), and the Gaussian 82(TM) system (copyright 1983,
 Carnegie Mellon University). Gaussian is a federally registered
 trademark of Gaussian, Inc.
  
 This software contains proprietary and confidential information,
 including trade secrets, belonging to Gaussian, Inc.
  
 This software is provided under written license and may be
 used, copied, transmitted, or stored only in accord with that
 written license.
  
 The following legend is applicable only to US Government
 contracts under FAR:
  
                    RESTRICTED RIGHTS LEGEND
  
 Use, reproduction and disclosure by the US Government is
 subject to restrictions as set forth in subparagraphs (a)
 and (c) of the Commercial Computer Software - Restricted
 Rights clause in FAR 52.227-19.
  
 Gaussian, Inc.
 340 Quinnipiac St., Bldg. 40, Wallingford CT 06492
  
  
 ---------------------------------------------------------------
 Warning -- This program may not be used in any manner that
 competes with the business of Gaussian, Inc. or will provide
 assistance to any competitor of Gaussian, Inc.  The licensee
 of this program is prohibited from giving any competitor of
 Gaussian, Inc. access to this program.  By using this program,
 the user acknowledges that Gaussian, Inc. is engaged in the
 business of creating and licensing software in the field of
 computational chemistry and represents and warrants to the
 licensee that it is not a competitor of Gaussian, Inc. and that
 it will not use this program in any manner prohibited above.
 ---------------------------------------------------------------
  

 Cite this work as:
 Gaussian 09, Revision E.01,
 M. J. Frisch, G. W. Trucks, H. B. Schlegel, G. E. Scuseria, 
 M. A. Robb, J. R. Cheeseman, G. Scalmani, V. Barone, B. Mennucci, 
 G. A. Petersson, H. Nakatsuji, M. Caricato, X. Li, H. P. Hratchian, 
 A. F. Izmaylov, J. Bloino, G. Zheng, J. L. Sonnenberg, M. Hada, 
 M. Ehara, K. Toyota, R. Fukuda, J. Hasegawa, M. Ishida, T. Nakajima, 
 Y. Honda, O. Kitao, H. Nakai, T. Vreven, J. A. Montgomery, Jr., 
 J. E. Peralta, F. Ogliaro, M. Bearpark, J. J. Heyd, E. Brothers, 
 K. N. Kudin, V. N. Staroverov, T. Keith, R. Kobayashi, J. Normand, 
 K. Raghavachari, A. Rendell, J. C. Burant, S. S. Iyengar, J. Tomasi, 
 M. Cossi, N. Rega, J. M. Millam, M. Klene, J. E. Knox, J. B. Cross, 
 V. Bakken, C. Adamo, J. Jaramillo, R. Gomperts, R. E. Stratmann, 
 O. Yazyev, A. J. Austin, R. Cammi, C. Pomelli, J. W. Ochterski, 
 R. L. Martin, K. Morokuma, V. G. Zakrzewski, G. A. Voth, 
 P. Salvador, J. J. Dannenberg, S. Dapprich, A. D. Daniels, 
 O. Farkas, J. B. Foresman, J. V. Ortiz, J. Cioslowski, 
 and D. J. Fox, Gaussian, Inc., Wallingford CT, 2013.
 
 ******************************************
 Gaussian 09:  ES64L-G09RevE.01 30-Nov-2015
                13-Dec-2019 
 ******************************************
 %chk=29_c2.MP2_GTMP2LARGE.chk
 %mem=1114112000
 %nproc=4
 Will use up to    4 processors via shared memory.
 -------------------------------------------------------------
 # MP2/Gen 5D SCF=Tight INT(grid=ultrafine) maxdisk=3489660928
 -------------------------------------------------------------
 1/38=1/1;
 2/12=2,17=6,18=5,40=1/2;
 3/5=7,8=1,11=9,16=1,25=1,30=1,75=-5/1,2,3;
 4//1;
 5/5=2,32=2,38=5/2;
 8/10=1/1;
 9/16=-3/6;
 6/7=2,8=2,9=2,10=2/1;
 99/5=1,9=1/99;
 --------------------
 29_c2.MP2_GTMP2LARGE
 --------------------
 Symbolic Z-matrix:
 Charge =  0 Multiplicity = 1
 C                    -5.93969   0.77587   0.76554 
 N                    -4.63953   0.25746   0.82466 
 C                    -3.4505    0.95457   0.64092 
 O                    -3.40262   2.14024   0.39111 
 N                    -2.33692   0.16751   0.79155 
 C                    -1.01099   0.69129   0.49184 
 C                    -0.54438   0.3722   -0.92818 
 C                    -1.45698   0.95726  -2.00178 
 C                    -6.97844  -0.05979   1.18409 
 C                    -8.30104   0.35574   1.13788 
 C                    -8.60371   1.63331   0.66857 
 C                    -7.57615   2.46693   0.25324 
 C                    -6.25131   2.05414   0.29437 
 H                    -0.31106   0.28622   1.22649 
 H                    -1.06318   1.76972   0.64263 
 H                    -0.46932  -0.71493  -1.04964 
 H                     0.47165   0.76266  -1.04374 
 H                    -2.46592   0.54278  -1.93636 
 H                    -1.07497   0.73997  -3.00087 
 H                    -1.54465   2.04016  -1.89436 
 H                    -6.75606  -1.05472   1.55283 
 C                    -9.38331  -0.58664   1.5991 
 Cl                   -10.23999   2.213     0.58952 
 H                    -7.81766   3.45842  -0.10966 
 H                    -5.46522   2.71915  -0.02778 
 F                    -8.87254  -1.75896   2.00953 
 F                    -10.07979  -0.08749   2.62671 
 F                    -10.25485  -0.86581   0.6227 
 H                    -2.44706  -0.83509   0.75719 
 H                    -4.56979  -0.68113   1.1876 
 
                          Input orientation:                          
 ---------------------------------------------------------------------
 Center     Atomic      Atomic             Coordinates (Angstroms)
 Number     Number       Type             X           Y           Z
 ---------------------------------------------------------------------
      1          6           0       -5.939690    0.775869    0.765538
      2          7           0       -4.639527    0.257457    0.824658
      3          6           0       -3.450499    0.954566    0.640920
      4          8           0       -3.402620    2.140240    0.391112
      5          7           0       -2.336920    0.167510    0.791548
      6          6           0       -1.010992    0.691285    0.491841
      7          6           0       -0.544376    0.372203   -0.928183
      8          6           0       -1.456976    0.957263   -2.001780
      9          6           0       -6.978438   -0.059789    1.184090
     10          6           0       -8.301041    0.355740    1.137883
     11          6           0       -8.603708    1.633306    0.668569
     12          6           0       -7.576150    2.466930    0.253241
     13          6           0       -6.251307    2.054144    0.294375
     14          1           0       -0.311057    0.286216    1.226490
     15          1           0       -1.063180    1.769717    0.642628
     16          1           0       -0.469315   -0.714934   -1.049644
     17          1           0        0.471650    0.762665   -1.043738
     18          1           0       -2.465922    0.542777   -1.936364
     19          1           0       -1.074973    0.739969   -3.000874
     20          1           0       -1.544648    2.040159   -1.894357
     21          1           0       -6.756061   -1.054723    1.552826
     22          6           0       -9.383314   -0.586644    1.599099
     23         17           0      -10.239992    2.213005    0.589520
     24          1           0       -7.817664    3.458420   -0.109657
     25          1           0       -5.465218    2.719146   -0.027778
     26          9           0       -8.872544   -1.758956    2.009533
     27          9           0      -10.079791   -0.087487    2.626708
     28          9           0      -10.254853   -0.865806    0.622703
     29          1           0       -2.447062   -0.835087    0.757185
     30          1           0       -4.569791   -0.681131    1.187601
 ---------------------------------------------------------------------
                    Distance matrix (angstroms):
                    1          2          3          4          5
     1  C    0.000000
     2  N    1.400954   0.000000
     3  C    2.498707   1.390506   0.000000
     4  O    2.904897   2.294073   1.212649   0.000000
     5  N    3.653865   2.304601   1.371935   2.277659   0.000000
     6  C    4.937016   3.669501   2.458198   2.798124   1.456794
     7  C    5.669308   4.455993   3.353622   3.610547   2.492506
     8  C    5.271212   4.313596   3.310288   3.303165   3.033264
     9  C    1.397322   2.387539   3.710836   4.272636   4.663630
    10  C    2.427165   3.676202   4.912568   5.266558   5.977133
    11  C    2.800285   4.199055   5.197790   5.233096   6.437105
    12  C    2.408347   3.719145   4.411183   4.188567   5.746881
    13  C    1.397529   2.471259   3.028811   2.851630   4.373671
    14  H    5.668664   4.347177   3.262772   3.700408   2.075424
    15  H    4.978272   3.887200   2.522651   2.381917   2.052233
    16  H    5.953350   4.674314   3.812177   4.339594   2.767064
    17  H    6.661752   5.465370   4.272956   4.355052   3.407426
    18  H    4.407002   3.525508   2.789508   2.974296   2.756623
    19  H    6.152448   5.251052   4.353371   4.345604   4.037658
    20  H    5.290545   4.488802   3.352374   2.947108   3.368767
    21  H    2.153451   2.594564   3.974362   4.775241   4.647817
    22  C    3.796026   4.880142   6.204170   6.683100   7.132500
    23  Cl   4.537503   5.936722   6.905326   6.840637   8.165991
    24  H    3.389518   4.606481   5.089674   4.634758   6.456069
    25  H    2.151929   2.732823   2.760433   2.182868   4.119271
    26  F    4.071179   4.836144   6.215696   6.909637   6.921643
    27  F    4.620582   5.741328   6.998339   7.385477   7.961463
    28  F    4.619105   5.730131   7.043673   7.486191   7.986859
    29  H    3.846259   2.450532   2.055058   3.146375   1.009214
    30  H    2.043921   1.008732   2.056011   3.155443   2.421315
                    6          7          8          9         10
     6  C    0.000000
     7  C    1.528401   0.000000
     8  C    2.547115   1.525695   0.000000
     9  C    6.054233   6.785681   6.455286   0.000000
    10  C    7.326307   8.027126   7.553843   1.387112   0.000000
    11  C    7.652972   8.312210   7.659216   2.402880   1.394287
    12  C    6.805229   7.431655   6.693916   2.758269   2.401079
    13  C    5.418236   6.073931   5.427807   2.406040   2.792399
    14  H    1.092565   2.168973   3.490725   6.676488   7.990778
    15  H    1.090173   2.165560   2.794289   6.215348   7.391295
    16  H    2.155700   1.096474   2.162933   6.912848   8.201680
    17  H    2.135726   1.094587   2.162246   7.819429   9.049042
    18  H    2.834618   2.176664   1.092726   5.519341   6.598075
    19  H    3.493640   2.170907   1.091481   7.280414   8.336246
    20  H    2.792524   2.171662   1.091737   6.588831   7.594774
    21  H    6.097544   6.839338   6.690561   1.084117   2.132733
    22  C    8.541364   9.243017   8.841765   2.496645   1.507356
    23  Cl   9.354123   9.984836   9.243003   4.019557   2.740376
    24  H    7.372220   7.943264   7.091846   3.841338   3.378851
    25  H    4.921621   5.525718   4.802804   3.388353   3.871220
    26  F    8.373236   9.084624   8.857716   2.675100   2.357611
    27  F    9.349185  10.186889   9.842121   3.420571   2.361568
    28  F    9.375000   9.911170   9.360243   3.420485   2.361137
    29  H    2.112467   2.813935   3.435794   4.617002   5.985990
    30  H    3.877198   4.667979   4.748274   2.487501   3.872958
                   11         12         13         14         15
    11  C    0.000000
    12  C    1.386832   0.000000
    13  C    2.418867   1.388269   0.000000
    14  H    8.419857   7.647503   6.267454   0.000000
    15  H    7.541807   6.561746   5.207576   1.762770   0.000000
    16  H    8.639146   7.894863   6.550238   2.491613   3.064303
    17  H    9.276429   8.327890   6.975430   2.448177   2.492727
    18  H    6.756282   5.883125   4.646458   3.835742   3.181866
    19  H    8.422869   7.472413   6.275361   4.319730   3.786242
    20  H    7.520934   6.416644   5.190702   3.786522   2.596391
    21  H    3.379528   3.842330   3.391685   6.591106   6.419876
    22  C    2.530187   3.794929   4.299481   9.121763   8.700109
    23  Cl   1.737735   2.696964   4.002743  10.134199   9.187666
    24  H    2.134138   1.083087   2.142127   8.258167   7.002907
    25  H    3.393239   2.144439   1.078863   5.835898   4.552889
    26  F    3.657580   4.756397   4.934814   8.837135   8.677911
    27  F    2.995706   4.292623   4.968264   9.875649   9.417275
    28  F    2.995654   4.291746   4.966115  10.028499   9.562073
    29  H    6.633635   6.120852   4.799389   2.457658   2.951823
    30  H    4.679583   4.452136   3.332729   4.367389   4.312769
                   16         17         18         19         20
    16  H    0.000000
    17  H    1.751785   0.000000
    18  H    2.520823   3.078062   0.000000
    19  H    2.508159   2.494582   1.762613   0.000000
    20  H    3.075779   2.533969   1.758597   1.770725   0.000000
    21  H    6.812596   7.892075   5.756017   7.498790   6.972817
    22  C    9.300090  10.292013   7.850185   9.588961   8.974910
    23  Cl  10.330818  10.932076   8.343015   9.952805   9.044806
    24  H    8.502864   8.766546   6.362309   7.823873   6.674380
    25  H    6.147858   6.332961   4.168340   5.659566   4.394998
    26  F    9.003488  10.148645   7.868474   9.599527   9.130810
    27  F   10.308758  11.203921   8.898868  10.650873   9.890176
    28  F    9.928558  10.976649   8.318676   9.998951   9.520919
    29  H    2.681520   3.783519   3.025570   4.299586   4.013984
    30  H    4.671222   5.699083   3.960224   5.637074   5.104447
                   21         22         23         24         25
    21  H    0.000000
    22  C    2.669026   0.000000
    23  Cl   4.872759   3.096963   0.000000
    24  H    4.925374   4.661937   2.812042   0.000000
    25  H    4.290299   5.378332   4.841043   2.467232   0.000000
    26  F    2.276846   1.343003   4.434278   5.729289   5.984472
    27  F    3.624356   1.337990   3.077022   5.017805   6.018120
    28  F    3.625241   1.338231   3.079026   5.017487   6.017941
    29  H    4.387340   6.991576   8.369512   6.930295   4.728425
    30  H    2.247829   4.832004   6.394130   5.419174   3.720325
                   26         27         28         29         30
    26  F    0.000000
    27  F    2.152245   0.000000
    28  F    2.152160   2.156957   0.000000
    29  H    6.611258   7.893832   7.809010   0.000000
    30  H    4.511204   5.725691   5.716043   2.171392   0.000000
 Stoichiometry    C11H12ClF3N2O
 Framework group  C1[X(C11H12ClF3N2O)]
 Deg. of freedom    84
 Full point group                 C1      NOp   1
 Largest Abelian subgroup         C1      NOp   1
 Largest concise Abelian subgroup C1      NOp   1
                         Standard orientation:                         
 ---------------------------------------------------------------------
 Center     Atomic      Atomic             Coordinates (Angstroms)
 Number     Number       Type             X           Y           Z
 ---------------------------------------------------------------------
      1          6           0       -0.308088   -0.010725   -0.195639
      2          7           0       -1.551182   -0.654679   -0.247698
      3          6           0       -2.780233   -0.080096   -0.552322
      4          8           0       -2.922276    1.095881   -0.811976
      5          7           0       -3.812117   -0.984202   -0.548980
      6          6           0       -5.190707   -0.538572   -0.701145
      7          6           0       -5.907339   -0.331645    0.632884
      8          6           0       -5.241124    0.723449    1.510767
      9          6           0        0.824043   -0.820186   -0.070895
     10          6           0        2.095717   -0.272804    0.014512
     11          6           0        2.251788    1.112057   -0.028337
     12          6           0        1.131329    1.919671   -0.153384
     13          6           0       -0.143622    1.376515   -0.235678
     14          1           0       -5.720400   -1.273400   -1.312006
     15          1           0       -5.153677    0.395061   -1.262781
     16          1           0       -5.960841   -1.287212    1.167940
     17          1           0       -6.941448   -0.044445    0.417815
     18          1           0       -4.222594    0.432949    1.779574
     19          1           0       -5.798282    0.869560    2.437890
     20          1           0       -5.177771    1.682013    0.992085
     21          1           0        0.716195   -1.898434   -0.038325
     22          6           0        3.282953   -1.191525    0.150695
     23         17           0        3.818260    1.857773    0.070641
     24          1           0        1.259199    2.994665   -0.186777
     25          1           0       -1.002715    2.021006   -0.338329
     26          9           0        2.907330   -2.480769    0.171059
     27          9           0        4.142736   -1.055402   -0.865406
     28          9           0        3.961965   -0.969203    1.282233
     29          1           0       -3.670693   -1.875354   -0.096918
     30          1           0       -1.512688   -1.661904   -0.208234
 ---------------------------------------------------------------------
 Rotational constants (GHZ):      0.8638875      0.1464232      0.1331408
 General basis read from cards:  (5D, 7F)
 There are   846 symmetry adapted cartesian basis functions of A   symmetry.
 There are   752 symmetry adapted basis functions of A   symmetry.
   752 basis functions,  1110 primitive gaussians,   846 cartesian basis functions
    72 alpha electrons       72 beta electrons
       nuclear repulsion energy      1457.8803802363 Hartrees.
 NAtoms=   30 NActive=   30 NUniq=   30 SFac= 1.00D+00 NAtFMM=   60 NAOKFM=F Big=F
 Integral buffers will be    131072 words long.
 Raffenetti 1 integral format.
 Two-electron integral symmetry is turned on.
 One-electron integrals computed using PRISM.
 NBasis=   752 RedAO= T EigKep=  1.74D-06  NBF=   752
 NBsUse=   749 1.00D-06 EigRej=  8.49D-07 NBFU=   749
 ExpMin= 3.60D-02 ExpMax= 1.06D+05 ExpMxC= 3.62D+03 IAcc=3 IRadAn=         5 AccDes= 0.00D+00
 Harris functional with IExCor=  205 and IRadAn=       5 diagonalized for initial guess.
 HarFok:  IExCor=  205 AccDes= 0.00D+00 IRadAn=         5 IDoV= 1 UseB2=F ITyADJ=14
 ICtDFT=  3500011 ScaDFX=  1.000000  1.000000  1.000000  1.000000
 FoFCou: FMM=F IPFlag=           0 FMFlag=      100000 FMFlg1=           0
         NFxFlg=           0 DoJE=T BraDBF=F KetDBF=T FulRan=T
         wScrn=  0.000000 ICntrl=     500 IOpCl=  0 I1Cent=   200000004 NGrid=           0
         NMat0=    1 NMatS0=      1 NMatT0=    0 NMatD0=    1 NMtDS0=    0 NMtDT0=    0
 Petite list used in FoFCou.
 Requested convergence on RMS density matrix=1.00D-08 within 128 cycles.
 Requested convergence on MAX density matrix=1.00D-06.
 Requested convergence on             energy=1.00D-06.
 No special actions if energy rises.
 Initial convergence to 1.0D-05 achieved.  Increase integral accuracy.
 SCF Done:  E(RHF) =  -1365.46990225     A.U. after   16 cycles
            NFock= 16  Conv=0.37D-08     -V/T= 2.0007
 ExpMin= 3.60D-02 ExpMax= 1.06D+05 ExpMxC= 3.62D+03 IAcc=3 IRadAn=         5 AccDes= 0.00D+00
 HarFok:  IExCor=  205 AccDes= 0.00D+00 IRadAn=         5 IDoV=-2 UseB2=F ITyADJ=14
 ICtDFT= 12500011 ScaDFX=  1.000000  1.000000  1.000000  1.000000
 Range of M.O.s used for correlation:    23   749
 NBasis=   752 NAE=    72 NBE=    72 NFC=    22 NFV=     0
 NROrb=    727 NOA=    50 NOB=    50 NVA=   677 NVB=   677

 **** Warning!!: The largest alpha MO coefficient is  0.11626597D+03

 Fully direct method using O(OVN) memory.
 JobTyp=1 Pass  1:  I=   1 to  10 NPSUse=  4 ParTrn=T ParDer=T DoDerP=F.
 JobTyp=1 Pass  2:  I=  11 to  23 NPSUse=  4 ParTrn=T ParDer=T DoDerP=F.
 JobTyp=1 Pass  3:  I=  24 to  50 NPSUse=  4 ParTrn=T ParDer=T DoDerP=F.
 Spin components of T(2) and E(2):
     alpha-alpha T2 =       0.1309493138D+00 E2=     -0.4318076518D+00
     alpha-beta  T2 =       0.6834072915D+00 E2=     -0.2455512234D+01
     beta-beta   T2 =       0.1309493138D+00 E2=     -0.4318076518D+00
 ANorm=    0.1394742241D+01
 E2 =    -0.3319127537D+01 EUMP2 =    -0.13687890297856D+04

 **********************************************************************

            Population analysis using the SCF density.

 **********************************************************************

 Orbital symmetries:
       Occupied  (A) (A) (A) (A) (A) (A) (A) (A) (A) (A) (A) (A)
                 (A) (A) (A) (A) (A) (A) (A) (A) (A) (A) (A) (A)
                 (A) (A) (A) (A) (A) (A) (A) (A) (A) (A) (A) (A)
                 (A) (A) (A) (A) (A) (A) (A) (A) (A) (A) (A) (A)
                 (A) (A) (A) (A) (A) (A) (A) (A) (A) (A) (A) (A)
                 (A) (A) (A) (A) (A) (A) (A) (A) (A) (A) (A) (A)
       Virtual   (A) (A) (A) (A) (A) (A) (A) (A) (A) (A) (A) (A)
                 (A) (A) (A) (A) (A) (A) (A) (A) (A) (A) (A) (A)
                 (A) (A) (A) (A) (A) (A) (A) (A) (A) (A) (A) (A)
                 (A) (A) (A) (A) (A) (A) (A) (A) (A) (A) (A) (A)
                 (A) (A) (A) (A) (A) (A) (A) (A) (A) (A) (A) (A)
                 (A) (A) (A) (A) (A) (A) (A) (A) (A) (A) (A) (A)
                 (A) (A) (A) (A) (A) (A) (A) (A) (A) (A) (A) (A)
                 (A) (A) (A) (A) (A) (A) (A) (A) (A) (A) (A) (A)
                 (A) (A) (A) (A) (A) (A) (A) (A) (A) (A) (A) (A)
                 (A) (A) (A) (A) (A) (A) (A) (A) (A) (A) (A) (A)
                 (A) (A) (A) (A) (A) (A) (A) (A) (A) (A) (A) (A)
                 (A) (A) (A) (A) (A) (A) (A) (A) (A) (A) (A) (A)
                 (A) (A) (A) (A) (A) (A) (A) (A) (A) (A) (A) (A)
                 (A) (A) (A) (A) (A) (A) (A) (A) (A) (A) (A) (A)
                 (A) (A) (A) (A) (A) (A) (A) (A) (A) (A) (A) (A)
                 (A) (A) (A) (A) (A) (A) (A) (A) (A) (A) (A) (A)
                 (A) (A) (A) (A) (A) (A) (A) (A) (A) (A) (A) (A)
                 (A) (A) (A) (A) (A) (A) (A) (A) (A) (A) (A) (A)
                 (A) (A) (A) (A) (A) (A) (A) (A) (A) (A) (A) (A)
                 (A) (A) (A) (A) (A) (A) (A) (A) (A) (A) (A) (A)
                 (A) (A) (A) (A) (A) (A) (A) (A) (A) (A) (A) (A)
                 (A) (A) (A) (A) (A) (A) (A) (A) (A) (A) (A) (A)
                 (A) (A) (A) (A) (A) (A) (A) (A) (A) (A) (A) (A)
                 (A) (A) (A) (A) (A) (A) (A) (A) (A) (A) (A) (A)
                 (A) (A) (A) (A) (A) (A) (A) (A) (A) (A) (A) (A)
                 (A) (A) (A) (A) (A) (A) (A) (A) (A) (A) (A) (A)
                 (A) (A) (A) (A) (A) (A) (A) (A) (A) (A) (A) (A)
                 (A) (A) (A) (A) (A) (A) (A) (A) (A) (A) (A) (A)
                 (A) (A) (A) (A) (A) (A) (A) (A) (A) (A) (A) (A)
                 (A) (A) (A) (A) (A) (A) (A) (A) (A) (A) (A) (A)
                 (A) (A) (A) (A) (A) (A) (A) (A) (A) (A) (A) (A)
                 (A) (A) (A) (A) (A) (A) (A) (A) (A) (A) (A) (A)
                 (A) (A) (A) (A) (A) (A) (A) (A) (A) (A) (A) (A)
                 (A) (A) (A) (A) (A) (A) (A) (A) (A) (A) (A) (A)
                 (A) (A) (A) (A) (A) (A) (A) (A) (A) (A) (A) (A)
                 (A) (A) (A) (A) (A) (A) (A) (A) (A) (A) (A) (A)
                 (A) (A) (A) (A) (A) (A) (A) (A) (A) (A) (A) (A)
                 (A) (A) (A) (A) (A) (A) (A) (A) (A) (A) (A) (A)
                 (A) (A) (A) (A) (A) (A) (A) (A) (A) (A) (A) (A)
                 (A) (A) (A) (A) (A) (A) (A) (A) (A) (A) (A) (A)
                 (A) (A) (A) (A) (A) (A) (A) (A) (A) (A) (A) (A)
                 (A) (A) (A) (A) (A) (A) (A) (A) (A) (A) (A) (A)
                 (A) (A) (A) (A) (A) (A) (A) (A) (A) (A) (A) (A)
                 (A) (A) (A) (A) (A) (A) (A) (A) (A) (A) (A) (A)
                 (A) (A) (A) (A) (A) (A) (A) (A) (A) (A) (A) (A)
                 (A) (A) (A) (A) (A) (A) (A) (A) (A) (A) (A) (A)
                 (A) (A) (A) (A) (A) (A) (A) (A) (A) (A) (A) (A)
                 (A) (A) (A) (A) (A) (A) (A) (A) (A) (A) (A) (A)
                 (A) (A) (A) (A) (A) (A) (A) (A) (A) (A) (A) (A)
                 (A) (A) (A) (A) (A) (A) (A) (A) (A) (A) (A) (A)
                 (A) (A) (A) (A) (A) (A) (A) (A) (A) (A) (A) (A)
                 (A) (A) (A) (A) (A) (A) (A) (A) (A) (A) (A) (A)
                 (A) (A) (A) (A) (A) (A) (A) (A) (A) (A) (A) (A)
                 (A) (A) (A) (A) (A) (A) (A) (A) (A) (A) (A) (A)
                 (A) (A) (A) (A) (A) (A) (A) (A) (A) (A) (A) (A)
                 (A) (A) (A) (A) (A) (A) (A) (A) (A) (A) (A) (A)
                 (A) (A) (A) (A) (A)
 The electronic state is 1-A.
 Alpha  occ. eigenvalues -- -104.84861 -26.34205 -26.33583 -26.33576 -20.52991
 Alpha  occ. eigenvalues --  -15.61717 -15.59532 -11.51284 -11.39797 -11.31395
 Alpha  occ. eigenvalues --  -11.31166 -11.28271 -11.26934 -11.26636 -11.26083
 Alpha  occ. eigenvalues --  -11.25138 -11.23228 -11.21561 -10.57310  -8.04089
 Alpha  occ. eigenvalues --   -8.03916  -8.03909  -1.73265  -1.63622  -1.63265
 Alpha  occ. eigenvalues --   -1.41888  -1.28247  -1.24290  -1.20395  -1.12642
 Alpha  occ. eigenvalues --   -1.07877  -1.06089  -1.01598  -0.96792  -0.94285
 Alpha  occ. eigenvalues --   -0.88593  -0.86533  -0.84228  -0.82361  -0.82131
 Alpha  occ. eigenvalues --   -0.81283  -0.78897  -0.76817  -0.71773  -0.71190
 Alpha  occ. eigenvalues --   -0.70901  -0.68049  -0.67100  -0.66324  -0.66107
 Alpha  occ. eigenvalues --   -0.65851  -0.64791  -0.64450  -0.62432  -0.62199
 Alpha  occ. eigenvalues --   -0.61121  -0.59696  -0.59095  -0.56068  -0.55387
 Alpha  occ. eigenvalues --   -0.54768  -0.53715  -0.51840  -0.50436  -0.49751
 Alpha  occ. eigenvalues --   -0.49045  -0.46309  -0.45434  -0.44836  -0.41043
 Alpha  occ. eigenvalues --   -0.37345  -0.32152
 Alpha virt. eigenvalues --    0.02442   0.04223   0.04656   0.05094   0.05811
 Alpha virt. eigenvalues --    0.06627   0.07556   0.07760   0.08222   0.08451
 Alpha virt. eigenvalues --    0.08757   0.09102   0.09417   0.09908   0.11200
 Alpha virt. eigenvalues --    0.11677   0.11919   0.12394   0.13572   0.13980
 Alpha virt. eigenvalues --    0.14749   0.15153   0.15535   0.15680   0.16154
 Alpha virt. eigenvalues --    0.16404   0.16783   0.17412   0.17689   0.17991
 Alpha virt. eigenvalues --    0.18085   0.18531   0.18841   0.19366   0.19513
 Alpha virt. eigenvalues --    0.19926   0.20173   0.20542   0.20795   0.21474
 Alpha virt. eigenvalues --    0.21749   0.22563   0.22832   0.23097   0.23352
 Alpha virt. eigenvalues --    0.24116   0.24482   0.24627   0.25054   0.25308
 Alpha virt. eigenvalues --    0.25703   0.26382   0.26933   0.27574   0.28138
 Alpha virt. eigenvalues --    0.28841   0.29446   0.29843   0.30259   0.31108
 Alpha virt. eigenvalues --    0.31499   0.32229   0.32688   0.33054   0.33757
 Alpha virt. eigenvalues --    0.34272   0.34727   0.34955   0.35615   0.36381
 Alpha virt. eigenvalues --    0.36761   0.37200   0.37408   0.37883   0.38740
 Alpha virt. eigenvalues --    0.38978   0.39352   0.40370   0.40708   0.41018
 Alpha virt. eigenvalues --    0.41180   0.41324   0.42100   0.42630   0.42923
 Alpha virt. eigenvalues --    0.43415   0.44136   0.44787   0.45090   0.45458
 Alpha virt. eigenvalues --    0.45823   0.46316   0.46464   0.46915   0.47119
 Alpha virt. eigenvalues --    0.47966   0.48387   0.48783   0.49529   0.50149
 Alpha virt. eigenvalues --    0.50558   0.50759   0.51650   0.52714   0.53344
 Alpha virt. eigenvalues --    0.54959   0.56101   0.56258   0.56405   0.58131
 Alpha virt. eigenvalues --    0.58971   0.59609   0.60284   0.60352   0.60737
 Alpha virt. eigenvalues --    0.61120   0.61683   0.62905   0.64045   0.65181
 Alpha virt. eigenvalues --    0.65836   0.66129   0.67864   0.68746   0.69470
 Alpha virt. eigenvalues --    0.70094   0.70550   0.71256   0.71895   0.72681
 Alpha virt. eigenvalues --    0.72737   0.73412   0.73614   0.74321   0.75207
 Alpha virt. eigenvalues --    0.75396   0.76120   0.76220   0.77276   0.78365
 Alpha virt. eigenvalues --    0.79185   0.79206   0.80177   0.80930   0.81488
 Alpha virt. eigenvalues --    0.81760   0.82230   0.82537   0.83213   0.83556
 Alpha virt. eigenvalues --    0.84384   0.84784   0.85640   0.86013   0.86512
 Alpha virt. eigenvalues --    0.87089   0.87544   0.88469   0.88999   0.89810
 Alpha virt. eigenvalues --    0.90087   0.90384   0.90766   0.91850   0.92151
 Alpha virt. eigenvalues --    0.93510   0.94732   0.95237   0.95448   0.96398
 Alpha virt. eigenvalues --    0.97372   0.97598   0.98721   0.99822   1.00485
 Alpha virt. eigenvalues --    1.00985   1.01824   1.01902   1.02329   1.02646
 Alpha virt. eigenvalues --    1.03854   1.04686   1.05117   1.06959   1.07530
 Alpha virt. eigenvalues --    1.08351   1.08506   1.09100   1.10288   1.11354
 Alpha virt. eigenvalues --    1.14319   1.15474   1.16465   1.16748   1.17808
 Alpha virt. eigenvalues --    1.18636   1.19404   1.20696   1.21773   1.22234
 Alpha virt. eigenvalues --    1.23643   1.23855   1.24635   1.25179   1.27052
 Alpha virt. eigenvalues --    1.27736   1.28348   1.29522   1.30171   1.30702
 Alpha virt. eigenvalues --    1.31294   1.32334   1.33088   1.33950   1.34701
 Alpha virt. eigenvalues --    1.35023   1.36009   1.36652   1.37461   1.38452
 Alpha virt. eigenvalues --    1.38664   1.39521   1.39837   1.40582   1.40890
 Alpha virt. eigenvalues --    1.41734   1.42555   1.43054   1.43669   1.44882
 Alpha virt. eigenvalues --    1.46254   1.47204   1.48022   1.49723   1.50239
 Alpha virt. eigenvalues --    1.50755   1.51528   1.52434   1.53433   1.53689
 Alpha virt. eigenvalues --    1.54084   1.54720   1.56466   1.56628   1.56964
 Alpha virt. eigenvalues --    1.57745   1.58430   1.58982   1.59930   1.60797
 Alpha virt. eigenvalues --    1.61936   1.62574   1.63221   1.64625   1.64867
 Alpha virt. eigenvalues --    1.65672   1.66211   1.67203   1.67436   1.68507
 Alpha virt. eigenvalues --    1.69399   1.70023   1.70134   1.70502   1.71290
 Alpha virt. eigenvalues --    1.71929   1.72186   1.73140   1.74052   1.74921
 Alpha virt. eigenvalues --    1.75214   1.75735   1.77119   1.77710   1.78347
 Alpha virt. eigenvalues --    1.79288   1.80490   1.81137   1.82244   1.82677
 Alpha virt. eigenvalues --    1.83950   1.84425   1.86002   1.86320   1.87835
 Alpha virt. eigenvalues --    1.89706   1.90772   1.91496   1.91826   1.93751
 Alpha virt. eigenvalues --    1.95261   1.95865   1.96745   1.97297   1.97889
 Alpha virt. eigenvalues --    1.99468   2.01464   2.02476   2.04891   2.06076
 Alpha virt. eigenvalues --    2.09915   2.11814   2.14935   2.17418   2.19130
 Alpha virt. eigenvalues --    2.21478   2.23170   2.24401   2.25804   2.27644
 Alpha virt. eigenvalues --    2.28507   2.29512   2.29758   2.30762   2.35045
 Alpha virt. eigenvalues --    2.37500   2.40760   2.42257   2.45137   2.45609
 Alpha virt. eigenvalues --    2.46089   2.49424   2.51314   2.54243   2.57152
 Alpha virt. eigenvalues --    2.61068   2.63299   2.65048   2.68402   2.69882
 Alpha virt. eigenvalues --    2.73936   2.77424   2.80932   2.82455   2.83559
 Alpha virt. eigenvalues --    2.84724   2.86350   2.87349   2.87528   2.90257
 Alpha virt. eigenvalues --    2.92226   2.92743   2.94194   2.95424   2.96318
 Alpha virt. eigenvalues --    2.97671   2.98221   3.01871   3.02331   3.04736
 Alpha virt. eigenvalues --    3.06069   3.07707   3.08668   3.09174   3.12121
 Alpha virt. eigenvalues --    3.13162   3.14024   3.14371   3.14617   3.15575
 Alpha virt. eigenvalues --    3.15975   3.16954   3.17779   3.18459   3.19548
 Alpha virt. eigenvalues --    3.19794   3.20117   3.21618   3.22095   3.22614
 Alpha virt. eigenvalues --    3.23939   3.25350   3.26762   3.27711   3.28322
 Alpha virt. eigenvalues --    3.29869   3.30486   3.30935   3.33420   3.34225
 Alpha virt. eigenvalues --    3.36571   3.38287   3.39736   3.40123   3.41403
 Alpha virt. eigenvalues --    3.41976   3.42923   3.44259   3.45121   3.45721
 Alpha virt. eigenvalues --    3.46269   3.49037   3.49116   3.49681   3.51154
 Alpha virt. eigenvalues --    3.52626   3.52848   3.53527   3.54494   3.55316
 Alpha virt. eigenvalues --    3.55452   3.57096   3.58144   3.59578   3.59878
 Alpha virt. eigenvalues --    3.61425   3.62437   3.63403   3.65093   3.67728
 Alpha virt. eigenvalues --    3.68213   3.68415   3.69121   3.69826   3.70792
 Alpha virt. eigenvalues --    3.71569   3.72566   3.73128   3.74447   3.74852
 Alpha virt. eigenvalues --    3.75713   3.76030   3.76606   3.78383   3.78900
 Alpha virt. eigenvalues --    3.79722   3.80307   3.80577   3.81649   3.82722
 Alpha virt. eigenvalues --    3.83609   3.85047   3.85258   3.86349   3.87677
 Alpha virt. eigenvalues --    3.89308   3.89844   3.90398   3.91851   3.92531
 Alpha virt. eigenvalues --    3.93293   3.94372   3.95524   3.95831   3.97654
 Alpha virt. eigenvalues --    3.98282   3.99629   4.00180   4.02851   4.03779
 Alpha virt. eigenvalues --    4.04012   4.04472   4.05443   4.06286   4.07048
 Alpha virt. eigenvalues --    4.08807   4.09069   4.10306   4.12580   4.13679
 Alpha virt. eigenvalues --    4.14071   4.15447   4.15699   4.18272   4.20111
 Alpha virt. eigenvalues --    4.21531   4.23344   4.24046   4.25844   4.26274
 Alpha virt. eigenvalues --    4.26856   4.27597   4.30232   4.31244   4.31575
 Alpha virt. eigenvalues --    4.33581   4.35185   4.36192   4.36661   4.38426
 Alpha virt. eigenvalues --    4.38743   4.39705   4.40955   4.41968   4.42758
 Alpha virt. eigenvalues --    4.44961   4.45505   4.48113   4.48848   4.49895
 Alpha virt. eigenvalues --    4.51502   4.52788   4.53938   4.55068   4.56078
 Alpha virt. eigenvalues --    4.57004   4.59441   4.61862   4.62478   4.64849
 Alpha virt. eigenvalues --    4.65373   4.66278   4.67402   4.68518   4.70187
 Alpha virt. eigenvalues --    4.71677   4.72226   4.72698   4.74564   4.75059
 Alpha virt. eigenvalues --    4.76705   4.77723   4.78580   4.79036   4.80084
 Alpha virt. eigenvalues --    4.80974   4.81684   4.82750   4.83175   4.84048
 Alpha virt. eigenvalues --    4.84511   4.85800   4.87307   4.87660   4.88815
 Alpha virt. eigenvalues --    4.88947   4.91414   4.92723   4.93516   4.94265
 Alpha virt. eigenvalues --    4.95289   4.96822   4.97030   4.97960   4.99146
 Alpha virt. eigenvalues --    5.00758   5.02353   5.04625   5.06998   5.07397
 Alpha virt. eigenvalues --    5.08084   5.09521   5.12492   5.16191   5.17631
 Alpha virt. eigenvalues --    5.21777   5.22211   5.25845   5.29073   5.33854
 Alpha virt. eigenvalues --    5.34650   5.36028   5.42076   5.45656   5.47104
 Alpha virt. eigenvalues --    5.52165   5.53470   5.57506   5.59633   5.61759
 Alpha virt. eigenvalues --    5.63448   5.63726   5.68736   5.69850   5.71292
 Alpha virt. eigenvalues --    5.73217   5.74277   5.75108   5.76197   5.79992
 Alpha virt. eigenvalues --    5.81791   5.83519   5.83770   5.85831   5.89583
 Alpha virt. eigenvalues --    5.90635   5.93612   5.95124   6.01292   6.05356
 Alpha virt. eigenvalues --    6.06880   6.08658   6.10577   6.12940   6.16457
 Alpha virt. eigenvalues --    6.18240   6.18894   6.21235   6.22281   6.28403
 Alpha virt. eigenvalues --    6.32002   6.34064   6.41622   6.48680   6.49797
 Alpha virt. eigenvalues --    6.55415   6.63888   6.74633   6.82986   6.83529
 Alpha virt. eigenvalues --    6.94921   6.95382   6.96765   6.97055   7.00975
 Alpha virt. eigenvalues --    7.03454   7.05907   7.08137   7.10427   7.11066
 Alpha virt. eigenvalues --    7.11841   7.12011   7.12831   7.14168   7.15655
 Alpha virt. eigenvalues --    7.15759   7.16943   7.18280   7.23820   7.25812
 Alpha virt. eigenvalues --    7.29175   7.35863   7.37233   7.43592   7.47350
 Alpha virt. eigenvalues --    7.53273   7.56438   7.61262   7.62967   7.69438
 Alpha virt. eigenvalues --    7.78070   7.80318   7.82601   7.89510   7.90368
 Alpha virt. eigenvalues --    7.92134   8.15099   8.29246   8.35934   8.39718
 Alpha virt. eigenvalues --    9.69075   9.70945   9.72694   9.80913   9.85353
 Alpha virt. eigenvalues --    9.88083  10.02951  10.12073  10.15526  10.25656
 Alpha virt. eigenvalues --   10.40292  10.52045  10.58551  10.68156  10.74871
 Alpha virt. eigenvalues --   10.80050  21.81893  21.92798  22.19644  24.99773
 Alpha virt. eigenvalues --   25.40307  25.51112  25.60328  25.63223  25.65868
 Alpha virt. eigenvalues --   25.72092  25.85750  25.88954  26.09489  26.29452
 Alpha virt. eigenvalues --   37.27481  37.34493  51.94938  68.83060  68.86283
 Alpha virt. eigenvalues --   68.92787 220.11079
          Condensed to atoms (all electrons):
               1          2          3          4          5          6
     1  C   17.751744  -0.321506  -1.003407  -0.291226   0.051499  -0.296777
     2  N   -0.321506   6.889863   0.507234  -0.026184  -0.044648  -0.016124
     3  C   -1.003407   0.507234   6.314047   0.486035   0.299964  -0.153135
     4  O   -0.291226  -0.026184   0.486035   8.254040  -0.112148   0.021584
     5  N    0.051499  -0.044648   0.299964  -0.112148   6.631194   0.190548
     6  C   -0.296777  -0.016124  -0.153135   0.021584   0.190548   5.271795
     7  C    0.050755  -0.031715  -0.000106  -0.003639  -0.026797   0.174712
     8  C   -0.083000   0.026840  -0.014306  -0.027088  -0.051546  -0.010136
     9  C   -0.668020   0.055119   0.218468  -0.032987  -0.052182  -0.016690
    10  C   -4.850347  -0.084180  -0.591196  -0.009785   0.029831  -0.031313
    11  C    2.603118   0.055119   0.167047   0.007356  -0.016356   0.005068
    12  C   -3.473482   0.114416   0.067196   0.101825  -0.018506   0.029276
    13  C   -2.470755  -0.171891  -0.460071   0.177206  -0.003838   0.057611
    14  H   -0.002293   0.000136   0.021923   0.003852  -0.063745   0.455563
    15  H   -0.005331  -0.005294   0.008218  -0.017707  -0.046192   0.479144
    16  H    0.010942   0.001767   0.008029  -0.000475  -0.014592  -0.010137
    17  H   -0.003716  -0.000055  -0.007192   0.001981   0.010746  -0.030233
    18  H   -0.036505   0.004905  -0.019595  -0.007641   0.013721   0.005662
    19  H   -0.002921  -0.000361   0.005727   0.001592  -0.006705   0.010889
    20  H    0.008163  -0.002060  -0.002379  -0.004457   0.008765  -0.000274
    21  H   -0.310421  -0.023542   0.025572  -0.001344   0.000383   0.000221
    22  C   -1.004772  -0.063173  -0.147644   0.000876   0.004107  -0.001118
    23  Cl   0.044294   0.005474   0.009194  -0.000053   0.000194   0.000086
    24  H    0.096624  -0.000409   0.008163   0.000841   0.000359   0.000205
    25  H   -0.161179  -0.015186   0.031460  -0.017305   0.000415  -0.003899
    26  F    0.055157   0.002181  -0.001498  -0.000005   0.000029  -0.000011
    27  F    0.002096  -0.000009  -0.000429   0.000000   0.000003  -0.000000
    28  F   -0.007406   0.000015  -0.000837   0.000001   0.000002  -0.000001
    29  H   -0.033120   0.013180  -0.015897  -0.004760   0.369428  -0.038567
    30  H    0.178015   0.390383  -0.074012   0.007869   0.021603   0.010077
               7          8          9         10         11         12
     1  C    0.050755  -0.083000  -0.668020  -4.850347   2.603118  -3.473482
     2  N   -0.031715   0.026840   0.055119  -0.084180   0.055119   0.114416
     3  C   -0.000106  -0.014306   0.218468  -0.591196   0.167047   0.067196
     4  O   -0.003639  -0.027088  -0.032987  -0.009785   0.007356   0.101825
     5  N   -0.026797  -0.051546  -0.052182   0.029831  -0.016356  -0.018506
     6  C    0.174712  -0.010136  -0.016690  -0.031313   0.005068   0.029276
     7  C    5.108210   0.117286  -0.015857   0.001585  -0.003712  -0.005914
     8  C    0.117286   4.964155   0.011084   0.004077  -0.000237   0.014454
     9  C   -0.015857   0.011084   8.415592  -1.821297   0.815343  -0.148525
    10  C    0.001585   0.004077  -1.821297  22.088534  -1.741037  -1.366469
    11  C   -0.003712  -0.000237   0.815343  -1.741037  11.047644  -0.774589
    12  C   -0.005914   0.014454  -0.148525  -1.366469  -0.774589   9.165790
    13  C   -0.004515   0.036412  -1.167811   0.521005  -4.206841   1.469244
    14  H   -0.055105   0.000729  -0.001694  -0.001022   0.000151   0.000906
    15  H   -0.036782   0.001965   0.003492  -0.000181   0.000523  -0.001647
    16  H    0.414600  -0.041500  -0.002735  -0.000278   0.000033  -0.001000
    17  H    0.449230  -0.025277  -0.000433  -0.000134  -0.000018   0.000478
    18  H   -0.053096   0.435194   0.010161  -0.000495   0.003651   0.004374
    19  H   -0.024241   0.412526  -0.000059   0.000167  -0.000069   0.001094
    20  H   -0.022076   0.436496   0.000722   0.000252   0.000055  -0.002795
    21  H   -0.000223   0.000735   0.499940   0.286428  -0.006564  -0.016503
    22  C    0.000362   0.000384   0.530865  -5.721270  -2.052637   0.748351
    23  Cl  -0.000007  -0.000003  -0.096118   0.292009   0.080249  -0.319094
    24  H    0.000069  -0.000173   0.012477  -0.009818   0.035165   0.350112
    25  H    0.001379   0.002818  -0.041453   0.025107  -0.070584   0.065152
    26  F    0.000000   0.000001   0.158606  -0.349083   0.060884  -0.011782
    27  F    0.000000  -0.000000  -0.006613   0.008968   0.002670   0.018539
    28  F    0.000001   0.000001   0.003916  -0.002070   0.000314   0.020594
    29  H    0.015574  -0.000585   0.036184   0.015584  -0.001714  -0.003251
    30  H   -0.000699  -0.005569  -0.211549  -0.210308   0.005246   0.034832
              13         14         15         16         17         18
     1  C   -2.470755  -0.002293  -0.005331   0.010942  -0.003716  -0.036505
     2  N   -0.171891   0.000136  -0.005294   0.001767  -0.000055   0.004905
     3  C   -0.460071   0.021923   0.008218   0.008029  -0.007192  -0.019595
     4  O    0.177206   0.003852  -0.017707  -0.000475   0.001981  -0.007641
     5  N   -0.003838  -0.063745  -0.046192  -0.014592   0.010746   0.013721
     6  C    0.057611   0.455563   0.479144  -0.010137  -0.030233   0.005662
     7  C   -0.004515  -0.055105  -0.036782   0.414600   0.449230  -0.053096
     8  C    0.036412   0.000729   0.001965  -0.041500  -0.025277   0.435194
     9  C   -1.167811  -0.001694   0.003492  -0.002735  -0.000433   0.010161
    10  C    0.521005  -0.001022  -0.000181  -0.000278  -0.000134  -0.000495
    11  C   -4.206841   0.000151   0.000523   0.000033  -0.000018   0.003651
    12  C    1.469244   0.000906  -0.001647  -0.001000   0.000478   0.004374
    13  C   10.815224   0.003404  -0.010294  -0.002785   0.002155   0.002690
    14  H    0.003404   0.582641  -0.020413   0.001022  -0.004469   0.000195
    15  H   -0.010294  -0.020413   0.529586   0.000410  -0.006352  -0.001402
    16  H   -0.002785   0.001022   0.000410   0.639794  -0.034527  -0.005727
    17  H    0.002155  -0.004469  -0.006352  -0.034527   0.604703   0.004578
    18  H    0.002690   0.000195  -0.001402  -0.005727   0.004578   0.641658
    19  H    0.001699   0.000394  -0.000368  -0.004758  -0.008005  -0.039536
    20  H   -0.003614   0.000781  -0.002183   0.004101  -0.002696  -0.038447
    21  H   -0.016107  -0.000151   0.000242  -0.000236  -0.000007  -0.000060
    22  C    1.312941   0.000016  -0.000215  -0.000025   0.000008  -0.000459
    23  Cl  -0.219419  -0.000002   0.000018  -0.000002   0.000001   0.000083
    24  H   -0.113138  -0.000011   0.000074  -0.000008   0.000002   0.000059
    25  H    0.520214   0.000274  -0.000715  -0.000025   0.000075  -0.000641
    26  F   -0.015143  -0.000002   0.000002   0.000000  -0.000000  -0.000005
    27  F    0.005400  -0.000000  -0.000000   0.000000   0.000000  -0.000001
    28  F    0.010573  -0.000000  -0.000000   0.000000   0.000000  -0.000005
    29  H   -0.013653  -0.008183   0.004508  -0.007356  -0.000001   0.000619
    30  H    0.116372   0.001077  -0.000143   0.002985   0.000022  -0.001222
              19         20         21         22         23         24
     1  C   -0.002921   0.008163  -0.310421  -1.004772   0.044294   0.096624
     2  N   -0.000361  -0.002060  -0.023542  -0.063173   0.005474  -0.000409
     3  C    0.005727  -0.002379   0.025572  -0.147644   0.009194   0.008163
     4  O    0.001592  -0.004457  -0.001344   0.000876  -0.000053   0.000841
     5  N   -0.006705   0.008765   0.000383   0.004107   0.000194   0.000359
     6  C    0.010889  -0.000274   0.000221  -0.001118   0.000086   0.000205
     7  C   -0.024241  -0.022076  -0.000223   0.000362  -0.000007   0.000069
     8  C    0.412526   0.436496   0.000735   0.000384  -0.000003  -0.000173
     9  C   -0.000059   0.000722   0.499940   0.530865  -0.096118   0.012477
    10  C    0.000167   0.000252   0.286428  -5.721270   0.292009  -0.009818
    11  C   -0.000069   0.000055  -0.006564  -2.052637   0.080249   0.035165
    12  C    0.001094  -0.002795  -0.016503   0.748351  -0.319094   0.350112
    13  C    0.001699  -0.003614  -0.016107   1.312941  -0.219419  -0.113138
    14  H    0.000394   0.000781  -0.000151   0.000016  -0.000002  -0.000011
    15  H   -0.000368  -0.002183   0.000242  -0.000215   0.000018   0.000074
    16  H   -0.004758   0.004101  -0.000236  -0.000025  -0.000002  -0.000008
    17  H   -0.008005  -0.002696  -0.000007   0.000008   0.000001   0.000002
    18  H   -0.039536  -0.038447  -0.000060  -0.000459   0.000083   0.000059
    19  H    0.587058  -0.023458   0.000080   0.000029   0.000001  -0.000018
    20  H   -0.023458   0.584835  -0.000003  -0.000081  -0.000006   0.000092
    21  H    0.000080  -0.000003   0.533314  -0.079107   0.007693   0.000276
    22  C    0.000029  -0.000081  -0.079107  10.796362  -0.479396  -0.058908
    23  Cl   0.000001  -0.000006   0.007693  -0.479396  17.942336   0.017871
    24  H   -0.000018   0.000092   0.000276  -0.058908   0.017871   0.477565
    25  H    0.000405  -0.000900   0.001643   0.035018  -0.003062  -0.014303
    26  F    0.000000   0.000000  -0.031902   0.290942   0.001470   0.000176
    27  F   -0.000000   0.000000   0.000087   0.117184  -0.016730   0.000337
    28  F    0.000000  -0.000000   0.000368   0.123324  -0.017818   0.000205
    29  H    0.000100   0.000280   0.003902  -0.000351  -0.000010  -0.000022
    30  H   -0.000305  -0.000316  -0.018517   0.022753  -0.000766   0.000591
              25         26         27         28         29         30
     1  C   -0.161179   0.055157   0.002096  -0.007406  -0.033120   0.178015
     2  N   -0.015186   0.002181  -0.000009   0.000015   0.013180   0.390383
     3  C    0.031460  -0.001498  -0.000429  -0.000837  -0.015897  -0.074012
     4  O   -0.017305  -0.000005   0.000000   0.000001  -0.004760   0.007869
     5  N    0.000415   0.000029   0.000003   0.000002   0.369428   0.021603
     6  C   -0.003899  -0.000011  -0.000000  -0.000001  -0.038567   0.010077
     7  C    0.001379   0.000000   0.000000   0.000001   0.015574  -0.000699
     8  C    0.002818   0.000001  -0.000000   0.000001  -0.000585  -0.005569
     9  C   -0.041453   0.158606  -0.006613   0.003916   0.036184  -0.211549
    10  C    0.025107  -0.349083   0.008968  -0.002070   0.015584  -0.210308
    11  C   -0.070584   0.060884   0.002670   0.000314  -0.001714   0.005246
    12  C    0.065152  -0.011782   0.018539   0.020594  -0.003251   0.034832
    13  C    0.520214  -0.015143   0.005400   0.010573  -0.013653   0.116372
    14  H    0.000274  -0.000002  -0.000000  -0.000000  -0.008183   0.001077
    15  H   -0.000715   0.000002  -0.000000  -0.000000   0.004508  -0.000143
    16  H   -0.000025   0.000000   0.000000   0.000000  -0.007356   0.002985
    17  H    0.000075  -0.000000   0.000000   0.000000  -0.000001   0.000022
    18  H   -0.000641  -0.000005  -0.000001  -0.000005   0.000619  -0.001222
    19  H    0.000405   0.000000  -0.000000   0.000000   0.000100  -0.000305
    20  H   -0.000900   0.000000   0.000000  -0.000000   0.000280  -0.000316
    21  H    0.001643  -0.031902   0.000087   0.000368   0.003902  -0.018517
    22  C    0.035018   0.290942   0.117184   0.123324  -0.000351   0.022753
    23  Cl  -0.003062   0.001470  -0.016730  -0.017818  -0.000010  -0.000766
    24  H   -0.014303   0.000176   0.000337   0.000205  -0.000022   0.000591
    25  H    0.410504  -0.000129  -0.000015   0.000086  -0.000606   0.001004
    26  F   -0.000129   9.142039   0.009907   0.010070  -0.000095   0.006238
    27  F   -0.000015   0.009907   9.060377   0.040552  -0.000008   0.000333
    28  F    0.000086   0.010070   0.040552   9.062949  -0.000010   0.000363
    29  H   -0.000606  -0.000095  -0.000008  -0.000010   0.515711  -0.016931
    30  H    0.001004   0.006238   0.000333   0.000363  -0.016931   0.538122
 Mulliken charges:
               1
     1  C    0.173774
     2  N   -0.260297
     3  C    0.313429
     4  O   -0.508254
     5  N   -0.175535
     6  C   -0.104026
     7  C   -0.049279
     8  C   -0.205736
     9  C   -0.487948
    10  C   -0.483263
    11  C   -0.015282
    12  C   -0.063077
    13  C   -0.172275
    14  H    0.084026
    15  H    0.127036
    16  H    0.042481
    17  H    0.049137
    18  H    0.077286
    19  H    0.089042
    20  H    0.061201
    21  H    0.143804
    22  C    1.625633
    23  Cl  -0.248486
    24  H    0.195543
    25  H    0.234448
    26  F   -0.328047
    27  F   -0.242649
    28  F   -0.245187
    29  H    0.170050
    30  H    0.202451
 Sum of Mulliken charges =  -0.00000
 Mulliken charges with hydrogens summed into heavy atoms:
               1
     1  C    0.173774
     2  N   -0.057846
     3  C    0.313429
     4  O   -0.508254
     5  N   -0.005485
     6  C    0.107036
     7  C    0.042339
     8  C    0.021793
     9  C   -0.344144
    10  C   -0.483263
    11  C   -0.015282
    12  C    0.132466
    13  C    0.062172
    22  C    1.625633
    23  Cl  -0.248486
    26  F   -0.328047
    27  F   -0.242649
    28  F   -0.245187
 Electronic spatial extent (au):  <R**2>=           7646.1826
 Charge=             -0.0000 electrons
 Dipole moment (field-independent basis, Debye):
    X=             -5.1427    Y=             -2.7008    Z=              0.6459  Tot=              5.8446
 Quadrupole moment (field-independent basis, Debye-Ang):
   XX=           -114.2370   YY=           -106.4533   ZZ=           -116.5042
   XY=             13.0213   XZ=             -3.0382   YZ=              1.0784
 Traceless Quadrupole moment (field-independent basis, Debye-Ang):
   XX=             -1.8388   YY=              5.9449   ZZ=             -4.1060
   XY=             13.0213   XZ=             -3.0382   YZ=              1.0784
 Octapole moment (field-independent basis, Debye-Ang**2):
  XXX=            -72.7101  YYY=            -25.1773  ZZZ=              2.1814  XYY=              5.3461
  XXY=            -30.4047  XXZ=              2.4593  XZZ=             18.1540  YZZ=            -10.4925
  YYZ=              1.0122  XYZ=             -3.0032
 Hexadecapole moment (field-independent basis, Debye-Ang**3):
 XXXX=          -7788.5214 YYYY=          -1088.2131 ZZZZ=           -407.5532 XXXY=             60.7011
 XXXZ=             42.4684 YYYX=            -14.1870 YYYZ=             -9.4419 ZZZX=             20.5989
 ZZZY=             -4.7777 XXYY=          -1543.3590 XXZZ=          -1449.2373 YYZZ=           -269.2363
 XXYZ=             11.7087 YYXZ=              0.7577 ZZXY=            -24.3508
 N-N= 1.457880380236D+03 E-N=-6.143154555013D+03  KE= 1.364563717612D+03
 1\1\GINC-R3728\SP\RMP2-FC\Gen\C11H12Cl1F3N2O1\ROOT\13-Dec-2019\0\\# MP
 2/Gen 5D SCF=Tight INT(grid=ultrafine) maxdisk=3489660928\\29_c2.MP2_G
 TMP2LARGE\\0,1\C,0,-5.9396901522,0.775869309,0.76553785\N,0,-4.6395265
 642,0.2574574751,0.8246577716\C,0,-3.4504987326,0.9545662909,0.6409201
 008\O,0,-3.4026197702,2.1402401561,0.3911123898\N,0,-2.3369198371,0.16
 75096577,0.7915476587\C,0,-1.0109918701,0.6912852672,0.4918409895\C,0,
 -0.5443757832,0.3722031251,-0.9281825296\C,0,-1.4569758152,0.957262814
 1,-2.001780253\C,0,-6.97843822,-0.059789002,1.18409015\C,0,-8.30104121
 72,0.3557402292,1.1378825224\C,0,-8.6037084785,1.6333055363,0.66856939
 88\C,0,-7.5761500663,2.4669297494,0.2532406189\C,0,-6.2513072699,2.054
 1444847,0.2943749996\H,0,-0.3110569068,0.286216153,1.2264897775\H,0,-1
 .0631798623,1.7697174466,0.6426281545\H,0,-0.4693153598,-0.7149342099,
 -1.0496443044\H,0,0.4716499199,0.7626646867,-1.0437384598\H,0,-2.46592
 24608,0.5427770851,-1.9363644369\H,0,-1.0749734849,0.7399688441,-3.000
 8741757\H,0,-1.5446481667,2.040158569,-1.8943574145\H,0,-6.7560605303,
 -1.054722628,1.5528256361\C,0,-9.3833137492,-0.5866440949,1.5990994201
 \Cl,0,-10.2399919835,2.2130046841,0.5895195449\H,0,-7.817664093,3.4584
 203392,-0.1096572444\H,0,-5.4652179938,2.7191458358,-0.0277777333\F,0,
 -8.8725441875,-1.7589559745,2.0095328751\F,0,-10.0797912453,-0.0874869
 88,2.6267076156\F,0,-10.2548533064,-0.8658064367,0.6227026563\H,0,-2.4
 470616288,-0.835087188,0.7571851451\H,0,-4.5697911841,-0.6811312163,1.
 1876012761\\Version=ES64L-G09RevE.01\State=1-A\HF=-1365.4699022\MP2=-1
 368.7890298\RMSD=3.653e-09\PG=C01 [X(C11H12Cl1F3N2O1)]\\@


 TO BEHOLD HARMS OF OUR OWN HANDS DOING,
 WHERE NONE BESIDE US WROUGHT,
 CAUSES SHARP RUING...

                                         SOPHOCLES
 Job cpu time:       0 days  3 hours 32 minutes 59.8 seconds.
 File lengths (MBytes):  RWF=    303 Int=      0 D2E=      0 Chk=     33 Scr=      1
 Normal termination of Gaussian 09 at Fri Dec 13 11:49:41 2019.
pbs_rusage has been removed.
Please contact help@nci.org.au if you require this functionality.
