 Entering Gaussian System, Link 0=/apps/gaussian/g09e01/g09/g09
 AtFile(1): /home/507/hio507/Basis/GTMP2LARGE.gbs
 Initial command:
 /apps/gaussian/g09e01/g09/l1.exe "/jobfs/local/3890881.r-man2/Gau-9641.inp" -scrdir="/jobfs/local/3890881.r-man2/"
 Entering Link 1 = /apps/gaussian/g09e01/g09/l1.exe PID=      9642.
  
 Copyright (c) 1988,1990,1992,1993,1995,1998,2003,2009,2015,
            Gaussian, Inc.  All Rights Reserved.
  
 This is part of the Gaussian(R) 09 program.  It is based on
 the Gaussian(R) 03 system (copyright 2003, Gaussian, Inc.),
 the Gaussian(R) 98 system (copyright 1998, Gaussian, Inc.),
 the Gaussian(R) 94 system (copyright 1995, Gaussian, Inc.),
 the Gaussian 92(TM) system (copyright 1992, Gaussian, Inc.),
 the Gaussian 90(TM) system (copyright 1990, Gaussian, Inc.),
 the Gaussian 88(TM) system (copyright 1988, Gaussian, Inc.),
 the Gaussian 86(TM) system (copyright 1986, Carnegie Mellon
 University), and the Gaussian 82(TM) system (copyright 1983,
 Carnegie Mellon University). Gaussian is a federally registered
 trademark of Gaussian, Inc.
  
 This software contains proprietary and confidential information,
 including trade secrets, belonging to Gaussian, Inc.
  
 This software is provided under written license and may be
 used, copied, transmitted, or stored only in accord with that
 written license.
  
 The following legend is applicable only to US Government
 contracts under FAR:
  
                    RESTRICTED RIGHTS LEGEND
  
 Use, reproduction and disclosure by the US Government is
 subject to restrictions as set forth in subparagraphs (a)
 and (c) of the Commercial Computer Software - Restricted
 Rights clause in FAR 52.227-19.
  
 Gaussian, Inc.
 340 Quinnipiac St., Bldg. 40, Wallingford CT 06492
  
  
 ---------------------------------------------------------------
 Warning -- This program may not be used in any manner that
 competes with the business of Gaussian, Inc. or will provide
 assistance to any competitor of Gaussian, Inc.  The licensee
 of this program is prohibited from giving any competitor of
 Gaussian, Inc. access to this program.  By using this program,
 the user acknowledges that Gaussian, Inc. is engaged in the
 business of creating and licensing software in the field of
 computational chemistry and represents and warrants to the
 licensee that it is not a competitor of Gaussian, Inc. and that
 it will not use this program in any manner prohibited above.
 ---------------------------------------------------------------
  

 Cite this work as:
 Gaussian 09, Revision E.01,
 M. J. Frisch, G. W. Trucks, H. B. Schlegel, G. E. Scuseria, 
 M. A. Robb, J. R. Cheeseman, G. Scalmani, V. Barone, B. Mennucci, 
 G. A. Petersson, H. Nakatsuji, M. Caricato, X. Li, H. P. Hratchian, 
 A. F. Izmaylov, J. Bloino, G. Zheng, J. L. Sonnenberg, M. Hada, 
 M. Ehara, K. Toyota, R. Fukuda, J. Hasegawa, M. Ishida, T. Nakajima, 
 Y. Honda, O. Kitao, H. Nakai, T. Vreven, J. A. Montgomery, Jr., 
 J. E. Peralta, F. Ogliaro, M. Bearpark, J. J. Heyd, E. Brothers, 
 K. N. Kudin, V. N. Staroverov, T. Keith, R. Kobayashi, J. Normand, 
 K. Raghavachari, A. Rendell, J. C. Burant, S. S. Iyengar, J. Tomasi, 
 M. Cossi, N. Rega, J. M. Millam, M. Klene, J. E. Knox, J. B. Cross, 
 V. Bakken, C. Adamo, J. Jaramillo, R. Gomperts, R. E. Stratmann, 
 O. Yazyev, A. J. Austin, R. Cammi, C. Pomelli, J. W. Ochterski, 
 R. L. Martin, K. Morokuma, V. G. Zakrzewski, G. A. Voth, 
 P. Salvador, J. J. Dannenberg, S. Dapprich, A. D. Daniels, 
 O. Farkas, J. B. Foresman, J. V. Ortiz, J. Cioslowski, 
 and D. J. Fox, Gaussian, Inc., Wallingford CT, 2013.
 
 ******************************************
 Gaussian 09:  ES64L-G09RevE.01 30-Nov-2015
                30-Nov-2019 
 ******************************************
 %chk=CP22_c2.MP2_GTMP2LARGE.chk
 %mem=1114112000
 %nproc=4
 Will use up to    4 processors via shared memory.
 -------------------------------------------------------------
 # MP2/Gen 5D SCF=Tight INT(grid=ultrafine) maxdisk=3489660928
 -------------------------------------------------------------
 1/38=1/1;
 2/12=2,17=6,18=5,40=1/2;
 3/5=7,8=1,11=9,16=1,25=1,30=1,75=-5/1,2,3;
 4//1;
 5/5=2,32=2,38=5/2;
 8/10=1/1;
 9/16=-3/6;
 6/7=2,8=2,9=2,10=2/1;
 99/5=1,9=1/99;
 ----------------------
 CP22_c2.MP2_GTMP2LARGE
 ----------------------
 Symbolic Z-matrix:
 Charge =  0 Multiplicity = 1
 C                    -5.92864   1.41995   0.35153 
 N                    -4.70123   0.75319   0.36026 
 C                    -3.45371   1.28281   0.03512 
 O                    -3.28446   2.42232  -0.33867 
 N                    -2.4358    0.37321   0.1525 
 C                    -1.06213   0.81712  -0.05123 
 C                    -0.12067  -0.37697  -0.10489 
 C                     1.32401   0.06004  -0.32576 
 C                    -7.07247   0.64528   0.57584 
 C                    -8.30818   1.26115   0.5974 
 C                    -8.4775    2.62247   0.40675 
 C                    -7.32536   3.364     0.18702 
 C                    -6.0586    2.79857   0.15496 
 H                    -4.75523  -0.24796   0.47261 
 H                    -2.56674  -0.4195    0.76413 
 H                    -0.76001   1.51174   0.74132 
 H                    -1.03116   1.37307  -0.98957 
 H                    -0.4414   -1.04772  -0.90741 
 H                    -0.19261  -0.94425   0.83073 
 H                     1.42825   0.60793  -1.26514 
 H                     1.99517  -0.799    -0.36545 
 H                     1.66669   0.71366   0.47988 
 H                    -6.98942  -0.4233    0.73166 
 Cl                   -7.4759    5.07814  -0.05853 
 H                    -5.18992   3.41193  -0.02721 
 S                    -9.77348   0.23932   0.88945 
 H                    -9.45083   3.09198   0.42539 
 F                    -9.06311  -0.55088   2.10885 
 F                    -10.38888   1.30058   1.93668 
 F                    -9.26435  -0.90444  -0.13398 
 F                    -10.58963   0.94742  -0.30782 
 F                    -11.07131  -0.66948   1.149 
 
                          Input orientation:                          
 ---------------------------------------------------------------------
 Center     Atomic      Atomic             Coordinates (Angstroms)
 Number     Number       Type             X           Y           Z
 ---------------------------------------------------------------------
      1          6           0       -5.928642    1.419947    0.351533
      2          7           0       -4.701233    0.753189    0.360256
      3          6           0       -3.453707    1.282813    0.035122
      4          8           0       -3.284458    2.422322   -0.338674
      5          7           0       -2.435802    0.373209    0.152505
      6          6           0       -1.062125    0.817120   -0.051234
      7          6           0       -0.120667   -0.376967   -0.104890
      8          6           0        1.324013    0.060042   -0.325761
      9          6           0       -7.072470    0.645280    0.575840
     10          6           0       -8.308178    1.261151    0.597399
     11          6           0       -8.477502    2.622466    0.406751
     12          6           0       -7.325362    3.363995    0.187018
     13          6           0       -6.058604    2.798574    0.154960
     14          1           0       -4.755234   -0.247961    0.472609
     15          1           0       -2.566744   -0.419501    0.764134
     16          1           0       -0.760006    1.511743    0.741317
     17          1           0       -1.031164    1.373070   -0.989566
     18          1           0       -0.441397   -1.047724   -0.907407
     19          1           0       -0.192611   -0.944249    0.830725
     20          1           0        1.428252    0.607931   -1.265142
     21          1           0        1.995165   -0.799000   -0.365447
     22          1           0        1.666687    0.713659    0.479883
     23          1           0       -6.989421   -0.423301    0.731657
     24         17           0       -7.475904    5.078137   -0.058530
     25          1           0       -5.189923    3.411926   -0.027214
     26         16           0       -9.773481    0.239316    0.889451
     27          1           0       -9.450830    3.091979    0.425387
     28          9           0       -9.063112   -0.550879    2.108846
     29          9           0      -10.388882    1.300584    1.936680
     30          9           0       -9.264345   -0.904436   -0.133982
     31          9           0      -10.589628    0.947420   -0.307821
     32          9           0      -11.071305   -0.669475    1.149004
 ---------------------------------------------------------------------
                    Distance matrix (angstroms):
                    1          2          3          4          5
     1  C    0.000000
     2  N    1.396844   0.000000
     3  C    2.498845   1.393749   0.000000
     4  O    2.910816   2.298208   1.211135   0.000000
     5  N    3.651739   2.306452   1.370141   2.271637   0.000000
     6  C    4.920224   3.662856   2.438030   2.756458   1.457928
     7  C    6.096704   4.740802   3.726074   4.230869   2.447216
     8  C    7.410066   6.103660   4.944897   5.178662   3.803028
     9  C    1.399559   2.383461   3.714064   4.282902   4.663896
    10  C    2.397469   3.650248   4.886974   5.240449   5.955767
    11  C    2.818828   4.213854   5.212610   5.250088   6.451816
    12  C    2.399420   3.705721   4.398193   4.182344   5.731822
    13  C    1.398623   2.463372   3.016187   2.842731   4.359712
    14  H    2.042905   1.008881   2.056365   3.154643   2.422412
    15  H    3.854369   2.468676   2.053298   3.131654   1.009765
    16  H    5.184126   4.031611   2.794127   2.892818   2.109800
    17  H    5.077996   3.959253   2.631890   2.569422   2.068105
    18  H    6.146885   4.795463   3.923490   4.521911   2.668355
    19  H    6.222628   4.840487   4.028341   4.718137   2.688417
    20  H    7.576074   6.342997   5.097025   5.134199   4.122588
    21  H    8.259813   6.912141   5.846760   6.184825   4.612572
    22  H    7.629177   6.369167   5.171091   5.301265   4.129589
    23  H    2.160395   2.599590   3.987137   4.792695   4.658893
    24  Cl   3.993060   5.155517   5.530943   4.969915   6.898080
    25  H    2.158040   2.730904   2.747992   2.169590   4.105031
    26  S    4.057836   5.125603   6.462067   6.955661   7.375808
    27  H    3.899610   5.294606   6.276215   6.249509   7.528399
    28  F    4.098439   4.876899   6.255252   6.944286   6.971545
    29  F    4.735048   5.927403   7.191168   7.543764   8.203340
    30  F    4.094557   4.879957   6.210972   6.846040   6.952945
    31  F    4.731049   5.929355   7.152026   7.452637   8.186971
    32  F    5.607908   6.574490   7.942290   8.509253   8.755119
                    6          7          8          9         10
     6  C    0.000000
     7  C    1.521534   0.000000
     8  C    2.518370   1.525405   0.000000
     9  C    6.045411   7.059458   8.465006   0.000000
    10  C    7.288564   8.379258   9.750589   1.380846   0.000000
    11  C    7.645707   8.893541  10.157376   2.431454   1.384989
    12  C    6.765461   8.123277   9.273119   2.757998   2.357179
    13  C    5.378984   6.738744   7.888833   2.416970   2.760436
    14  H    3.879157   4.672190   6.139178   2.485583   3.862176
    15  H    2.111382   2.596210   4.068885   4.633657   5.984685
    16  H    1.096319   2.166113   2.754855   6.373802   7.553702
    17  H    1.091104   2.162009   2.776965   6.283117   7.448887
    18  H    2.143823   1.093991   2.163823   7.002672   8.335562
    19  H    2.153213   1.096522   2.155506   7.065694   8.413124
    20  H    2.778365   2.171487   1.092468   8.697867   9.934476
    21  H    3.472405   2.173188   1.090859   9.230058  10.551311
    22  H    2.781943   2.173951   1.092567   8.739952   9.990570
    23  H    6.106095   6.919663   8.394340   1.083070   2.143484
    24  Cl   7.700187   9.157501  10.133668   4.496155   3.961352
    25  H    4.875686   6.329226   7.331823   3.400293   3.839204
    26  S    8.781028   9.723442  11.165270   2.749294   1.810126
    27  H    8.704741   9.968286  11.218472   3.415490   2.164988
    28  F    8.399592   9.214021  10.686108   2.782724   2.477468
    29  F    9.548504  10.602756  11.993728   3.644159   2.474785
    30  F    8.381349   9.158925  10.633923   2.776649   2.477689
    31  F    9.531848  10.554351  11.946657   3.639031   2.474443
    32  F   10.189908  11.026073  12.504041   4.248268   3.415620
                   11         12         13         14         15
    11  C    0.000000
    12  C    1.387652   0.000000
    13  C    2.438336   1.387589   0.000000
    14  H    4.700954   4.442223   3.328821   0.000000
    15  H    6.657203   6.106746   4.787503   2.214475   0.000000
    16  H    7.804191   6.844121   5.484058   4.373855   2.644717
    17  H    7.678454   6.705599   5.349501   4.316758   2.940541
    18  H    8.931758   8.249243   6.890257   4.599267   2.775935
    19  H    9.029985   8.357719   6.991084   4.629319   2.432345
    20  H   10.245855   9.291416   7.928973   6.479801   4.597126
    21  H   11.044432  10.222914   8.836094   6.824505   4.714975
    22  H   10.322474   9.379072   8.008281   6.493523   4.391673
    23  H    3.405384   3.840977   3.402863   2.255979   4.422798
    24  Cl   2.692584   1.738171   2.692717   6.004288   7.416243
    25  H    3.408776   2.146693   1.078886   3.719349   4.710322
    26  S    2.755352   4.031169   4.570514   5.059051   7.237872
    27  H    1.080813   2.156021   3.415614   5.762470   7.735366
    28  F    3.648312   4.694618   4.905464   4.618099   6.635382
    29  F    2.782342   4.087071   4.916281   6.023246   8.094406
    30  F    3.653840   4.699171   4.906379   4.596846   6.774927
    31  F    2.788811   4.091471   4.916413   6.006510   8.208790
    32  F    4.256246   5.588058   6.175975   6.366156   8.516935
                   16         17         18         19         20
    16  H    0.000000
    17  H    1.757474   0.000000
    18  H    3.061156   2.492954   0.000000
    19  H    2.522266   3.063756   1.758894   0.000000
    20  H    3.103421   2.590387   2.522847   3.070687   0.000000
    21  H    3.762370   3.777046   2.508470   2.497657   1.763603
    22  H    2.567903   3.142054   3.077509   2.515698   1.764410
    23  H    6.523044   6.456810   6.778868   6.817465   8.712512
    24  Cl   7.646059   7.491931   9.366486   9.492432  10.036067
    25  H    4.881138   4.730575   6.573562   6.684718   7.293497
    26  S    9.104051   9.013557   9.590253   9.653877  11.413017
    27  H    8.838970   8.709048  10.004168  10.107920  11.286399
    28  F    8.664070   8.821220   9.147601   8.970737  11.081306
    29  F    9.705089   9.804850  10.609234  10.498874  12.262793
    30  F    8.884135   8.585123   8.857942   9.122971  10.858103
    31  F    9.901547   9.592195  10.359860  10.628860  12.060728
    32  F   10.547361  10.466610  10.833598  10.886818  12.794483
                   21         22         23         24         25
    21  H    0.000000
    22  H    1.763694   0.000000
    23  H    9.059116   8.734087   0.000000
    24  Cl  11.150609  10.145222   5.579147   0.000000
    25  H    8.334974   7.385858   4.303841   2.828948   0.000000
    26  S   11.880821  11.457321   2.866173   5.439828   5.649313
    27  H   12.115112  11.369194   4.302270   2.842417   4.296806
    28  F   11.334425  10.926169   2.492613   6.237193   5.938701
    29  F   12.769991  12.157446   3.997524   5.170708   5.945067
    30  F   11.262383  11.067182   2.481149   6.244630   5.936607
    31  F   12.705524  12.283826   3.990098   5.178827   5.942167
    32  F   13.154581  12.830325   4.110543   6.886226   7.254790
                   26         27         28         29         30
    26  S    0.000000
    27  H    2.908118   0.000000
    28  F    1.617392   4.031721   0.000000
    29  F    1.612978   2.524490   2.283686   0.000000
    30  F    1.617035   4.039679   2.279424   3.227125   0.000000
    31  F    1.612752   2.536452   3.227295   2.280967   2.283849
    32  F    1.605496   4.159099   2.228947   2.228736   2.228534
                   31         32
    31  F    0.000000
    32  F    2.229059   0.000000
 Stoichiometry    C10H12ClF5N2OS
 Framework group  C1[X(C10H12ClF5N2OS)]
 Deg. of freedom    90
 Full point group                 C1      NOp   1
 Largest Abelian subgroup         C1      NOp   1
 Largest concise Abelian subgroup C1      NOp   1
                         Standard orientation:                         
 ---------------------------------------------------------------------
 Center     Atomic      Atomic             Coordinates (Angstroms)
 Number     Number       Type             X           Y           Z
 ---------------------------------------------------------------------
      1          6           0       -0.570594    0.213779   -0.044558
      2          7           0       -1.803515   -0.441491   -0.085774
      3          6           0       -3.067346    0.136140    0.021984
      4          8           0       -3.251877    1.319417    0.202685
      5          7           0       -4.085454   -0.776384   -0.067694
      6          6           0       -5.463676   -0.301089   -0.080100
      7          6           0       -6.429522   -1.469688    0.048680
      8          6           0       -7.880280   -0.998352    0.046541
      9          6           0        0.574573   -0.590638   -0.028006
     10          6           0        1.817901    0.009758   -0.008141
     11          6           0        1.993744    1.383533   -0.004110
     12          6           0        0.840124    2.154537   -0.021143
     13          6           0       -0.434160    1.605727   -0.041477
     14          1           0       -1.758265   -1.448416   -0.042248
     15          1           0       -3.906978   -1.652111   -0.537667
     16          1           0       -5.666651    0.268672   -0.994479
     17          1           0       -5.581896    0.388898    0.756828
     18          1           0       -6.208609   -2.014443    0.971315
     19          1           0       -6.271070   -2.170651   -0.779515
     20          1           0       -8.071629   -0.315862    0.877852
     21          1           0       -8.569126   -1.838922    0.140911
     22          1           0       -8.123029   -0.470917   -0.878980
     23          1           0        0.486768   -1.670136   -0.031895
     24         17           0        0.998658    3.885460   -0.017379
     25          1           0       -1.304593    2.243158   -0.046128
     26         16           0        3.284817   -1.050560    0.012799
     27          1           0        2.972933    1.840785    0.012218
     28          9           0        2.690790   -2.010934   -1.145117
     29          9           0        4.028289   -0.160273   -1.108065
     30          9           0        2.647833   -2.026417    1.133850
     31          9           0        3.984679   -0.175115    1.172436
     32          9           0        4.584087   -1.993524    0.031033
 ---------------------------------------------------------------------
 Rotational constants (GHZ):      0.4515166      0.1149604      0.0952516
 General basis read from cards:  (5D, 7F)
 There are   948 symmetry adapted cartesian basis functions of A   symmetry.
 There are   840 symmetry adapted basis functions of A   symmetry.
   840 basis functions,  1244 primitive gaussians,   948 cartesian basis functions
    86 alpha electrons       86 beta electrons
       nuclear repulsion energy      2000.4627100746 Hartrees.
 NAtoms=   32 NActive=   32 NUniq=   32 SFac= 1.00D+00 NAtFMM=   60 NAOKFM=F Big=F
 Integral buffers will be    131072 words long.
 Raffenetti 1 integral format.
 Two-electron integral symmetry is turned on.
 One-electron integrals computed using PRISM.
 NBasis=   840 RedAO= T EigKep=  1.72D-06  NBF=   840
 NBsUse=   837 1.00D-06 EigRej=  6.39D-07 NBFU=   837
 ExpMin= 3.60D-02 ExpMax= 1.06D+05 ExpMxC= 3.62D+03 IAcc=3 IRadAn=         5 AccDes= 0.00D+00
 Harris functional with IExCor=  205 and IRadAn=       5 diagonalized for initial guess.
 HarFok:  IExCor=  205 AccDes= 0.00D+00 IRadAn=         5 IDoV= 1 UseB2=F ITyADJ=14
 ICtDFT=  3500011 ScaDFX=  1.000000  1.000000  1.000000  1.000000
 FoFCou: FMM=F IPFlag=           0 FMFlag=      100000 FMFlg1=           0
         NFxFlg=           0 DoJE=T BraDBF=F KetDBF=T FulRan=T
         wScrn=  0.000000 ICntrl=     500 IOpCl=  0 I1Cent=   200000004 NGrid=           0
         NMat0=    1 NMatS0=      1 NMatT0=    0 NMatD0=    1 NMtDS0=    0 NMtDT0=    0
 Petite list used in FoFCou.
 Requested convergence on RMS density matrix=1.00D-08 within 128 cycles.
 Requested convergence on MAX density matrix=1.00D-06.
 Requested convergence on             energy=1.00D-06.
 No special actions if energy rises.
 Initial convergence to 1.0D-05 achieved.  Increase integral accuracy.
 SCF Done:  E(RHF) =  -1923.94979494     A.U. after   15 cycles
            NFock= 15  Conv=0.58D-08     -V/T= 2.0008
 ExpMin= 3.60D-02 ExpMax= 1.06D+05 ExpMxC= 3.62D+03 IAcc=3 IRadAn=         5 AccDes= 0.00D+00
 HarFok:  IExCor=  205 AccDes= 0.00D+00 IRadAn=         5 IDoV=-2 UseB2=F ITyADJ=14
 ICtDFT= 12500011 ScaDFX=  1.000000  1.000000  1.000000  1.000000
 Range of M.O.s used for correlation:    29   837
 NBasis=   840 NAE=    86 NBE=    86 NFC=    28 NFV=     0
 NROrb=    809 NOA=    58 NOB=    58 NVA=   751 NVB=   751

 **** Warning!!: The largest alpha MO coefficient is  0.99181151D+02

 Fully direct method using O(OVN) memory.
 JobTyp=1 Pass  1:  I=   1 to   6 NPSUse=  4 ParTrn=T ParDer=T DoDerP=F.
 JobTyp=1 Pass  2:  I=   7 to  13 NPSUse=  4 ParTrn=T ParDer=T DoDerP=F.
 JobTyp=1 Pass  3:  I=  14 to  22 NPSUse=  4 ParTrn=T ParDer=T DoDerP=F.
 JobTyp=1 Pass  4:  I=  23 to  34 NPSUse=  4 ParTrn=T ParDer=T DoDerP=F.
 JobTyp=1 Pass  5:  I=  35 to  58 NPSUse=  4 ParTrn=T ParDer=T DoDerP=F.
 Spin components of T(2) and E(2):
     alpha-alpha T2 =       0.1496570285D+00 E2=     -0.5132304731D+00
     alpha-beta  T2 =       0.7754623919D+00 E2=     -0.2884702522D+01
     beta-beta   T2 =       0.1496570285D+00 E2=     -0.5132304731D+00
 ANorm=    0.1440408431D+01
 E2 =    -0.3911163468D+01 EUMP2 =    -0.19278609584036D+04

 **********************************************************************

            Population analysis using the SCF density.

 **********************************************************************

 Orbital symmetries:
       Occupied  (A) (A) (A) (A) (A) (A) (A) (A) (A) (A) (A) (A)
                 (A) (A) (A) (A) (A) (A) (A) (A) (A) (A) (A) (A)
                 (A) (A) (A) (A) (A) (A) (A) (A) (A) (A) (A) (A)
                 (A) (A) (A) (A) (A) (A) (A) (A) (A) (A) (A) (A)
                 (A) (A) (A) (A) (A) (A) (A) (A) (A) (A) (A) (A)
                 (A) (A) (A) (A) (A) (A) (A) (A) (A) (A) (A) (A)
                 (A) (A) (A) (A) (A) (A) (A) (A) (A) (A) (A) (A)
                 (A) (A)
       Virtual   (A) (A) (A) (A) (A) (A) (A) (A) (A) (A) (A) (A)
                 (A) (A) (A) (A) (A) (A) (A) (A) (A) (A) (A) (A)
                 (A) (A) (A) (A) (A) (A) (A) (A) (A) (A) (A) (A)
                 (A) (A) (A) (A) (A) (A) (A) (A) (A) (A) (A) (A)
                 (A) (A) (A) (A) (A) (A) (A) (A) (A) (A) (A) (A)
                 (A) (A) (A) (A) (A) (A) (A) (A) (A) (A) (A) (A)
                 (A) (A) (A) (A) (A) (A) (A) (A) (A) (A) (A) (A)
                 (A) (A) (A) (A) (A) (A) (A) (A) (A) (A) (A) (A)
                 (A) (A) (A) (A) (A) (A) (A) (A) (A) (A) (A) (A)
                 (A) (A) (A) (A) (A) (A) (A) (A) (A) (A) (A) (A)
                 (A) (A) (A) (A) (A) (A) (A) (A) (A) (A) (A) (A)
                 (A) (A) (A) (A) (A) (A) (A) (A) (A) (A) (A) (A)
                 (A) (A) (A) (A) (A) (A) (A) (A) (A) (A) (A) (A)
                 (A) (A) (A) (A) (A) (A) (A) (A) (A) (A) (A) (A)
                 (A) (A) (A) (A) (A) (A) (A) (A) (A) (A) (A) (A)
                 (A) (A) (A) (A) (A) (A) (A) (A) (A) (A) (A) (A)
                 (A) (A) (A) (A) (A) (A) (A) (A) (A) (A) (A) (A)
                 (A) (A) (A) (A) (A) (A) (A) (A) (A) (A) (A) (A)
                 (A) (A) (A) (A) (A) (A) (A) (A) (A) (A) (A) (A)
                 (A) (A) (A) (A) (A) (A) (A) (A) (A) (A) (A) (A)
                 (A) (A) (A) (A) (A) (A) (A) (A) (A) (A) (A) (A)
                 (A) (A) (A) (A) (A) (A) (A) (A) (A) (A) (A) (A)
                 (A) (A) (A) (A) (A) (A) (A) (A) (A) (A) (A) (A)
                 (A) (A) (A) (A) (A) (A) (A) (A) (A) (A) (A) (A)
                 (A) (A) (A) (A) (A) (A) (A) (A) (A) (A) (A) (A)
                 (A) (A) (A) (A) (A) (A) (A) (A) (A) (A) (A) (A)
                 (A) (A) (A) (A) (A) (A) (A) (A) (A) (A) (A) (A)
                 (A) (A) (A) (A) (A) (A) (A) (A) (A) (A) (A) (A)
                 (A) (A) (A) (A) (A) (A) (A) (A) (A) (A) (A) (A)
                 (A) (A) (A) (A) (A) (A) (A) (A) (A) (A) (A) (A)
                 (A) (A) (A) (A) (A) (A) (A) (A) (A) (A) (A) (A)
                 (A) (A) (A) (A) (A) (A) (A) (A) (A) (A) (A) (A)
                 (A) (A) (A) (A) (A) (A) (A) (A) (A) (A) (A) (A)
                 (A) (A) (A) (A) (A) (A) (A) (A) (A) (A) (A) (A)
                 (A) (A) (A) (A) (A) (A) (A) (A) (A) (A) (A) (A)
                 (A) (A) (A) (A) (A) (A) (A) (A) (A) (A) (A) (A)
                 (A) (A) (A) (A) (A) (A) (A) (A) (A) (A) (A) (A)
                 (A) (A) (A) (A) (A) (A) (A) (A) (A) (A) (A) (A)
                 (A) (A) (A) (A) (A) (A) (A) (A) (A) (A) (A) (A)
                 (A) (A) (A) (A) (A) (A) (A) (A) (A) (A) (A) (A)
                 (A) (A) (A) (A) (A) (A) (A) (A) (A) (A) (A) (A)
                 (A) (A) (A) (A) (A) (A) (A) (A) (A) (A) (A) (A)
                 (A) (A) (A) (A) (A) (A) (A) (A) (A) (A) (A) (A)
                 (A) (A) (A) (A) (A) (A) (A) (A) (A) (A) (A) (A)
                 (A) (A) (A) (A) (A) (A) (A) (A) (A) (A) (A) (A)
                 (A) (A) (A) (A) (A) (A) (A) (A) (A) (A) (A) (A)
                 (A) (A) (A) (A) (A) (A) (A) (A) (A) (A) (A) (A)
                 (A) (A) (A) (A) (A) (A) (A) (A) (A) (A) (A) (A)
                 (A) (A) (A) (A) (A) (A) (A) (A) (A) (A) (A) (A)
                 (A) (A) (A) (A) (A) (A) (A) (A) (A) (A) (A) (A)
                 (A) (A) (A) (A) (A) (A) (A) (A) (A) (A) (A) (A)
                 (A) (A) (A) (A) (A) (A) (A) (A) (A) (A) (A) (A)
                 (A) (A) (A) (A) (A) (A) (A) (A) (A) (A) (A) (A)
                 (A) (A) (A) (A) (A) (A) (A) (A) (A) (A) (A) (A)
                 (A) (A) (A) (A) (A) (A) (A) (A) (A) (A) (A) (A)
                 (A) (A) (A) (A) (A) (A) (A) (A) (A) (A) (A) (A)
                 (A) (A) (A) (A) (A) (A) (A) (A) (A) (A) (A) (A)
                 (A) (A) (A) (A) (A) (A) (A) (A) (A) (A) (A) (A)
                 (A) (A) (A) (A) (A) (A) (A) (A) (A) (A) (A) (A)
                 (A) (A) (A) (A) (A) (A) (A) (A) (A) (A) (A) (A)
                 (A) (A) (A) (A) (A) (A) (A) (A) (A) (A) (A) (A)
                 (A) (A) (A) (A) (A) (A) (A) (A) (A) (A) (A) (A)
                 (A) (A) (A) (A) (A) (A) (A)
 The electronic state is 1-A.
 Alpha  occ. eigenvalues -- -104.85366 -92.37163 -26.34753 -26.34749 -26.34744
 Alpha  occ. eigenvalues --  -26.34740 -26.34657 -20.53623 -15.62304 -15.59854
 Alpha  occ. eigenvalues --  -11.40138 -11.32429 -11.32369 -11.30861 -11.27450
 Alpha  occ. eigenvalues --  -11.27225 -11.27062 -11.26009 -11.24112 -11.22807
 Alpha  occ. eigenvalues --  -10.57806  -9.31453  -8.04584  -8.04410  -8.04407
 Alpha  occ. eigenvalues --   -7.00338  -7.00326  -7.00005  -1.75330  -1.65729
 Alpha  occ. eigenvalues --   -1.65635  -1.62736  -1.61377  -1.42443  -1.28920
 Alpha  occ. eigenvalues --   -1.24832  -1.20931  -1.15135  -1.09592  -1.07129
 Alpha  occ. eigenvalues --   -1.03597  -1.02233  -0.95032  -0.90286  -0.87637
 Alpha  occ. eigenvalues --   -0.86359  -0.86018  -0.83749  -0.83258  -0.79783
 Alpha  occ. eigenvalues --   -0.78242  -0.77491  -0.76204  -0.75135  -0.72411
 Alpha  occ. eigenvalues --   -0.71280  -0.69616  -0.69215  -0.68696  -0.68434
 Alpha  occ. eigenvalues --   -0.67985  -0.67503  -0.67345  -0.65679  -0.65195
 Alpha  occ. eigenvalues --   -0.64844  -0.64757  -0.63377  -0.62786  -0.61569
 Alpha  occ. eigenvalues --   -0.59769  -0.58664  -0.57223  -0.56559  -0.55699
 Alpha  occ. eigenvalues --   -0.53543  -0.52454  -0.51125  -0.50166  -0.49594
 Alpha  occ. eigenvalues --   -0.46661  -0.46498  -0.46290  -0.42002  -0.36857
 Alpha  occ. eigenvalues --   -0.33689
 Alpha virt. eigenvalues --    0.02436   0.03871   0.05076   0.05197   0.05984
 Alpha virt. eigenvalues --    0.06013   0.07180   0.07450   0.07869   0.08259
 Alpha virt. eigenvalues --    0.08367   0.09287   0.09515   0.10057   0.10406
 Alpha virt. eigenvalues --    0.10637   0.11300   0.12096   0.12480   0.12919
 Alpha virt. eigenvalues --    0.13495   0.13770   0.14219   0.14422   0.15522
 Alpha virt. eigenvalues --    0.15876   0.16348   0.17304   0.17320   0.17621
 Alpha virt. eigenvalues --    0.18013   0.18233   0.18358   0.18711   0.19132
 Alpha virt. eigenvalues --    0.19335   0.19692   0.19888   0.20146   0.20440
 Alpha virt. eigenvalues --    0.21070   0.21362   0.21763   0.22379   0.22724
 Alpha virt. eigenvalues --    0.23172   0.23513   0.23791   0.24405   0.24910
 Alpha virt. eigenvalues --    0.25297   0.25782   0.26192   0.26820   0.27310
 Alpha virt. eigenvalues --    0.27733   0.28273   0.28516   0.29460   0.29767
 Alpha virt. eigenvalues --    0.29930   0.30476   0.30956   0.31307   0.31742
 Alpha virt. eigenvalues --    0.32337   0.32746   0.33716   0.34038   0.34568
 Alpha virt. eigenvalues --    0.35121   0.35629   0.35813   0.36431   0.36618
 Alpha virt. eigenvalues --    0.36954   0.37113   0.37526   0.38385   0.38902
 Alpha virt. eigenvalues --    0.39383   0.39414   0.39713   0.40246   0.40609
 Alpha virt. eigenvalues --    0.40802   0.41454   0.41704   0.41830   0.42413
 Alpha virt. eigenvalues --    0.42954   0.43371   0.43760   0.43914   0.44739
 Alpha virt. eigenvalues --    0.45087   0.45363   0.45986   0.46447   0.46753
 Alpha virt. eigenvalues --    0.47065   0.47597   0.47943   0.48711   0.49044
 Alpha virt. eigenvalues --    0.49397   0.49654   0.50982   0.51789   0.51950
 Alpha virt. eigenvalues --    0.53109   0.53608   0.53729   0.54439   0.55064
 Alpha virt. eigenvalues --    0.55707   0.55941   0.56882   0.57452   0.57752
 Alpha virt. eigenvalues --    0.58379   0.59210   0.60106   0.61003   0.61308
 Alpha virt. eigenvalues --    0.61886   0.62391   0.62694   0.63111   0.64439
 Alpha virt. eigenvalues --    0.64901   0.66095   0.66628   0.67907   0.68383
 Alpha virt. eigenvalues --    0.68724   0.69231   0.69835   0.70101   0.70418
 Alpha virt. eigenvalues --    0.70527   0.72726   0.73320   0.73857   0.74255
 Alpha virt. eigenvalues --    0.75446   0.75957   0.76116   0.76277   0.76784
 Alpha virt. eigenvalues --    0.77649   0.78094   0.78684   0.79259   0.79986
 Alpha virt. eigenvalues --    0.80414   0.81089   0.81302   0.82305   0.82988
 Alpha virt. eigenvalues --    0.83069   0.83505   0.83896   0.84726   0.85430
 Alpha virt. eigenvalues --    0.85859   0.86472   0.86894   0.87894   0.88328
 Alpha virt. eigenvalues --    0.89130   0.89822   0.89896   0.90461   0.91082
 Alpha virt. eigenvalues --    0.92218   0.92577   0.93388   0.94236   0.94412
 Alpha virt. eigenvalues --    0.95561   0.96302   0.96485   0.97143   0.97755
 Alpha virt. eigenvalues --    0.98972   0.99142   1.00048   1.00632   1.02132
 Alpha virt. eigenvalues --    1.02437   1.03466   1.03947   1.04302   1.04877
 Alpha virt. eigenvalues --    1.05782   1.05846   1.07115   1.07805   1.09444
 Alpha virt. eigenvalues --    1.10028   1.11096   1.11256   1.12456   1.12631
 Alpha virt. eigenvalues --    1.14409   1.14840   1.15739   1.16504   1.17490
 Alpha virt. eigenvalues --    1.18362   1.19516   1.19848   1.20268   1.21482
 Alpha virt. eigenvalues --    1.22465   1.22546   1.24796   1.25205   1.26187
 Alpha virt. eigenvalues --    1.26624   1.27340   1.27820   1.29163   1.30094
 Alpha virt. eigenvalues --    1.30362   1.30821   1.31255   1.32106   1.32579
 Alpha virt. eigenvalues --    1.33269   1.34445   1.34555   1.34943   1.35670
 Alpha virt. eigenvalues --    1.36603   1.36831   1.37850   1.38706   1.39015
 Alpha virt. eigenvalues --    1.39703   1.39921   1.40948   1.41320   1.41353
 Alpha virt. eigenvalues --    1.41710   1.42028   1.43159   1.44322   1.45491
 Alpha virt. eigenvalues --    1.46145   1.46533   1.47029   1.47708   1.48213
 Alpha virt. eigenvalues --    1.49152   1.51059   1.51126   1.52363   1.53390
 Alpha virt. eigenvalues --    1.53787   1.54129   1.54603   1.56477   1.56740
 Alpha virt. eigenvalues --    1.57448   1.58199   1.59180   1.59466   1.60557
 Alpha virt. eigenvalues --    1.61564   1.61905   1.63049   1.63618   1.64447
 Alpha virt. eigenvalues --    1.65105   1.65607   1.66908   1.67140   1.67348
 Alpha virt. eigenvalues --    1.68260   1.68520   1.69783   1.70698   1.70943
 Alpha virt. eigenvalues --    1.72425   1.72874   1.73505   1.73919   1.74410
 Alpha virt. eigenvalues --    1.75211   1.75829   1.76409   1.76828   1.77322
 Alpha virt. eigenvalues --    1.77531   1.78659   1.79280   1.79711   1.80280
 Alpha virt. eigenvalues --    1.80934   1.81840   1.82880   1.83141   1.83303
 Alpha virt. eigenvalues --    1.84507   1.85380   1.85963   1.87168   1.87710
 Alpha virt. eigenvalues --    1.89204   1.89941   1.91238   1.92440   1.93281
 Alpha virt. eigenvalues --    1.94107   1.95360   1.96085   1.96399   1.98998
 Alpha virt. eigenvalues --    2.00084   2.00860   2.01696   2.02168   2.05157
 Alpha virt. eigenvalues --    2.06145   2.09372   2.11151   2.14696   2.16024
 Alpha virt. eigenvalues --    2.19386   2.22053   2.24177   2.25840   2.27200
 Alpha virt. eigenvalues --    2.27537   2.28896   2.29230   2.29477   2.30061
 Alpha virt. eigenvalues --    2.31918   2.33463   2.34935   2.35108   2.38979
 Alpha virt. eigenvalues --    2.41172   2.42415   2.43087   2.44042   2.45388
 Alpha virt. eigenvalues --    2.47042   2.49153   2.50407   2.53994   2.58005
 Alpha virt. eigenvalues --    2.61070   2.65982   2.67516   2.67883   2.68477
 Alpha virt. eigenvalues --    2.69672   2.71306   2.73229   2.75639   2.76742
 Alpha virt. eigenvalues --    2.80125   2.80956   2.83138   2.84249   2.88050
 Alpha virt. eigenvalues --    2.90174   2.90875   2.93163   2.95405   2.96515
 Alpha virt. eigenvalues --    2.97507   3.00194   3.01198   3.01936   3.02926
 Alpha virt. eigenvalues --    3.05218   3.05496   3.05772   3.06975   3.07588
 Alpha virt. eigenvalues --    3.08862   3.10141   3.10223   3.11022   3.12274
 Alpha virt. eigenvalues --    3.13201   3.14311   3.15774   3.16123   3.16682
 Alpha virt. eigenvalues --    3.16905   3.17965   3.19047   3.20013   3.20889
 Alpha virt. eigenvalues --    3.21381   3.21934   3.23087   3.24672   3.24998
 Alpha virt. eigenvalues --    3.25764   3.26368   3.26624   3.26764   3.29297
 Alpha virt. eigenvalues --    3.30021   3.32262   3.33203   3.33999   3.35509
 Alpha virt. eigenvalues --    3.35695   3.36581   3.36857   3.37985   3.39191
 Alpha virt. eigenvalues --    3.40180   3.41098   3.41827   3.42300   3.44344
 Alpha virt. eigenvalues --    3.44814   3.45764   3.46353   3.46747   3.47249
 Alpha virt. eigenvalues --    3.48935   3.49559   3.50290   3.51087   3.52673
 Alpha virt. eigenvalues --    3.53035   3.54065   3.55685   3.56553   3.58177
 Alpha virt. eigenvalues --    3.58779   3.59039   3.60294   3.61190   3.62244
 Alpha virt. eigenvalues --    3.63747   3.65202   3.66586   3.67100   3.67733
 Alpha virt. eigenvalues --    3.68249   3.69229   3.69857   3.70605   3.70997
 Alpha virt. eigenvalues --    3.71366   3.71732   3.72865   3.73767   3.74424
 Alpha virt. eigenvalues --    3.74937   3.75947   3.77189   3.77902   3.79490
 Alpha virt. eigenvalues --    3.80147   3.82559   3.82694   3.83794   3.84541
 Alpha virt. eigenvalues --    3.85232   3.85569   3.87740   3.88227   3.89510
 Alpha virt. eigenvalues --    3.90633   3.91241   3.91664   3.92036   3.92841
 Alpha virt. eigenvalues --    3.94348   3.96319   3.97035   3.97915   3.99084
 Alpha virt. eigenvalues --    4.00282   4.02059   4.02370   4.05085   4.05521
 Alpha virt. eigenvalues --    4.06263   4.07476   4.07842   4.08717   4.09409
 Alpha virt. eigenvalues --    4.11378   4.12830   4.13978   4.14789   4.17326
 Alpha virt. eigenvalues --    4.17847   4.21980   4.23929   4.24769   4.25662
 Alpha virt. eigenvalues --    4.26401   4.26711   4.29947   4.31582   4.31829
 Alpha virt. eigenvalues --    4.32104   4.33348   4.34264   4.35287   4.36865
 Alpha virt. eigenvalues --    4.37705   4.39425   4.40111   4.40981   4.41899
 Alpha virt. eigenvalues --    4.42367   4.43981   4.47839   4.49405   4.51006
 Alpha virt. eigenvalues --    4.53001   4.55193   4.55328   4.55970   4.56961
 Alpha virt. eigenvalues --    4.58477   4.60153   4.60351   4.61848   4.62167
 Alpha virt. eigenvalues --    4.63259   4.63737   4.64005   4.66094   4.67582
 Alpha virt. eigenvalues --    4.68726   4.70053   4.71816   4.72770   4.73214
 Alpha virt. eigenvalues --    4.74837   4.76466   4.77481   4.78532   4.78875
 Alpha virt. eigenvalues --    4.79312   4.80681   4.81325   4.83621   4.84094
 Alpha virt. eigenvalues --    4.85481   4.85637   4.86077   4.86849   4.88350
 Alpha virt. eigenvalues --    4.89349   4.90796   4.91965   4.93048   4.94879
 Alpha virt. eigenvalues --    4.95044   4.95126   4.96070   4.98588   4.99444
 Alpha virt. eigenvalues --    5.00635   5.01073   5.01358   5.02848   5.04671
 Alpha virt. eigenvalues --    5.05667   5.06830   5.09465   5.13647   5.14608
 Alpha virt. eigenvalues --    5.16071   5.16432   5.21082   5.23279   5.26839
 Alpha virt. eigenvalues --    5.30468   5.32682   5.34239   5.37020   5.38648
 Alpha virt. eigenvalues --    5.45880   5.49526   5.52865   5.54646   5.58539
 Alpha virt. eigenvalues --    5.59665   5.61730   5.62180   5.64153   5.64953
 Alpha virt. eigenvalues --    5.66470   5.67923   5.68344   5.70228   5.72010
 Alpha virt. eigenvalues --    5.75354   5.76072   5.78477   5.79897   5.80328
 Alpha virt. eigenvalues --    5.84329   5.87112   5.90451   5.91093   5.93225
 Alpha virt. eigenvalues --    5.97689   6.05164   6.06283   6.07223   6.08359
 Alpha virt. eigenvalues --    6.11580   6.13848   6.14681   6.15628   6.19040
 Alpha virt. eigenvalues --    6.20830   6.24725   6.26218   6.31857   6.33329
 Alpha virt. eigenvalues --    6.37618   6.45477   6.51679   6.54955   6.63207
 Alpha virt. eigenvalues --    6.73705   6.82770   6.83387   6.91148   6.94119
 Alpha virt. eigenvalues --    6.94880   6.95127   6.95701   6.95984   6.96892
 Alpha virt. eigenvalues --    6.98591   6.99556   6.99726   7.03770   7.06523
 Alpha virt. eigenvalues --    7.06600   7.07866   7.08329   7.08544   7.08765
 Alpha virt. eigenvalues --    7.09160   7.09694   7.10202   7.10620   7.11248
 Alpha virt. eigenvalues --    7.11365   7.11880   7.12967   7.13998   7.14178
 Alpha virt. eigenvalues --    7.15097   7.15550   7.16556   7.16670   7.17876
 Alpha virt. eigenvalues --    7.19737   7.20320   7.20465   7.22456   7.22981
 Alpha virt. eigenvalues --    7.24907   7.27274   7.29574   7.29621   7.31545
 Alpha virt. eigenvalues --    7.32910   7.35208   7.37566   7.39280   7.39840
 Alpha virt. eigenvalues --    7.40498   7.43634   7.45190   7.59443   7.61084
 Alpha virt. eigenvalues --    7.67448   7.68563   7.78733   7.81029   7.82568
 Alpha virt. eigenvalues --    7.87368   8.14397   8.27628   9.25728   9.64692
 Alpha virt. eigenvalues --    9.67034   9.69133   9.72326   9.75394   9.75418
 Alpha virt. eigenvalues --    9.76587   9.79138   9.92469   9.96967   9.97728
 Alpha virt. eigenvalues --    9.99209  10.07549  10.22225  10.23049  10.23291
 Alpha virt. eigenvalues --   10.26076  10.41134  10.46058  10.47316  10.52715
 Alpha virt. eigenvalues --   10.56900  10.62121  10.62532  10.64982  10.66929
 Alpha virt. eigenvalues --   18.78405  18.86256  18.87776  21.80338  21.91145
 Alpha virt. eigenvalues --   22.18862  25.04753  25.38274  25.51742  25.60300
 Alpha virt. eigenvalues --   25.61060  25.66866  25.85209  25.87934  26.08170
 Alpha virt. eigenvalues --   26.28766  37.27179  37.34210  51.93701  68.85263
 Alpha virt. eigenvalues --   68.91264  68.92090  68.95108  69.00355 193.13063
 Alpha virt. eigenvalues --  220.08439
          Condensed to atoms (all electrons):
               1          2          3          4          5          6
     1  C   30.631337  -0.095261  -1.728899  -0.369767  -0.206305  -1.056969
     2  N   -0.095261   6.986248   0.614544  -0.009582  -0.087093  -0.251955
     3  C   -1.728899   0.614544   8.096004   0.404831   0.315533  -0.852063
     4  O   -0.369767  -0.009582   0.404831   8.229635  -0.064385  -0.046036
     5  N   -0.206305  -0.087093   0.315533  -0.064385   6.711924   0.365892
     6  C   -1.056969  -0.251955  -0.852063  -0.046036   0.365892   7.253768
     7  C   -0.005527  -0.027496   0.052819   0.031898  -0.164603  -0.434321
     8  C   -0.015450  -0.016720  -0.198013   0.003968  -0.028351   0.476210
     9  C   -0.142231  -0.245782  -0.298827  -0.075082   0.016497  -0.090367
    10  C  -13.410732  -0.124762  -1.440452  -0.009870   0.068607  -0.105666
    11  C   -2.154874   0.028872  -0.165376   0.005113  -0.007099  -0.006088
    12  C   -4.084705   0.149796   0.318024   0.137661   0.023762   0.098751
    13  C   -0.347907   0.018076   0.415420   0.300462  -0.049819   0.182142
    14  H    0.557709   0.401552  -0.027801   0.004426   0.010654  -0.001762
    15  H   -0.047328   0.010657  -0.021531  -0.000126   0.353556  -0.050025
    16  H    0.006550   0.008681   0.039032  -0.016205  -0.062964   0.477051
    17  H   -0.008874   0.001858   0.041841  -0.007658  -0.049748   0.423942
    18  H   -0.004035   0.001688   0.005888  -0.000768   0.003558  -0.048776
    19  H    0.006312   0.003996   0.017981  -0.000904   0.001206  -0.038053
    20  H    0.001848   0.000595   0.005874   0.000223   0.000567  -0.026162
    21  H   -0.000609  -0.000799  -0.002712   0.000356  -0.005154   0.014587
    22  H   -0.000777  -0.000081  -0.000502   0.000645  -0.001123  -0.026111
    23  H   -0.889336  -0.049875   0.040541  -0.001642   0.007150   0.008430
    24  Cl  -0.139840   0.008540  -0.029585   0.003141   0.000630   0.000021
    25  H   -0.171299  -0.014541   0.010686  -0.003705   0.007347   0.006189
    26  S   -0.500100   0.013238  -0.067448   0.000115   0.005168  -0.000468
    27  H   -0.036788  -0.000578  -0.002359   0.000216  -0.000170  -0.000149
    28  F   -0.055090  -0.000008  -0.007618   0.000000   0.000097  -0.000043
    29  F    0.002128   0.000336  -0.000821   0.000001   0.000001  -0.000003
    30  F   -0.048923   0.000774  -0.006929   0.000003   0.000071  -0.000067
    31  F    0.014991   0.000206  -0.000451   0.000002  -0.000002  -0.000004
    32  F    0.016261  -0.000263   0.000176  -0.000000  -0.000003   0.000000
               7          8          9         10         11         12
     1  C   -0.005527  -0.015450  -0.142231 -13.410732  -2.154874  -4.084705
     2  N   -0.027496  -0.016720  -0.245782  -0.124762   0.028872   0.149796
     3  C    0.052819  -0.198013  -0.298827  -1.440452  -0.165376   0.318024
     4  O    0.031898   0.003968  -0.075082  -0.009870   0.005113   0.137661
     5  N   -0.164603  -0.028351   0.016497   0.068607  -0.007099   0.023762
     6  C   -0.434321   0.476210  -0.090367  -0.105666  -0.006088   0.098751
     7  C    5.550180  -0.092545   0.013634   0.004284  -0.000276  -0.000682
     8  C   -0.092545   5.200513  -0.000328  -0.000174  -0.000040   0.001076
     9  C    0.013634  -0.000328  16.175376  -1.423663  -1.905397  -2.968701
    10  C    0.004284  -0.000174  -1.423663  30.357628   0.235621  -2.241488
    11  C   -0.000276  -0.000040  -1.905397   0.235621  10.312897   0.476783
    12  C   -0.000682   0.001076  -2.968701  -2.241488   0.476783  11.782221
    13  C    0.011872   0.000507  -2.789348  -2.920870  -1.371357   1.962427
    14  H   -0.016284  -0.000662  -0.462276  -0.468115   0.015561   0.060042
    15  H    0.039102  -0.008929   0.045760   0.020314  -0.001277  -0.008680
    16  H   -0.104240  -0.007911   0.011371   0.002848  -0.000427  -0.004372
    17  H   -0.020959  -0.015960  -0.008257  -0.003514   0.000107   0.002557
    18  H    0.458302  -0.028537   0.004511   0.000212  -0.000054  -0.000762
    19  H    0.407657  -0.025856  -0.005131  -0.000736   0.000074   0.000379
    20  H   -0.008563   0.412281   0.000143   0.000084   0.000003  -0.000067
    21  H   -0.029706   0.408276   0.000069   0.000010  -0.000002   0.000031
    22  H   -0.001593   0.426758  -0.000416  -0.000112   0.000007   0.000068
    23  H    0.001281   0.000366   0.502407   0.912556  -0.049615  -0.005302
    24  Cl   0.000032   0.000000   0.022506  -0.045379  -0.100167  -0.059123
    25  H    0.003085   0.000434  -0.001057   0.016304   0.002929   0.027218
    26  S   -0.000019  -0.000000   0.085788  -2.693477   0.384871  -0.366574
    27  H    0.000008  -0.000001  -0.001793   0.108575   0.451104  -0.067509
    28  F    0.000000   0.000000   0.032803  -0.110960   0.079434   0.009144
    29  F    0.000000  -0.000000   0.043681   0.059247  -0.054216   0.035766
    30  F   -0.000002  -0.000000   0.026779  -0.110426   0.079313   0.006927
    31  F    0.000000  -0.000000   0.039766   0.079437  -0.066994   0.030245
    32  F    0.000000  -0.000000   0.051030  -0.150676  -0.043736  -0.021334
              13         14         15         16         17         18
     1  C   -0.347907   0.557709  -0.047328   0.006550  -0.008874  -0.004035
     2  N    0.018076   0.401552   0.010657   0.008681   0.001858   0.001688
     3  C    0.415420  -0.027801  -0.021531   0.039032   0.041841   0.005888
     4  O    0.300462   0.004426  -0.000126  -0.016205  -0.007658  -0.000768
     5  N   -0.049819   0.010654   0.353556  -0.062964  -0.049748   0.003558
     6  C    0.182142  -0.001762  -0.050025   0.477051   0.423942  -0.048776
     7  C    0.011872  -0.016284   0.039102  -0.104240  -0.020959   0.458302
     8  C    0.000507  -0.000662  -0.008929  -0.007911  -0.015960  -0.028537
     9  C   -2.789348  -0.462276   0.045760   0.011371  -0.008257   0.004511
    10  C   -2.920870  -0.468115   0.020314   0.002848  -0.003514   0.000212
    11  C   -1.371357   0.015561  -0.001277  -0.000427   0.000107  -0.000054
    12  C    1.962427   0.060042  -0.008680  -0.004372   0.002557  -0.000762
    13  C   10.469145   0.207164  -0.024450  -0.016301   0.004180  -0.003987
    14  H    0.207164   0.569631  -0.018261  -0.000290   0.003453  -0.001870
    15  H   -0.024450  -0.018261   0.522227  -0.001667   0.001611   0.001763
    16  H   -0.016301  -0.000290  -0.001667   0.602463  -0.028696   0.006726
    17  H    0.004180   0.003453   0.001611  -0.028696   0.561511  -0.005639
    18  H   -0.003987  -0.001870   0.001763   0.006726  -0.005639   0.620463
    19  H    0.002855   0.004153  -0.001897  -0.010509   0.009055  -0.062264
    20  H   -0.000239  -0.000092   0.000801   0.001065  -0.002176  -0.007402
    21  H    0.000198  -0.000246   0.000915  -0.002468  -0.001292  -0.007271
    22  H    0.000440   0.000063   0.000029  -0.003590   0.002002   0.004268
    23  H   -0.004830  -0.064961   0.006189   0.000088  -0.000414   0.000293
    24  Cl  -0.184357   0.000605  -0.000083  -0.000120  -0.000020  -0.000009
    25  H    0.451507  -0.004214   0.000199  -0.001945  -0.000326  -0.000257
    26  S   -0.107851   0.032137  -0.001295   0.000043  -0.000005  -0.000040
    27  H    0.006843  -0.000955   0.000038  -0.000006  -0.000006  -0.000000
    28  F    0.004335   0.004603  -0.000143  -0.000001   0.000000  -0.000001
    29  F    0.007750  -0.000008  -0.000008  -0.000000   0.000000  -0.000000
    30  F   -0.000394   0.003795  -0.000032   0.000000  -0.000003  -0.000001
    31  F    0.004225  -0.000152   0.000002   0.000000  -0.000000  -0.000000
    32  F   -0.003146   0.000161   0.000001   0.000000   0.000000   0.000000
              19         20         21         22         23         24
     1  C    0.006312   0.001848  -0.000609  -0.000777  -0.889336  -0.139840
     2  N    0.003996   0.000595  -0.000799  -0.000081  -0.049875   0.008540
     3  C    0.017981   0.005874  -0.002712  -0.000502   0.040541  -0.029585
     4  O   -0.000904   0.000223   0.000356   0.000645  -0.001642   0.003141
     5  N    0.001206   0.000567  -0.005154  -0.001123   0.007150   0.000630
     6  C   -0.038053  -0.026162   0.014587  -0.026111   0.008430   0.000021
     7  C    0.407657  -0.008563  -0.029706  -0.001593   0.001281   0.000032
     8  C   -0.025856   0.412281   0.408276   0.426758   0.000366   0.000000
     9  C   -0.005131   0.000143   0.000069  -0.000416   0.502407   0.022506
    10  C   -0.000736   0.000084   0.000010  -0.000112   0.912556  -0.045379
    11  C    0.000074   0.000003  -0.000002   0.000007  -0.049615  -0.100167
    12  C    0.000379  -0.000067   0.000031   0.000068  -0.005302  -0.059123
    13  C    0.002855  -0.000239   0.000198   0.000440  -0.004830  -0.184357
    14  H    0.004153  -0.000092  -0.000246   0.000063  -0.064961   0.000605
    15  H   -0.001897   0.000801   0.000915   0.000029   0.006189  -0.000083
    16  H   -0.010509   0.001065  -0.002468  -0.003590   0.000088  -0.000120
    17  H    0.009055  -0.002176  -0.001292   0.002002  -0.000414  -0.000020
    18  H   -0.062264  -0.007402  -0.007271   0.004268   0.000293  -0.000009
    19  H    0.684222   0.005166  -0.005606  -0.009110  -0.000584   0.000001
    20  H    0.005166   0.617354  -0.023959  -0.040997  -0.000002   0.000001
    21  H   -0.005606  -0.023959   0.600330  -0.029249   0.000018   0.000000
    22  H   -0.009110  -0.040997  -0.029249   0.620998  -0.000004   0.000001
    23  H   -0.000584  -0.000002   0.000018  -0.000004   0.632147  -0.003017
    24  Cl   0.000001   0.000001   0.000000   0.000001  -0.003017  17.730811
    25  H   -0.000068   0.000007   0.000043   0.000014   0.005795   0.019180
    26  S    0.000014   0.000000   0.000000  -0.000001  -0.165948  -0.010296
    27  H   -0.000000   0.000000   0.000000  -0.000000   0.005172  -0.000447
    28  F    0.000001   0.000000   0.000000  -0.000000  -0.025449   0.000394
    29  F    0.000000  -0.000000   0.000000   0.000000   0.004178  -0.000347
    30  F    0.000000   0.000000  -0.000000  -0.000000  -0.022977   0.000370
    31  F   -0.000000   0.000000   0.000000   0.000000   0.004754  -0.000522
    32  F   -0.000000  -0.000000   0.000000   0.000000  -0.008465  -0.000084
              25         26         27         28         29         30
     1  C   -0.171299  -0.500100  -0.036788  -0.055090   0.002128  -0.048923
     2  N   -0.014541   0.013238  -0.000578  -0.000008   0.000336   0.000774
     3  C    0.010686  -0.067448  -0.002359  -0.007618  -0.000821  -0.006929
     4  O   -0.003705   0.000115   0.000216   0.000000   0.000001   0.000003
     5  N    0.007347   0.005168  -0.000170   0.000097   0.000001   0.000071
     6  C    0.006189  -0.000468  -0.000149  -0.000043  -0.000003  -0.000067
     7  C    0.003085  -0.000019   0.000008   0.000000   0.000000  -0.000002
     8  C    0.000434  -0.000000  -0.000001   0.000000  -0.000000  -0.000000
     9  C   -0.001057   0.085788  -0.001793   0.032803   0.043681   0.026779
    10  C    0.016304  -2.693477   0.108575  -0.110960   0.059247  -0.110426
    11  C    0.002929   0.384871   0.451104   0.079434  -0.054216   0.079313
    12  C    0.027218  -0.366574  -0.067509   0.009144   0.035766   0.006927
    13  C    0.451507  -0.107851   0.006843   0.004335   0.007750  -0.000394
    14  H   -0.004214   0.032137  -0.000955   0.004603  -0.000008   0.003795
    15  H    0.000199  -0.001295   0.000038  -0.000143  -0.000008  -0.000032
    16  H   -0.001945   0.000043  -0.000006  -0.000001  -0.000000   0.000000
    17  H   -0.000326  -0.000005  -0.000006   0.000000   0.000000  -0.000003
    18  H   -0.000257  -0.000040  -0.000000  -0.000001  -0.000000  -0.000001
    19  H   -0.000068   0.000014  -0.000000   0.000001   0.000000   0.000000
    20  H    0.000007   0.000000   0.000000   0.000000  -0.000000   0.000000
    21  H    0.000043   0.000000   0.000000   0.000000   0.000000  -0.000000
    22  H    0.000014  -0.000001  -0.000000  -0.000000   0.000000  -0.000000
    23  H    0.005795  -0.165948   0.005172  -0.025449   0.004178  -0.022977
    24  Cl   0.019180  -0.010296  -0.000447   0.000394  -0.000347   0.000370
    25  H    0.398620  -0.007355   0.001592   0.000292   0.000072   0.000202
    26  S   -0.007355  17.484958  -0.075607  -0.125479  -0.270136  -0.125464
    27  H    0.001592  -0.075607   0.440883   0.002890  -0.001378   0.002976
    28  F    0.000292  -0.125479   0.002890   9.553910   0.033322   0.101515
    29  F    0.000072  -0.270136  -0.001378   0.033322   9.526588  -0.059734
    30  F    0.000202  -0.125464   0.002976   0.101515  -0.059734   9.552692
    31  F    0.000049  -0.279474  -0.001300  -0.060183   0.097861   0.033610
    32  F   -0.000057   0.139609  -0.003688   0.042975   0.047422   0.042865
              31         32
     1  C    0.014991   0.016261
     2  N    0.000206  -0.000263
     3  C   -0.000451   0.000176
     4  O    0.000002  -0.000000
     5  N   -0.000002  -0.000003
     6  C   -0.000004   0.000000
     7  C    0.000000   0.000000
     8  C   -0.000000  -0.000000
     9  C    0.039766   0.051030
    10  C    0.079437  -0.150676
    11  C   -0.066994  -0.043736
    12  C    0.030245  -0.021334
    13  C    0.004225  -0.003146
    14  H   -0.000152   0.000161
    15  H    0.000002   0.000001
    16  H    0.000000   0.000000
    17  H   -0.000000   0.000000
    18  H   -0.000000   0.000000
    19  H   -0.000000  -0.000000
    20  H    0.000000  -0.000000
    21  H    0.000000   0.000000
    22  H    0.000000   0.000000
    23  H    0.004754  -0.008465
    24  Cl  -0.000522  -0.000084
    25  H    0.000049  -0.000057
    26  S   -0.279474   0.139609
    27  H   -0.001300  -0.003688
    28  F   -0.060183   0.042975
    29  F    0.097861   0.047422
    30  F    0.033610   0.042865
    31  F    9.524199   0.048116
    32  F    0.048116   9.237021
 Mulliken charges:
               1
     1  C    0.284488
     2  N   -0.324859
     3  C    0.472191
     4  O   -0.516968
     5  N   -0.165400
     6  C   -0.271894
     7  C    0.332664
     8  C   -0.490913
     9  C   -0.653466
    10  C   -0.604656
    11  C   -0.145695
    12  C    0.706422
    13  C   -0.224692
    14  H    0.192239
    15  H    0.182567
    16  H    0.105795
    17  H    0.101428
    18  H    0.064001
    19  H    0.017643
    20  H    0.063646
    21  H    0.084240
    22  H    0.058371
    23  H    0.161052
    24  Cl  -0.212839
    25  H    0.253060
    26  S    2.651094
    27  H    0.172437
    28  F   -0.480741
    29  F   -0.471704
    30  F   -0.476942
    31  F   -0.468381
    32  F   -0.394187
 Sum of Mulliken charges =  -0.00000
 Mulliken charges with hydrogens summed into heavy atoms:
               1
     1  C    0.284488
     2  N   -0.132620
     3  C    0.472191
     4  O   -0.516968
     5  N    0.017167
     6  C   -0.064671
     7  C    0.414307
     8  C   -0.284655
     9  C   -0.492414
    10  C   -0.604656
    11  C    0.026741
    12  C    0.706422
    13  C    0.028367
    24  Cl  -0.212839
    26  S    2.651094
    28  F   -0.480741
    29  F   -0.471704
    30  F   -0.476942
    31  F   -0.468381
    32  F   -0.394187
 Electronic spatial extent (au):  <R**2>=          10522.7061
 Charge=             -0.0000 electrons
 Dipole moment (field-independent basis, Debye):
    X=             -5.1721    Y=             -3.3339    Z=             -0.8958  Tot=              6.2184
 Quadrupole moment (field-independent basis, Debye-Ang):
   XX=           -124.7751   YY=           -132.7320   ZZ=           -132.9336
   XY=             18.7245   XZ=              3.3353   YZ=              0.7184
 Traceless Quadrupole moment (field-independent basis, Debye-Ang):
   XX=              5.3718   YY=             -2.5851   ZZ=             -2.7867
   XY=             18.7245   XZ=              3.3353   YZ=              0.7184
 Octapole moment (field-independent basis, Debye-Ang**2):
  XXX=            -53.6046  YYY=            -52.9660  ZZZ=              0.9571  XYY=             22.6744
  XXY=            -36.6862  XXZ=            -10.4276  XZZ=             25.2172  YZZ=            -11.6985
  YYZ=             -2.9888  XYZ=             -2.7213
 Hexadecapole moment (field-independent basis, Debye-Ang**3):
 XXXX=          -9898.1221 YYYY=          -2341.4192 ZZZZ=           -306.7873 XXXY=            161.5085
 XXXZ=             30.4820 YYYX=            -85.7790 YYYZ=              5.6476 ZZZX=              2.1939
 ZZZY=              0.7767 XXYY=          -2146.9041 XXZZ=          -1795.6593 YYZZ=           -453.4502
 XXYZ=             12.5462 YYXZ=             12.7377 ZZXY=            -47.6437
 N-N= 2.000462710075D+03 E-N=-8.558862581532D+03  KE= 1.922398409275D+03
 1\1\GINC-R4083\SP\RMP2-FC\Gen\C10H12Cl1F5N2O1S1\ROOT\30-Nov-2019\0\\# 
 MP2/Gen 5D SCF=Tight INT(grid=ultrafine) maxdisk=3489660928\\CP22_c2.M
 P2_GTMP2LARGE\\0,1\C,0,-5.9286419743,1.4199467089,0.3515334142\N,0,-4.
 7012333765,0.7531887212,0.360255731\C,0,-3.4537066723,1.2828126907,0.0
 351216639\O,0,-3.2844584977,2.4223218776,-0.3386736204\N,0,-2.43580246
 31,0.3732090485,0.1525047662\C,0,-1.0621254658,0.8171195865,-0.0512339
 121\C,0,-0.1206670757,-0.37696707,-0.1048904808\C,0,1.3240131,0.060042
 0145,-0.3257606922\C,0,-7.0724701868,0.6452797662,0.5758402703\C,0,-8.
 3081775427,1.2611512814,0.5973993595\C,0,-8.4775023079,2.6224656316,0.
 4067512601\C,0,-7.3253615959,3.3639953635,0.1870175277\C,0,-6.05860376
 3,2.7985742413,0.154959807\H,0,-4.7552337412,-0.2479610642,0.472609344
 8\H,0,-2.5667442108,-0.4195011013,0.7641340313\H,0,-0.7600056162,1.511
 7429626,0.7413172028\H,0,-1.0311635228,1.3730699919,-0.9895662463\H,0,
 -0.4413969769,-1.0477241525,-0.9074073986\H,0,-0.1926109378,-0.9442488
 44,0.8307251471\H,0,1.4282518422,0.6079313839,-1.2651417863\H,0,1.9951
 652794,-0.7989997389,-0.3654469727\H,0,1.6666872168,0.7136591306,0.479
 8830046\H,0,-6.9894210667,-0.42330085,0.7316570649\Cl,0,-7.4759037931,
 5.0781374192,-0.0585301882\H,0,-5.189923162,3.41192628,-0.0272143493\S
 ,0,-9.7734808973,0.239315602,0.889450972\H,0,-9.4508298994,3.091979309
 9,0.4253871198\F,0,-9.0631115854,-0.5508785474,2.1088463591\F,0,-10.38
 88824641,1.3005835649,1.936680045\F,0,-9.2643450051,-0.9044361955,-0.1
 339815401\F,0,-10.58962819,0.9474200674,-0.3078211058\F,0,-11.07130544
 8,-0.6694750804,1.1490042015\\Version=ES64L-G09RevE.01\State=1-A\HF=-1
 923.9497949\MP2=-1927.8609584\RMSD=5.780e-09\PG=C01 [X(C10H12Cl1F5N2O1
 S1)]\\@


 ADAM SMITH SAID, "THE REAL PRICE OF ANYTHING IS THE TOIL AND TROUBLE
 OF ACQUIRING IT."  BUT IN ALL UNDERTAKINGS WITH NATURE WE SHOULD FIRST
 READ CAREFULLY THE SMALL PRINT IN THE CONTRACT. THIS MIGHT DISCLOSE
 THAT THE REAL PRICE IS TO BE PAID BY THOSE WHO INHERIT THE DEPLETION
 AND DESPOILATION THAT FOLLOWS.
                               -- E. R. HARRISON IN "COSMOLOGY" (1980)
 Job cpu time:       0 days  6 hours 20 minutes 58.4 seconds.
 File lengths (MBytes):  RWF=    377 Int=      0 D2E=      0 Chk=     41 Scr=      1
 Normal termination of Gaussian 09 at Sat Nov 30 16:40:09 2019.
pbs_rusage has been removed.
Please contact help@nci.org.au if you require this functionality.
