 Entering Gaussian System, Link 0=/apps/gaussian/g09e01/g09/g09
 AtFile(1): /home/507/hio507/Basis/6-31pGd.gbs
 Initial command:
 /apps/gaussian/g09e01/g09/l1.exe "/jobfs/local/3890880.r-man2/Gau-7559.inp" -scrdir="/jobfs/local/3890880.r-man2/"
 Entering Link 1 = /apps/gaussian/g09e01/g09/l1.exe PID=      7560.
  
 Copyright (c) 1988,1990,1992,1993,1995,1998,2003,2009,2015,
            Gaussian, Inc.  All Rights Reserved.
  
 This is part of the Gaussian(R) 09 program.  It is based on
 the Gaussian(R) 03 system (copyright 2003, Gaussian, Inc.),
 the Gaussian(R) 98 system (copyright 1998, Gaussian, Inc.),
 the Gaussian(R) 94 system (copyright 1995, Gaussian, Inc.),
 the Gaussian 92(TM) system (copyright 1992, Gaussian, Inc.),
 the Gaussian 90(TM) system (copyright 1990, Gaussian, Inc.),
 the Gaussian 88(TM) system (copyright 1988, Gaussian, Inc.),
 the Gaussian 86(TM) system (copyright 1986, Carnegie Mellon
 University), and the Gaussian 82(TM) system (copyright 1983,
 Carnegie Mellon University). Gaussian is a federally registered
 trademark of Gaussian, Inc.
  
 This software contains proprietary and confidential information,
 including trade secrets, belonging to Gaussian, Inc.
  
 This software is provided under written license and may be
 used, copied, transmitted, or stored only in accord with that
 written license.
  
 The following legend is applicable only to US Government
 contracts under FAR:
  
                    RESTRICTED RIGHTS LEGEND
  
 Use, reproduction and disclosure by the US Government is
 subject to restrictions as set forth in subparagraphs (a)
 and (c) of the Commercial Computer Software - Restricted
 Rights clause in FAR 52.227-19.
  
 Gaussian, Inc.
 340 Quinnipiac St., Bldg. 40, Wallingford CT 06492
  
  
 ---------------------------------------------------------------
 Warning -- This program may not be used in any manner that
 competes with the business of Gaussian, Inc. or will provide
 assistance to any competitor of Gaussian, Inc.  The licensee
 of this program is prohibited from giving any competitor of
 Gaussian, Inc. access to this program.  By using this program,
 the user acknowledges that Gaussian, Inc. is engaged in the
 business of creating and licensing software in the field of
 computational chemistry and represents and warrants to the
 licensee that it is not a competitor of Gaussian, Inc. and that
 it will not use this program in any manner prohibited above.
 ---------------------------------------------------------------
  

 Cite this work as:
 Gaussian 09, Revision E.01,
 M. J. Frisch, G. W. Trucks, H. B. Schlegel, G. E. Scuseria, 
 M. A. Robb, J. R. Cheeseman, G. Scalmani, V. Barone, B. Mennucci, 
 G. A. Petersson, H. Nakatsuji, M. Caricato, X. Li, H. P. Hratchian, 
 A. F. Izmaylov, J. Bloino, G. Zheng, J. L. Sonnenberg, M. Hada, 
 M. Ehara, K. Toyota, R. Fukuda, J. Hasegawa, M. Ishida, T. Nakajima, 
 Y. Honda, O. Kitao, H. Nakai, T. Vreven, J. A. Montgomery, Jr., 
 J. E. Peralta, F. Ogliaro, M. Bearpark, J. J. Heyd, E. Brothers, 
 K. N. Kudin, V. N. Staroverov, T. Keith, R. Kobayashi, J. Normand, 
 K. Raghavachari, A. Rendell, J. C. Burant, S. S. Iyengar, J. Tomasi, 
 M. Cossi, N. Rega, J. M. Millam, M. Klene, J. E. Knox, J. B. Cross, 
 V. Bakken, C. Adamo, J. Jaramillo, R. Gomperts, R. E. Stratmann, 
 O. Yazyev, A. J. Austin, R. Cammi, C. Pomelli, J. W. Ochterski, 
 R. L. Martin, K. Morokuma, V. G. Zakrzewski, G. A. Voth, 
 P. Salvador, J. J. Dannenberg, S. Dapprich, A. D. Daniels, 
 O. Farkas, J. B. Foresman, J. V. Ortiz, J. Cioslowski, 
 and D. J. Fox, Gaussian, Inc., Wallingford CT, 2013.
 
 ******************************************
 Gaussian 09:  ES64L-G09RevE.01 30-Nov-2015
                30-Nov-2019 
 ******************************************
 %chk=CP22_c2.MP2_6-31pGd.chk
 %mem=1114112000
 %nproc=4
 Will use up to    4 processors via shared memory.
 -------------------------------------------------------------
 # MP2/Gen 6D SCF=Tight INT(grid=ultrafine) maxdisk=3489660928
 -------------------------------------------------------------
 1/38=1/1;
 2/12=2,17=6,18=5,40=1/2;
 3/5=7,8=2,11=9,16=1,25=1,30=1,75=-5/1,2,3;
 4//1;
 5/5=2,32=2,38=5/2;
 8/10=1/1;
 9/16=-3/6;
 6/7=2,8=2,9=2,10=2/1;
 99/5=1,9=1/99;
 -------------------
 CP22_c2.MP2_6-31pGd
 -------------------
 Symbolic Z-matrix:
 Charge =  0 Multiplicity = 1
 C                    -5.92864   1.41995   0.35153 
 N                    -4.70123   0.75319   0.36026 
 C                    -3.45371   1.28281   0.03512 
 O                    -3.28446   2.42232  -0.33867 
 N                    -2.4358    0.37321   0.1525 
 C                    -1.06213   0.81712  -0.05123 
 C                    -0.12067  -0.37697  -0.10489 
 C                     1.32401   0.06004  -0.32576 
 C                    -7.07247   0.64528   0.57584 
 C                    -8.30818   1.26115   0.5974 
 C                    -8.4775    2.62247   0.40675 
 C                    -7.32536   3.364     0.18702 
 C                    -6.0586    2.79857   0.15496 
 H                    -4.75523  -0.24796   0.47261 
 H                    -2.56674  -0.4195    0.76413 
 H                    -0.76001   1.51174   0.74132 
 H                    -1.03116   1.37307  -0.98957 
 H                    -0.4414   -1.04772  -0.90741 
 H                    -0.19261  -0.94425   0.83073 
 H                     1.42825   0.60793  -1.26514 
 H                     1.99517  -0.799    -0.36545 
 H                     1.66669   0.71366   0.47988 
 H                    -6.98942  -0.4233    0.73166 
 Cl                   -7.4759    5.07814  -0.05853 
 H                    -5.18992   3.41193  -0.02721 
 S                    -9.77348   0.23932   0.88945 
 H                    -9.45083   3.09198   0.42539 
 F                    -9.06311  -0.55088   2.10885 
 F                    -10.38888   1.30058   1.93668 
 F                    -9.26435  -0.90444  -0.13398 
 F                    -10.58963   0.94742  -0.30782 
 F                    -11.07131  -0.66948   1.149 
 
                          Input orientation:                          
 ---------------------------------------------------------------------
 Center     Atomic      Atomic             Coordinates (Angstroms)
 Number     Number       Type             X           Y           Z
 ---------------------------------------------------------------------
      1          6           0       -5.928642    1.419947    0.351533
      2          7           0       -4.701233    0.753189    0.360256
      3          6           0       -3.453707    1.282813    0.035122
      4          8           0       -3.284458    2.422322   -0.338674
      5          7           0       -2.435802    0.373209    0.152505
      6          6           0       -1.062125    0.817120   -0.051234
      7          6           0       -0.120667   -0.376967   -0.104890
      8          6           0        1.324013    0.060042   -0.325761
      9          6           0       -7.072470    0.645280    0.575840
     10          6           0       -8.308178    1.261151    0.597399
     11          6           0       -8.477502    2.622466    0.406751
     12          6           0       -7.325362    3.363995    0.187018
     13          6           0       -6.058604    2.798574    0.154960
     14          1           0       -4.755234   -0.247961    0.472609
     15          1           0       -2.566744   -0.419501    0.764134
     16          1           0       -0.760006    1.511743    0.741317
     17          1           0       -1.031164    1.373070   -0.989566
     18          1           0       -0.441397   -1.047724   -0.907407
     19          1           0       -0.192611   -0.944249    0.830725
     20          1           0        1.428252    0.607931   -1.265142
     21          1           0        1.995165   -0.799000   -0.365447
     22          1           0        1.666687    0.713659    0.479883
     23          1           0       -6.989421   -0.423301    0.731657
     24         17           0       -7.475904    5.078137   -0.058530
     25          1           0       -5.189923    3.411926   -0.027214
     26         16           0       -9.773481    0.239316    0.889451
     27          1           0       -9.450830    3.091979    0.425387
     28          9           0       -9.063112   -0.550879    2.108846
     29          9           0      -10.388882    1.300584    1.936680
     30          9           0       -9.264345   -0.904436   -0.133982
     31          9           0      -10.589628    0.947420   -0.307821
     32          9           0      -11.071305   -0.669475    1.149004
 ---------------------------------------------------------------------
                    Distance matrix (angstroms):
                    1          2          3          4          5
     1  C    0.000000
     2  N    1.396844   0.000000
     3  C    2.498845   1.393749   0.000000
     4  O    2.910816   2.298208   1.211135   0.000000
     5  N    3.651739   2.306452   1.370141   2.271637   0.000000
     6  C    4.920224   3.662856   2.438030   2.756458   1.457928
     7  C    6.096704   4.740802   3.726074   4.230869   2.447216
     8  C    7.410066   6.103660   4.944897   5.178662   3.803028
     9  C    1.399559   2.383461   3.714064   4.282902   4.663896
    10  C    2.397469   3.650248   4.886974   5.240449   5.955767
    11  C    2.818828   4.213854   5.212610   5.250088   6.451816
    12  C    2.399420   3.705721   4.398193   4.182344   5.731822
    13  C    1.398623   2.463372   3.016187   2.842731   4.359712
    14  H    2.042905   1.008881   2.056365   3.154643   2.422412
    15  H    3.854369   2.468676   2.053298   3.131654   1.009765
    16  H    5.184126   4.031611   2.794127   2.892818   2.109800
    17  H    5.077996   3.959253   2.631890   2.569422   2.068105
    18  H    6.146885   4.795463   3.923490   4.521911   2.668355
    19  H    6.222628   4.840487   4.028341   4.718137   2.688417
    20  H    7.576074   6.342997   5.097025   5.134199   4.122588
    21  H    8.259813   6.912141   5.846760   6.184825   4.612572
    22  H    7.629177   6.369167   5.171091   5.301265   4.129589
    23  H    2.160395   2.599590   3.987137   4.792695   4.658893
    24  Cl   3.993060   5.155517   5.530943   4.969915   6.898080
    25  H    2.158040   2.730904   2.747992   2.169590   4.105031
    26  S    4.057836   5.125603   6.462067   6.955661   7.375808
    27  H    3.899610   5.294606   6.276215   6.249509   7.528399
    28  F    4.098439   4.876899   6.255252   6.944286   6.971545
    29  F    4.735048   5.927403   7.191168   7.543764   8.203340
    30  F    4.094557   4.879957   6.210972   6.846040   6.952945
    31  F    4.731049   5.929355   7.152026   7.452637   8.186971
    32  F    5.607908   6.574490   7.942290   8.509253   8.755119
                    6          7          8          9         10
     6  C    0.000000
     7  C    1.521534   0.000000
     8  C    2.518370   1.525405   0.000000
     9  C    6.045411   7.059458   8.465006   0.000000
    10  C    7.288564   8.379258   9.750589   1.380846   0.000000
    11  C    7.645707   8.893541  10.157376   2.431454   1.384989
    12  C    6.765461   8.123277   9.273119   2.757998   2.357179
    13  C    5.378984   6.738744   7.888833   2.416970   2.760436
    14  H    3.879157   4.672190   6.139178   2.485583   3.862176
    15  H    2.111382   2.596210   4.068885   4.633657   5.984685
    16  H    1.096319   2.166113   2.754855   6.373802   7.553702
    17  H    1.091104   2.162009   2.776965   6.283117   7.448887
    18  H    2.143823   1.093991   2.163823   7.002672   8.335562
    19  H    2.153213   1.096522   2.155506   7.065694   8.413124
    20  H    2.778365   2.171487   1.092468   8.697867   9.934476
    21  H    3.472405   2.173188   1.090859   9.230058  10.551311
    22  H    2.781943   2.173951   1.092567   8.739952   9.990570
    23  H    6.106095   6.919663   8.394340   1.083070   2.143484
    24  Cl   7.700187   9.157501  10.133668   4.496155   3.961352
    25  H    4.875686   6.329226   7.331823   3.400293   3.839204
    26  S    8.781028   9.723442  11.165270   2.749294   1.810126
    27  H    8.704741   9.968286  11.218472   3.415490   2.164988
    28  F    8.399592   9.214021  10.686108   2.782724   2.477468
    29  F    9.548504  10.602756  11.993728   3.644159   2.474785
    30  F    8.381349   9.158925  10.633923   2.776649   2.477689
    31  F    9.531848  10.554351  11.946657   3.639031   2.474443
    32  F   10.189908  11.026073  12.504041   4.248268   3.415620
                   11         12         13         14         15
    11  C    0.000000
    12  C    1.387652   0.000000
    13  C    2.438336   1.387589   0.000000
    14  H    4.700954   4.442223   3.328821   0.000000
    15  H    6.657203   6.106746   4.787503   2.214475   0.000000
    16  H    7.804191   6.844121   5.484058   4.373855   2.644717
    17  H    7.678454   6.705599   5.349501   4.316758   2.940541
    18  H    8.931758   8.249243   6.890257   4.599267   2.775935
    19  H    9.029985   8.357719   6.991084   4.629319   2.432345
    20  H   10.245855   9.291416   7.928973   6.479801   4.597126
    21  H   11.044432  10.222914   8.836094   6.824505   4.714975
    22  H   10.322474   9.379072   8.008281   6.493523   4.391673
    23  H    3.405384   3.840977   3.402863   2.255979   4.422798
    24  Cl   2.692584   1.738171   2.692717   6.004288   7.416243
    25  H    3.408776   2.146693   1.078886   3.719349   4.710322
    26  S    2.755352   4.031169   4.570514   5.059051   7.237872
    27  H    1.080813   2.156021   3.415614   5.762470   7.735366
    28  F    3.648312   4.694618   4.905464   4.618099   6.635382
    29  F    2.782342   4.087071   4.916281   6.023246   8.094406
    30  F    3.653840   4.699171   4.906379   4.596846   6.774927
    31  F    2.788811   4.091471   4.916413   6.006510   8.208790
    32  F    4.256246   5.588058   6.175975   6.366156   8.516935
                   16         17         18         19         20
    16  H    0.000000
    17  H    1.757474   0.000000
    18  H    3.061156   2.492954   0.000000
    19  H    2.522266   3.063756   1.758894   0.000000
    20  H    3.103421   2.590387   2.522847   3.070687   0.000000
    21  H    3.762370   3.777046   2.508470   2.497657   1.763603
    22  H    2.567903   3.142054   3.077509   2.515698   1.764410
    23  H    6.523044   6.456810   6.778868   6.817465   8.712512
    24  Cl   7.646059   7.491931   9.366486   9.492432  10.036067
    25  H    4.881138   4.730575   6.573562   6.684718   7.293497
    26  S    9.104051   9.013557   9.590253   9.653877  11.413017
    27  H    8.838970   8.709048  10.004168  10.107920  11.286399
    28  F    8.664070   8.821220   9.147601   8.970737  11.081306
    29  F    9.705089   9.804850  10.609234  10.498874  12.262793
    30  F    8.884135   8.585123   8.857942   9.122971  10.858103
    31  F    9.901547   9.592195  10.359860  10.628860  12.060728
    32  F   10.547361  10.466610  10.833598  10.886818  12.794483
                   21         22         23         24         25
    21  H    0.000000
    22  H    1.763694   0.000000
    23  H    9.059116   8.734087   0.000000
    24  Cl  11.150609  10.145222   5.579147   0.000000
    25  H    8.334974   7.385858   4.303841   2.828948   0.000000
    26  S   11.880821  11.457321   2.866173   5.439828   5.649313
    27  H   12.115112  11.369194   4.302270   2.842417   4.296806
    28  F   11.334425  10.926169   2.492613   6.237193   5.938701
    29  F   12.769991  12.157446   3.997524   5.170708   5.945067
    30  F   11.262383  11.067182   2.481149   6.244630   5.936607
    31  F   12.705524  12.283826   3.990098   5.178827   5.942167
    32  F   13.154581  12.830325   4.110543   6.886226   7.254790
                   26         27         28         29         30
    26  S    0.000000
    27  H    2.908118   0.000000
    28  F    1.617392   4.031721   0.000000
    29  F    1.612978   2.524490   2.283686   0.000000
    30  F    1.617035   4.039679   2.279424   3.227125   0.000000
    31  F    1.612752   2.536452   3.227295   2.280967   2.283849
    32  F    1.605496   4.159099   2.228947   2.228736   2.228534
                   31         32
    31  F    0.000000
    32  F    2.229059   0.000000
 Stoichiometry    C10H12ClF5N2OS
 Framework group  C1[X(C10H12ClF5N2OS)]
 Deg. of freedom    90
 Full point group                 C1      NOp   1
 Largest Abelian subgroup         C1      NOp   1
 Largest concise Abelian subgroup C1      NOp   1
                         Standard orientation:                         
 ---------------------------------------------------------------------
 Center     Atomic      Atomic             Coordinates (Angstroms)
 Number     Number       Type             X           Y           Z
 ---------------------------------------------------------------------
      1          6           0       -0.570594    0.213779   -0.044558
      2          7           0       -1.803515   -0.441491   -0.085774
      3          6           0       -3.067346    0.136140    0.021984
      4          8           0       -3.251877    1.319417    0.202685
      5          7           0       -4.085454   -0.776384   -0.067694
      6          6           0       -5.463676   -0.301089   -0.080100
      7          6           0       -6.429522   -1.469688    0.048680
      8          6           0       -7.880280   -0.998352    0.046541
      9          6           0        0.574573   -0.590638   -0.028006
     10          6           0        1.817901    0.009758   -0.008141
     11          6           0        1.993744    1.383533   -0.004110
     12          6           0        0.840124    2.154537   -0.021143
     13          6           0       -0.434160    1.605727   -0.041477
     14          1           0       -1.758265   -1.448416   -0.042248
     15          1           0       -3.906978   -1.652111   -0.537667
     16          1           0       -5.666651    0.268672   -0.994479
     17          1           0       -5.581896    0.388898    0.756828
     18          1           0       -6.208609   -2.014443    0.971315
     19          1           0       -6.271070   -2.170651   -0.779515
     20          1           0       -8.071629   -0.315862    0.877852
     21          1           0       -8.569126   -1.838922    0.140911
     22          1           0       -8.123029   -0.470917   -0.878980
     23          1           0        0.486768   -1.670136   -0.031895
     24         17           0        0.998658    3.885460   -0.017379
     25          1           0       -1.304593    2.243158   -0.046128
     26         16           0        3.284817   -1.050560    0.012799
     27          1           0        2.972933    1.840785    0.012218
     28          9           0        2.690790   -2.010934   -1.145117
     29          9           0        4.028289   -0.160273   -1.108065
     30          9           0        2.647833   -2.026417    1.133850
     31          9           0        3.984679   -0.175115    1.172436
     32          9           0        4.584087   -1.993524    0.031033
 ---------------------------------------------------------------------
 Rotational constants (GHZ):      0.4515166      0.1149604      0.0952516
 General basis read from cards:  (6D, 7F)
 There are   412 symmetry adapted cartesian basis functions of A   symmetry.
 There are   412 symmetry adapted basis functions of A   symmetry.
   412 basis functions,   736 primitive gaussians,   412 cartesian basis functions
    86 alpha electrons       86 beta electrons
       nuclear repulsion energy      2000.4627100746 Hartrees.
 NAtoms=   32 NActive=   32 NUniq=   32 SFac= 1.00D+00 NAtFMM=   60 NAOKFM=F Big=F
 Integral buffers will be    131072 words long.
 Raffenetti 1 integral format.
 Two-electron integral symmetry is turned on.
 One-electron integrals computed using PRISM.
 NBasis=   412 RedAO= T EigKep=  1.00D-06  NBF=   412
 NBsUse=   411 1.00D-06 EigRej=  6.92D-07 NBFU=   411
 ExpMin= 4.05D-02 ExpMax= 2.52D+04 ExpMxC= 3.78D+03 IAcc=3 IRadAn=         5 AccDes= 0.00D+00
 Harris functional with IExCor=  205 and IRadAn=       5 diagonalized for initial guess.
 HarFok:  IExCor=  205 AccDes= 0.00D+00 IRadAn=         5 IDoV= 1 UseB2=F ITyADJ=14
 ICtDFT=  3500011 ScaDFX=  1.000000  1.000000  1.000000  1.000000
 FoFCou: FMM=F IPFlag=           0 FMFlag=      100000 FMFlg1=           0
         NFxFlg=           0 DoJE=T BraDBF=F KetDBF=T FulRan=T
         wScrn=  0.000000 ICntrl=     500 IOpCl=  0 I1Cent=   200000004 NGrid=           0
         NMat0=    1 NMatS0=      1 NMatT0=    0 NMatD0=    1 NMtDS0=    0 NMtDT0=    0
 Petite list used in FoFCou.
 Requested convergence on RMS density matrix=1.00D-08 within 128 cycles.
 Requested convergence on MAX density matrix=1.00D-06.
 Requested convergence on             energy=1.00D-06.
 No special actions if energy rises.
 Initial convergence to 1.0D-05 achieved.  Increase integral accuracy.
 SCF Done:  E(RHF) =  -1923.51782560     A.U. after   18 cycles
            NFock= 18  Conv=0.55D-08     -V/T= 2.0019
 ExpMin= 4.05D-02 ExpMax= 2.52D+04 ExpMxC= 3.78D+03 IAcc=3 IRadAn=         5 AccDes= 0.00D+00
 HarFok:  IExCor=  205 AccDes= 0.00D+00 IRadAn=         5 IDoV=-2 UseB2=F ITyADJ=14
 ICtDFT= 12500011 ScaDFX=  1.000000  1.000000  1.000000  1.000000
 Range of M.O.s used for correlation:    29   411
 NBasis=   412 NAE=    86 NBE=    86 NFC=    28 NFV=     0
 NROrb=    383 NOA=    58 NOB=    58 NVA=   325 NVB=   325

 **** Warning!!: The largest alpha MO coefficient is  0.21904655D+03

 Fully direct method using O(OVN) memory.
 JobTyp=1 Pass  1:  I=   1 to  58 NPSUse=  4 ParTrn=T ParDer=T DoDerP=F.
 Spin components of T(2) and E(2):
     alpha-alpha T2 =       0.1309379559D+00 E2=     -0.4140304800D+00
     alpha-beta  T2 =       0.6668552246D+00 E2=     -0.2172349771D+01
     beta-beta   T2 =       0.1309379559D+00 E2=     -0.4140304800D+00
 ANorm=    0.1388787650D+01
 E2 =    -0.3000410731D+01 EUMP2 =    -0.19265182363271D+04

 **********************************************************************

            Population analysis using the SCF density.

 **********************************************************************

 Orbital symmetries:
       Occupied  (A) (A) (A) (A) (A) (A) (A) (A) (A) (A) (A) (A)
                 (A) (A) (A) (A) (A) (A) (A) (A) (A) (A) (A) (A)
                 (A) (A) (A) (A) (A) (A) (A) (A) (A) (A) (A) (A)
                 (A) (A) (A) (A) (A) (A) (A) (A) (A) (A) (A) (A)
                 (A) (A) (A) (A) (A) (A) (A) (A) (A) (A) (A) (A)
                 (A) (A) (A) (A) (A) (A) (A) (A) (A) (A) (A) (A)
                 (A) (A) (A) (A) (A) (A) (A) (A) (A) (A) (A) (A)
                 (A) (A)
       Virtual   (A) (A) (A) (A) (A) (A) (A) (A) (A) (A) (A) (A)
                 (A) (A) (A) (A) (A) (A) (A) (A) (A) (A) (A) (A)
                 (A) (A) (A) (A) (A) (A) (A) (A) (A) (A) (A) (A)
                 (A) (A) (A) (A) (A) (A) (A) (A) (A) (A) (A) (A)
                 (A) (A) (A) (A) (A) (A) (A) (A) (A) (A) (A) (A)
                 (A) (A) (A) (A) (A) (A) (A) (A) (A) (A) (A) (A)
                 (A) (A) (A) (A) (A) (A) (A) (A) (A) (A) (A) (A)
                 (A) (A) (A) (A) (A) (A) (A) (A) (A) (A) (A) (A)
                 (A) (A) (A) (A) (A) (A) (A) (A) (A) (A) (A) (A)
                 (A) (A) (A) (A) (A) (A) (A) (A) (A) (A) (A) (A)
                 (A) (A) (A) (A) (A) (A) (A) (A) (A) (A) (A) (A)
                 (A) (A) (A) (A) (A) (A) (A) (A) (A) (A) (A) (A)
                 (A) (A) (A) (A) (A) (A) (A) (A) (A) (A) (A) (A)
                 (A) (A) (A) (A) (A) (A) (A) (A) (A) (A) (A) (A)
                 (A) (A) (A) (A) (A) (A) (A) (A) (A) (A) (A) (A)
                 (A) (A) (A) (A) (A) (A) (A) (A) (A) (A) (A) (A)
                 (A) (A) (A) (A) (A) (A) (A) (A) (A) (A) (A) (A)
                 (A) (A) (A) (A) (A) (A) (A) (A) (A) (A) (A) (A)
                 (A) (A) (A) (A) (A) (A) (A) (A) (A) (A) (A) (A)
                 (A) (A) (A) (A) (A) (A) (A) (A) (A) (A) (A) (A)
                 (A) (A) (A) (A) (A) (A) (A) (A) (A) (A) (A) (A)
                 (A) (A) (A) (A) (A) (A) (A) (A) (A) (A) (A) (A)
                 (A) (A) (A) (A) (A) (A) (A) (A) (A) (A) (A) (A)
                 (A) (A) (A) (A) (A) (A) (A) (A) (A) (A) (A) (A)
                 (A) (A) (A) (A) (A) (A) (A) (A) (A) (A) (A) (A)
                 (A) (A) (A) (A) (A) (A) (A) (A) (A) (A) (A) (A)
                 (A) (A) (A) (A) (A) (A) (A) (A) (A) (A) (A) (A)
                 (A)
 The electronic state is 1-A.
 Alpha  occ. eigenvalues -- -104.84271 -92.40887 -26.36330 -26.36324 -26.36321
 Alpha  occ. eigenvalues --  -26.36318 -26.36315 -20.55358 -15.63642 -15.61134
 Alpha  occ. eigenvalues --  -11.41226 -11.33264 -11.33185 -11.31839 -11.28471
 Alpha  occ. eigenvalues --  -11.28095 -11.27778 -11.26924 -11.24649 -11.23328
 Alpha  occ. eigenvalues --  -10.57511  -9.34927  -8.04454  -8.04109  -8.04109
 Alpha  occ. eigenvalues --   -7.03802  -7.03788  -7.03452  -1.76264  -1.66337
 Alpha  occ. eigenvalues --   -1.66239  -1.63327  -1.61870  -1.43034  -1.29424
 Alpha  occ. eigenvalues --   -1.25272  -1.21494  -1.15728  -1.10319  -1.07520
 Alpha  occ. eigenvalues --   -1.04220  -1.02769  -0.95380  -0.90886  -0.88140
 Alpha  occ. eigenvalues --   -0.86881  -0.86522  -0.84183  -0.83568  -0.80209
 Alpha  occ. eigenvalues --   -0.78382  -0.77839  -0.76356  -0.75408  -0.72791
 Alpha  occ. eigenvalues --   -0.71681  -0.69662  -0.69144  -0.68769  -0.68499
 Alpha  occ. eigenvalues --   -0.68208  -0.67637  -0.67466  -0.65907  -0.65460
 Alpha  occ. eigenvalues --   -0.65178  -0.65040  -0.63530  -0.63029  -0.61962
 Alpha  occ. eigenvalues --   -0.60115  -0.58849  -0.57430  -0.56949  -0.55885
 Alpha  occ. eigenvalues --   -0.53896  -0.52690  -0.51241  -0.50362  -0.49720
 Alpha  occ. eigenvalues --   -0.46809  -0.46624  -0.46429  -0.41983  -0.37089
 Alpha  occ. eigenvalues --   -0.33836
 Alpha virt. eigenvalues --    0.04226   0.06811   0.07450   0.07519   0.07971
 Alpha virt. eigenvalues --    0.08537   0.08611   0.09406   0.09770   0.10330
 Alpha virt. eigenvalues --    0.10500   0.10661   0.11741   0.11944   0.12417
 Alpha virt. eigenvalues --    0.12737   0.13226   0.13726   0.14268   0.14351
 Alpha virt. eigenvalues --    0.14807   0.15331   0.15576   0.15857   0.17659
 Alpha virt. eigenvalues --    0.17949   0.18342   0.18708   0.19165   0.19776
 Alpha virt. eigenvalues --    0.20514   0.20572   0.20895   0.21243   0.22853
 Alpha virt. eigenvalues --    0.23398   0.23956   0.24320   0.24828   0.25203
 Alpha virt. eigenvalues --    0.25514   0.26399   0.26703   0.27286   0.27960
 Alpha virt. eigenvalues --    0.28507   0.29229   0.29450   0.30059   0.30887
 Alpha virt. eigenvalues --    0.31655   0.31743   0.32069   0.32697   0.33086
 Alpha virt. eigenvalues --    0.33590   0.33996   0.34936   0.35299   0.35676
 Alpha virt. eigenvalues --    0.35870   0.36202   0.36640   0.36887   0.37721
 Alpha virt. eigenvalues --    0.38450   0.39200   0.39406   0.40428   0.40868
 Alpha virt. eigenvalues --    0.41099   0.41298   0.42159   0.42216   0.42620
 Alpha virt. eigenvalues --    0.43181   0.43701   0.44135   0.44417   0.44845
 Alpha virt. eigenvalues --    0.45256   0.45771   0.46130   0.46525   0.46955
 Alpha virt. eigenvalues --    0.46995   0.47288   0.48209   0.49241   0.49612
 Alpha virt. eigenvalues --    0.49977   0.50502   0.51654   0.52455   0.52896
 Alpha virt. eigenvalues --    0.53015   0.53736   0.55302   0.56620   0.57301
 Alpha virt. eigenvalues --    0.59080   0.60986   0.61383   0.61570   0.62867
 Alpha virt. eigenvalues --    0.63419   0.64697   0.68031   0.68596   0.69473
 Alpha virt. eigenvalues --    0.71961   0.74888   0.75248   0.75606   0.76014
 Alpha virt. eigenvalues --    0.79274   0.81209   0.81528   0.84478   0.84735
 Alpha virt. eigenvalues --    0.86644   0.87739   0.88619   0.90062   0.90977
 Alpha virt. eigenvalues --    0.92490   0.92947   0.93802   0.94766   0.95897
 Alpha virt. eigenvalues --    0.96737   0.97036   0.97496   0.97912   0.98412
 Alpha virt. eigenvalues --    1.00782   1.01301   1.04476   1.04678   1.06440
 Alpha virt. eigenvalues --    1.06810   1.07071   1.09129   1.09696   1.12399
 Alpha virt. eigenvalues --    1.14340   1.14526   1.15695   1.16623   1.17833
 Alpha virt. eigenvalues --    1.18197   1.18823   1.19704   1.20182   1.21322
 Alpha virt. eigenvalues --    1.21812   1.22168   1.22885   1.23855   1.24902
 Alpha virt. eigenvalues --    1.25539   1.26516   1.28003   1.29607   1.30885
 Alpha virt. eigenvalues --    1.31877   1.33660   1.34766   1.36076   1.36865
 Alpha virt. eigenvalues --    1.37489   1.39296   1.39902   1.41343   1.43458
 Alpha virt. eigenvalues --    1.46325   1.47584   1.48992   1.49684   1.50937
 Alpha virt. eigenvalues --    1.52945   1.56949   1.58696   1.59611   1.60976
 Alpha virt. eigenvalues --    1.62871   1.64114   1.64906   1.66878   1.68177
 Alpha virt. eigenvalues --    1.69210   1.70411   1.70749   1.72623   1.73118
 Alpha virt. eigenvalues --    1.76611   1.76969   1.77637   1.78970   1.81170
 Alpha virt. eigenvalues --    1.84262   1.84469   1.86409   1.87005   1.87866
 Alpha virt. eigenvalues --    1.89363   1.92740   1.96504   1.96609   1.97178
 Alpha virt. eigenvalues --    1.99781   2.01794   2.01984   2.03082   2.03388
 Alpha virt. eigenvalues --    2.04314   2.05265   2.05922   2.06509   2.06864
 Alpha virt. eigenvalues --    2.07332   2.09571   2.10544   2.11349   2.12232
 Alpha virt. eigenvalues --    2.12325   2.12913   2.13674   2.14956   2.15279
 Alpha virt. eigenvalues --    2.16229   2.17176   2.18548   2.20437   2.21082
 Alpha virt. eigenvalues --    2.22099   2.23999   2.25751   2.26008   2.27543
 Alpha virt. eigenvalues --    2.28533   2.28620   2.29982   2.30290   2.30588
 Alpha virt. eigenvalues --    2.31034   2.31925   2.32283   2.32752   2.32820
 Alpha virt. eigenvalues --    2.35350   2.36521   2.38161   2.39038   2.39176
 Alpha virt. eigenvalues --    2.42241   2.43266   2.43909   2.45429   2.46371
 Alpha virt. eigenvalues --    2.49477   2.51101   2.52061   2.52684   2.54347
 Alpha virt. eigenvalues --    2.56222   2.57306   2.59490   2.60035   2.63573
 Alpha virt. eigenvalues --    2.66030   2.66783   2.68370   2.69979   2.71436
 Alpha virt. eigenvalues --    2.72523   2.73858   2.74467   2.78468   2.82740
 Alpha virt. eigenvalues --    2.87812   2.94369   2.94701   2.95170   2.96361
 Alpha virt. eigenvalues --    3.01234   3.02664   3.04962   3.08795   3.09712
 Alpha virt. eigenvalues --    3.13147   3.15283   3.15876   3.20330   3.22723
 Alpha virt. eigenvalues --    3.27907   3.30639   3.31381   3.39111   3.44260
 Alpha virt. eigenvalues --    3.46954   3.60008   3.67970   3.73238   3.81039
 Alpha virt. eigenvalues --    4.54546   4.64990   4.65954   4.69395   4.70864
 Alpha virt. eigenvalues --    4.74783   4.76641   4.80277   4.81369   4.85380
 Alpha virt. eigenvalues --    4.88037   4.91547   4.96949   5.04661   5.16527
 Alpha virt. eigenvalues --    6.32937   6.40990   6.57158   7.71628   9.40912
          Condensed to atoms (all electrons):
               1          2          3          4          5          6
     1  C   24.422577  -0.192781  -1.024929  -0.401980  -0.149907  -0.656528
     2  N   -0.192781   7.648800   0.222142  -0.066694  -0.212723  -0.111248
     3  C   -1.024929   0.222142   6.565856   0.655786   0.229435  -0.525826
     4  O   -0.401980  -0.066694   0.655786   8.303007  -0.135808  -0.078314
     5  N   -0.149907  -0.212723   0.229435  -0.135808   7.494737   0.421056
     6  C   -0.656528  -0.111248  -0.525826  -0.078314   0.421056   6.540900
     7  C    0.012659   0.001559  -0.004455   0.010930  -0.124072  -0.086603
     8  C   -0.005759   0.000628  -0.048699  -0.000544   0.006138  -0.044899
     9  C   -6.856826   0.337296  -0.841199  -0.138327  -0.021561  -0.061324
    10  C   -3.055829   0.163544  -1.028396   0.001512   0.052183  -0.065012
    11  C    0.658596   0.030606   0.032695  -0.002772  -0.023230  -0.005797
    12  C   -1.751765  -0.044968   0.387802   0.167435  -0.000112   0.039220
    13  C   -3.403047  -0.279180   0.536640   0.334101  -0.005798   0.131279
    14  H   -0.086664   0.267902  -0.026062   0.002409   0.017289   0.002813
    15  H    0.008588   0.032173   0.038999   0.002714   0.259661  -0.072256
    16  H    0.009265   0.004239   0.078894  -0.000780  -0.073955   0.374250
    17  H   -0.006507   0.005218   0.021098  -0.008773  -0.038879   0.399666
    18  H    0.004731   0.000077   0.040110  -0.000298  -0.000508  -0.092999
    19  H   -0.004004   0.000089  -0.027375  -0.000272   0.001330  -0.033491
    20  H   -0.000204  -0.000050  -0.009514  -0.000078  -0.000866  -0.027337
    21  H   -0.000007   0.000012   0.001959   0.000013   0.000354   0.052118
    22  H    0.000285   0.000001   0.008257  -0.000042  -0.000620  -0.019497
    23  H    0.138855  -0.009682  -0.002120   0.000052  -0.000260  -0.000360
    24  Cl   0.094350   0.000435   0.019823   0.000080   0.000637   0.001633
    25  H   -0.011414  -0.005904   0.064298  -0.008253   0.000334   0.005879
    26  S   -1.645844   0.015332  -0.069402  -0.000792   0.001706  -0.001481
    27  H   -0.025802   0.000219   0.001076   0.000000   0.000000   0.000006
    28  F   -0.046558  -0.001478  -0.001670  -0.000011   0.000089   0.000026
    29  F   -0.092891   0.000596  -0.003079   0.000000   0.000005  -0.000014
    30  F   -0.030454  -0.001342  -0.002533  -0.000001   0.000097   0.000011
    31  F   -0.091522   0.000557  -0.003607   0.000001   0.000003  -0.000019
    32  F   -0.055178  -0.000007  -0.000491  -0.000000  -0.000000  -0.000002
               7          8          9         10         11         12
     1  C    0.012659  -0.005759  -6.856826  -3.055829   0.658596  -1.751765
     2  N    0.001559   0.000628   0.337296   0.163544   0.030606  -0.044968
     3  C   -0.004455  -0.048699  -0.841199  -1.028396   0.032695   0.387802
     4  O    0.010930  -0.000544  -0.138327   0.001512  -0.002772   0.167435
     5  N   -0.124072   0.006138  -0.021561   0.052183  -0.023230  -0.000112
     6  C   -0.086603  -0.044899  -0.061324  -0.065012  -0.005797   0.039220
     7  C    5.672377   0.220368   0.010193   0.003158   0.001316  -0.001234
     8  C    0.220368   5.402527  -0.000219  -0.000470  -0.000079  -0.000233
     9  C    0.010193  -0.000219  26.834596  -4.406864  -6.786520  -6.019589
    10  C    0.003158  -0.000470  -4.406864  22.163226  -3.042199  -0.470056
    11  C    0.001316  -0.000079  -6.786520  -3.042199  26.463139   0.443525
    12  C   -0.001234  -0.000233  -6.019589  -0.470056   0.443525  15.796500
    13  C   -0.020434  -0.000534   3.042477  -1.822129 -11.886436  -2.148065
    14  H   -0.000894  -0.000078   0.005635   0.063425   0.005335   0.012705
    15  H   -0.001976   0.001862  -0.013147  -0.000773   0.000534   0.001610
    16  H   -0.073348  -0.003537  -0.000048   0.000052   0.000025   0.000010
    17  H   -0.027921  -0.005011   0.000898  -0.000183   0.000112   0.000298
    18  H    0.424949  -0.045245   0.000432   0.000071  -0.000003  -0.000059
    19  H    0.401769  -0.013021   0.000009  -0.000067   0.000006   0.000031
    20  H   -0.030615   0.423599   0.000011  -0.000001   0.000000  -0.000000
    21  H   -0.087418   0.394973  -0.000008   0.000000   0.000000   0.000001
    22  H   -0.025472   0.391986   0.000014   0.000001  -0.000000  -0.000005
    23  H    0.000010  -0.000001   0.107264   0.086958  -0.033672   0.009262
    24  Cl  -0.000047   0.000006  -0.010144  -0.033153   0.196864  -0.481565
    25  H   -0.000118   0.000018  -0.032986  -0.008330   0.084239   0.058430
    26  S    0.000110  -0.000009   1.061208  -0.754694   0.174015  -0.475689
    27  H    0.000000   0.000000   0.043297   0.061428   0.079330   0.054926
    28  F   -0.000003   0.000000   0.258469  -0.204213  -0.264006   0.000990
    29  F    0.000000  -0.000000  -0.181606  -0.160119   0.153109   0.071492
    30  F   -0.000002   0.000000   0.255896  -0.233019  -0.259812   0.006322
    31  F    0.000000  -0.000000  -0.176584  -0.168961   0.150753   0.074992
    32  F    0.000000  -0.000000   0.140845  -0.350235   0.061995  -0.023920
              13         14         15         16         17         18
     1  C   -3.403047  -0.086664   0.008588   0.009265  -0.006507   0.004731
     2  N   -0.279180   0.267902   0.032173   0.004239   0.005218   0.000077
     3  C    0.536640  -0.026062   0.038999   0.078894   0.021098   0.040110
     4  O    0.334101   0.002409   0.002714  -0.000780  -0.008773  -0.000298
     5  N   -0.005798   0.017289   0.259661  -0.073955  -0.038879  -0.000508
     6  C    0.131279   0.002813  -0.072256   0.374250   0.399666  -0.092999
     7  C   -0.020434  -0.000894  -0.001976  -0.073348  -0.027921   0.424949
     8  C   -0.000534  -0.000078   0.001862  -0.003537  -0.005011  -0.045245
     9  C    3.042477   0.005635  -0.013147  -0.000048   0.000898   0.000432
    10  C   -1.822129   0.063425  -0.000773   0.000052  -0.000183   0.000071
    11  C  -11.886436   0.005335   0.000534   0.000025   0.000112  -0.000003
    12  C   -2.148065   0.012705   0.001610   0.000010   0.000298  -0.000059
    13  C   20.754749  -0.003265   0.009409   0.000046  -0.000653  -0.000639
    14  H   -0.003265   0.271220   0.001122   0.000003  -0.000003  -0.000004
    15  H    0.009409   0.001122   0.305705   0.001513   0.002191   0.000387
    16  H    0.000046   0.000003   0.001513   0.512298  -0.033319   0.003437
    17  H   -0.000653  -0.000003   0.002191  -0.033319   0.463977  -0.003145
    18  H   -0.000639  -0.000004   0.000387   0.003437  -0.003145   0.497977
    19  H    0.000169   0.000003   0.001726  -0.003931   0.003120  -0.034301
    20  H   -0.000054   0.000000  -0.000002   0.000078   0.001329  -0.003429
    21  H    0.000022  -0.000000   0.000000  -0.000114  -0.000096  -0.002652
    22  H   -0.000049  -0.000000   0.000006   0.001345   0.000293   0.003245
    23  H    0.002869   0.004547   0.000003  -0.000000  -0.000000   0.000000
    24  Cl   0.033156   0.000027   0.000000  -0.000000  -0.000003   0.000000
    25  H    0.176222  -0.000068  -0.000001  -0.000000  -0.000003  -0.000000
    26  S    0.164322   0.000966  -0.000068  -0.000001  -0.000002   0.000001
    27  H    0.092256  -0.000000  -0.000000  -0.000000  -0.000000   0.000000
    28  F    0.083372   0.000048  -0.000000  -0.000000   0.000000  -0.000000
    29  F   -0.027993  -0.000001  -0.000000  -0.000000  -0.000000   0.000000
    30  F    0.080469   0.000019  -0.000000   0.000000  -0.000000   0.000000
    31  F   -0.028025  -0.000002  -0.000000   0.000000  -0.000000   0.000000
    32  F    0.003943   0.000000  -0.000000   0.000000   0.000000  -0.000000
              19         20         21         22         23         24
     1  C   -0.004004  -0.000204  -0.000007   0.000285   0.138855   0.094350
     2  N    0.000089  -0.000050   0.000012   0.000001  -0.009682   0.000435
     3  C   -0.027375  -0.009514   0.001959   0.008257  -0.002120   0.019823
     4  O   -0.000272  -0.000078   0.000013  -0.000042   0.000052   0.000080
     5  N    0.001330  -0.000866   0.000354  -0.000620  -0.000260   0.000637
     6  C   -0.033491  -0.027337   0.052118  -0.019497  -0.000360   0.001633
     7  C    0.401769  -0.030615  -0.087418  -0.025472   0.000010  -0.000047
     8  C   -0.013021   0.423599   0.394973   0.391986  -0.000001   0.000006
     9  C    0.000009   0.000011  -0.000008   0.000014   0.107264  -0.010144
    10  C   -0.000067  -0.000001   0.000000   0.000001   0.086958  -0.033153
    11  C    0.000006   0.000000   0.000000  -0.000000  -0.033672   0.196864
    12  C    0.000031  -0.000000   0.000001  -0.000005   0.009262  -0.481565
    13  C    0.000169  -0.000054   0.000022  -0.000049   0.002869   0.033156
    14  H    0.000003   0.000000  -0.000000  -0.000000   0.004547   0.000027
    15  H    0.001726  -0.000002   0.000000   0.000006   0.000003   0.000000
    16  H   -0.003931   0.000078  -0.000114   0.001345  -0.000000  -0.000000
    17  H    0.003120   0.001329  -0.000096   0.000293  -0.000000  -0.000003
    18  H   -0.034301  -0.003429  -0.002652   0.003245   0.000000   0.000000
    19  H    0.529026   0.003535  -0.002734  -0.003420  -0.000000  -0.000000
    20  H    0.003535   0.499743  -0.024678  -0.030417  -0.000000  -0.000000
    21  H   -0.002734  -0.024678   0.492893  -0.025354   0.000000   0.000000
    22  H   -0.003420  -0.030417  -0.025354   0.502215   0.000000   0.000000
    23  H   -0.000000  -0.000000   0.000000   0.000000   0.409049   0.000208
    24  Cl  -0.000000  -0.000000   0.000000   0.000000   0.000208  16.935394
    25  H   -0.000000  -0.000000   0.000000  -0.000000  -0.000060  -0.001930
    26  S   -0.000001  -0.000000  -0.000000   0.000000   0.024268  -0.001933
    27  H   -0.000000  -0.000000   0.000000   0.000000  -0.000074  -0.007899
    28  F    0.000000   0.000000  -0.000000  -0.000000  -0.000787  -0.000562
    29  F   -0.000000  -0.000000  -0.000000   0.000000   0.000072  -0.001760
    30  F    0.000000   0.000000  -0.000000   0.000000  -0.000755  -0.000611
    31  F   -0.000000  -0.000000   0.000000   0.000000   0.000075  -0.001731
    32  F   -0.000000  -0.000000   0.000000  -0.000000  -0.000026   0.000096
              25         26         27         28         29         30
     1  C   -0.011414  -1.645844  -0.025802  -0.046558  -0.092891  -0.030454
     2  N   -0.005904   0.015332   0.000219  -0.001478   0.000596  -0.001342
     3  C    0.064298  -0.069402   0.001076  -0.001670  -0.003079  -0.002533
     4  O   -0.008253  -0.000792   0.000000  -0.000011   0.000000  -0.000001
     5  N    0.000334   0.001706   0.000000   0.000089   0.000005   0.000097
     6  C    0.005879  -0.001481   0.000006   0.000026  -0.000014   0.000011
     7  C   -0.000118   0.000110   0.000000  -0.000003   0.000000  -0.000002
     8  C    0.000018  -0.000009   0.000000   0.000000  -0.000000   0.000000
     9  C   -0.032986   1.061208   0.043297   0.258469  -0.181606   0.255896
    10  C   -0.008330  -0.754694   0.061428  -0.204213  -0.160119  -0.233019
    11  C    0.084239   0.174015   0.079330  -0.264006   0.153109  -0.259812
    12  C    0.058430  -0.475689   0.054926   0.000990   0.071492   0.006322
    13  C    0.176222   0.164322   0.092256   0.083372  -0.027993   0.080469
    14  H   -0.000068   0.000966  -0.000000   0.000048  -0.000001   0.000019
    15  H   -0.000001  -0.000068  -0.000000  -0.000000  -0.000000  -0.000000
    16  H   -0.000000  -0.000001  -0.000000  -0.000000  -0.000000   0.000000
    17  H   -0.000003  -0.000002  -0.000000   0.000000  -0.000000  -0.000000
    18  H   -0.000000   0.000001   0.000000  -0.000000   0.000000   0.000000
    19  H   -0.000000  -0.000001  -0.000000   0.000000  -0.000000   0.000000
    20  H   -0.000000  -0.000000  -0.000000   0.000000  -0.000000   0.000000
    21  H    0.000000  -0.000000   0.000000  -0.000000  -0.000000  -0.000000
    22  H   -0.000000   0.000000   0.000000  -0.000000   0.000000   0.000000
    23  H   -0.000060   0.024268  -0.000074  -0.000787   0.000072  -0.000755
    24  Cl  -0.001930  -0.001933  -0.007899  -0.000562  -0.001760  -0.000611
    25  H    0.339983   0.001104  -0.000060   0.000002   0.000001   0.000002
    26  S    0.001104  14.247335   0.027024  -0.020755   0.024948  -0.014653
    27  H   -0.000060   0.027024   0.374596   0.000305  -0.000496   0.000318
    28  F    0.000002  -0.020755   0.000305   9.876751   0.024120   0.015853
    29  F    0.000001   0.024948  -0.000496   0.024120   9.881242  -0.080137
    30  F    0.000002  -0.014653   0.000318   0.015853  -0.080137   9.880043
    31  F    0.000001   0.024372  -0.000442  -0.080298   0.025840   0.025484
    32  F    0.000000   0.151450  -0.000020   0.010363   0.007557   0.010636
              31         32
     1  C   -0.091522  -0.055178
     2  N    0.000557  -0.000007
     3  C   -0.003607  -0.000491
     4  O    0.000001  -0.000000
     5  N    0.000003  -0.000000
     6  C   -0.000019  -0.000002
     7  C    0.000000   0.000000
     8  C   -0.000000  -0.000000
     9  C   -0.176584   0.140845
    10  C   -0.168961  -0.350235
    11  C    0.150753   0.061995
    12  C    0.074992  -0.023920
    13  C   -0.028025   0.003943
    14  H   -0.000002   0.000000
    15  H   -0.000000  -0.000000
    16  H    0.000000   0.000000
    17  H   -0.000000   0.000000
    18  H    0.000000  -0.000000
    19  H   -0.000000  -0.000000
    20  H   -0.000000  -0.000000
    21  H    0.000000   0.000000
    22  H    0.000000  -0.000000
    23  H    0.000075  -0.000026
    24  Cl  -0.001731   0.000096
    25  H    0.000001   0.000000
    26  S    0.024372   0.151450
    27  H   -0.000442  -0.000020
    28  F   -0.080298   0.010363
    29  F    0.025840   0.007557
    30  F    0.025484   0.010636
    31  F    9.881348   0.008476
    32  F    0.008476   9.666327
 Mulliken charges:
               1
     1  C    0.246492
     2  N   -0.805366
     3  C    0.714483
     4  O   -0.634303
     5  N   -0.696754
     6  C   -0.085850
     7  C   -0.274787
     8  C   -0.673770
     9  C   -0.551589
    10  C   -0.790855
    11  C   -0.231667
    12  C    0.291708
    13  C    0.180798
    14  H    0.461574
    15  H    0.420018
    16  H    0.203576
    17  H    0.226297
    18  H    0.207867
    19  H    0.181805
    20  H    0.198951
    21  H    0.200717
    22  H    0.197228
    23  H    0.264304
    24  Cl   0.258627
    25  H    0.338613
    26  S    3.067161
    27  H    0.300011
    28  F   -0.650049
    29  F   -0.640887
    30  F   -0.651831
    31  F   -0.640712
    32  F   -0.631811
 Sum of Mulliken charges =  -0.00000
 Mulliken charges with hydrogens summed into heavy atoms:
               1
     1  C    0.246492
     2  N   -0.343792
     3  C    0.714483
     4  O   -0.634303
     5  N   -0.276736
     6  C    0.344023
     7  C    0.114885
     8  C   -0.076874
     9  C   -0.287284
    10  C   -0.790855
    11  C    0.068344
    12  C    0.291708
    13  C    0.519411
    24  Cl   0.258627
    26  S    3.067161
    28  F   -0.650049
    29  F   -0.640887
    30  F   -0.651831
    31  F   -0.640712
    32  F   -0.631811
 Electronic spatial extent (au):  <R**2>=          10525.4109
 Charge=              0.0000 electrons
 Dipole moment (field-independent basis, Debye):
    X=             -5.1719    Y=             -3.4384    Z=             -0.9385  Tot=              6.2810
 Quadrupole moment (field-independent basis, Debye-Ang):
   XX=           -126.0180   YY=           -133.8976   ZZ=           -134.1632
   XY=             19.1046   XZ=              3.5000   YZ=              0.7779
 Traceless Quadrupole moment (field-independent basis, Debye-Ang):
   XX=              5.3416   YY=             -2.5380   ZZ=             -2.8036
   XY=             19.1046   XZ=              3.5000   YZ=              0.7779
 Octapole moment (field-independent basis, Debye-Ang**2):
  XXX=            -52.2296  YYY=            -54.4234  ZZZ=              0.9834  XYY=             22.7146
  XXY=            -36.6124  XXZ=            -10.9932  XZZ=             25.8162  YZZ=            -11.5527
  YYZ=             -3.1998  XYZ=             -3.0300
 Hexadecapole moment (field-independent basis, Debye-Ang**3):
 XXXX=          -9991.3204 YYYY=          -2360.7665 ZZZZ=           -309.5497 XXXY=            163.7780
 XXXZ=             32.5808 YYYX=            -85.7516 YYYZ=              5.6366 ZZZX=              2.1080
 ZZZY=              0.9252 XXYY=          -2163.6972 XXZZ=          -1813.5497 YYZZ=           -456.9963
 XXYZ=             13.9857 YYXZ=             13.3906 ZZXY=            -47.8157
 N-N= 2.000462710075D+03 E-N=-8.554345546888D+03  KE= 1.919849509473D+03
 1\1\GINC-R4052\SP\RMP2-FC\Gen\C10H12Cl1F5N2O1S1\ROOT\30-Nov-2019\0\\# 
 MP2/Gen 6D SCF=Tight INT(grid=ultrafine) maxdisk=3489660928\\CP22_c2.M
 P2_6-31pGd\\0,1\C,0,-5.9286419743,1.4199467089,0.3515334142\N,0,-4.701
 2333765,0.7531887212,0.360255731\C,0,-3.4537066723,1.2828126907,0.0351
 216639\O,0,-3.2844584977,2.4223218776,-0.3386736204\N,0,-2.4358024631,
 0.3732090485,0.1525047662\C,0,-1.0621254658,0.8171195865,-0.0512339121
 \C,0,-0.1206670757,-0.37696707,-0.1048904808\C,0,1.3240131,0.060042014
 5,-0.3257606922\C,0,-7.0724701868,0.6452797662,0.5758402703\C,0,-8.308
 1775427,1.2611512814,0.5973993595\C,0,-8.4775023079,2.6224656316,0.406
 7512601\C,0,-7.3253615959,3.3639953635,0.1870175277\C,0,-6.058603763,2
 .7985742413,0.154959807\H,0,-4.7552337412,-0.2479610642,0.4726093448\H
 ,0,-2.5667442108,-0.4195011013,0.7641340313\H,0,-0.7600056162,1.511742
 9626,0.7413172028\H,0,-1.0311635228,1.3730699919,-0.9895662463\H,0,-0.
 4413969769,-1.0477241525,-0.9074073986\H,0,-0.1926109378,-0.944248844,
 0.8307251471\H,0,1.4282518422,0.6079313839,-1.2651417863\H,0,1.9951652
 794,-0.7989997389,-0.3654469727\H,0,1.6666872168,0.7136591306,0.479883
 0046\H,0,-6.9894210667,-0.42330085,0.7316570649\Cl,0,-7.4759037931,5.0
 781374192,-0.0585301882\H,0,-5.189923162,3.41192628,-0.0272143493\S,0,
 -9.7734808973,0.239315602,0.889450972\H,0,-9.4508298994,3.0919793099,0
 .4253871198\F,0,-9.0631115854,-0.5508785474,2.1088463591\F,0,-10.38888
 24641,1.3005835649,1.936680045\F,0,-9.2643450051,-0.9044361955,-0.1339
 815401\F,0,-10.58962819,0.9474200674,-0.3078211058\F,0,-11.071305448,-
 0.6694750804,1.1490042015\\Version=ES64L-G09RevE.01\State=1-A\HF=-1923
 .5178256\MP2=-1926.5182363\RMSD=5.490e-09\PG=C01 [X(C10H12Cl1F5N2O1S1)
 ]\\@


 DEPRESSION IS WAITING FOR YOUR SHIP TO COME IN,
 AND FINDING OUT IT'S THE TITANIC.
 Job cpu time:       0 days  0 hours 19 minutes 45.2 seconds.
 File lengths (MBytes):  RWF=     93 Int=      0 D2E=      0 Chk=     11 Scr=      1
 Normal termination of Gaussian 09 at Sat Nov 30 15:09:49 2019.
pbs_rusage has been removed.
Please contact help@nci.org.au if you require this functionality.
