 Entering Gaussian System, Link 0=/apps/gaussian/g09e01/g09/g09
 Initial command:
 /apps/gaussian/g09e01/g09/l1.exe "/jobfs/local/3579087.r-man2/Gau-53254.inp" -scrdir="/jobfs/local/3579087.r-man2/"
 Entering Link 1 = /apps/gaussian/g09e01/g09/l1.exe PID=     53255.
  
 Copyright (c) 1988,1990,1992,1993,1995,1998,2003,2009,2015,
            Gaussian, Inc.  All Rights Reserved.
  
 This is part of the Gaussian(R) 09 program.  It is based on
 the Gaussian(R) 03 system (copyright 2003, Gaussian, Inc.),
 the Gaussian(R) 98 system (copyright 1998, Gaussian, Inc.),
 the Gaussian(R) 94 system (copyright 1995, Gaussian, Inc.),
 the Gaussian 92(TM) system (copyright 1992, Gaussian, Inc.),
 the Gaussian 90(TM) system (copyright 1990, Gaussian, Inc.),
 the Gaussian 88(TM) system (copyright 1988, Gaussian, Inc.),
 the Gaussian 86(TM) system (copyright 1986, Carnegie Mellon
 University), and the Gaussian 82(TM) system (copyright 1983,
 Carnegie Mellon University). Gaussian is a federally registered
 trademark of Gaussian, Inc.
  
 This software contains proprietary and confidential information,
 including trade secrets, belonging to Gaussian, Inc.
  
 This software is provided under written license and may be
 used, copied, transmitted, or stored only in accord with that
 written license.
  
 The following legend is applicable only to US Government
 contracts under FAR:
  
                    RESTRICTED RIGHTS LEGEND
  
 Use, reproduction and disclosure by the US Government is
 subject to restrictions as set forth in subparagraphs (a)
 and (c) of the Commercial Computer Software - Restricted
 Rights clause in FAR 52.227-19.
  
 Gaussian, Inc.
 340 Quinnipiac St., Bldg. 40, Wallingford CT 06492
  
  
 ---------------------------------------------------------------
 Warning -- This program may not be used in any manner that
 competes with the business of Gaussian, Inc. or will provide
 assistance to any competitor of Gaussian, Inc.  The licensee
 of this program is prohibited from giving any competitor of
 Gaussian, Inc. access to this program.  By using this program,
 the user acknowledges that Gaussian, Inc. is engaged in the
 business of creating and licensing software in the field of
 computational chemistry and represents and warrants to the
 licensee that it is not a competitor of Gaussian, Inc. and that
 it will not use this program in any manner prohibited above.
 ---------------------------------------------------------------
  

 Cite this work as:
 Gaussian 09, Revision E.01,
 M. J. Frisch, G. W. Trucks, H. B. Schlegel, G. E. Scuseria, 
 M. A. Robb, J. R. Cheeseman, G. Scalmani, V. Barone, B. Mennucci, 
 G. A. Petersson, H. Nakatsuji, M. Caricato, X. Li, H. P. Hratchian, 
 A. F. Izmaylov, J. Bloino, G. Zheng, J. L. Sonnenberg, M. Hada, 
 M. Ehara, K. Toyota, R. Fukuda, J. Hasegawa, M. Ishida, T. Nakajima, 
 Y. Honda, O. Kitao, H. Nakai, T. Vreven, J. A. Montgomery, Jr., 
 J. E. Peralta, F. Ogliaro, M. Bearpark, J. J. Heyd, E. Brothers, 
 K. N. Kudin, V. N. Staroverov, T. Keith, R. Kobayashi, J. Normand, 
 K. Raghavachari, A. Rendell, J. C. Burant, S. S. Iyengar, J. Tomasi, 
 M. Cossi, N. Rega, J. M. Millam, M. Klene, J. E. Knox, J. B. Cross, 
 V. Bakken, C. Adamo, J. Jaramillo, R. Gomperts, R. E. Stratmann, 
 O. Yazyev, A. J. Austin, R. Cammi, C. Pomelli, J. W. Ochterski, 
 R. L. Martin, K. Morokuma, V. G. Zakrzewski, G. A. Voth, 
 P. Salvador, J. J. Dannenberg, S. Dapprich, A. D. Daniels, 
 O. Farkas, J. B. Foresman, J. V. Ortiz, J. Cioslowski, 
 and D. J. Fox, Gaussian, Inc., Wallingford CT, 2013.
 
 ******************************************
 Gaussian 09:  ES64L-G09RevE.01 30-Nov-2015
                14-Nov-2019 
 ******************************************
 %chk=CP22.M062X_6-311pGd_opt_water_GD3.chk
 %mem=196608000
 %nproc=4
 Will use up to    4 processors via shared memory.
 ----------------------------------------------------------------------
 # M062X/6-311+G* SCF=Tight INT(grid=ultrafine) OPT IOP(2/17=4) Empiric
 alDispersion=GD3 SCRF=(SMD,Solvent=h2o) maxdisk=2684354560
 ----------------------------------------------------------------------
 1/14=-1,18=20,19=15,26=4,38=1/1,3;
 2/9=110,12=2,17=4,18=5,40=1/2;
 3/5=4,6=6,7=11,11=2,16=1,25=1,30=1,70=32201,71=1,72=1,74=-55,75=-5,124=31/1,2,3;
 4//1;
 5/5=2,32=2,38=5,53=1/2;
 6/7=2,8=2,9=2,10=2,28=1/1;
 7//1,2,3,16;
 1/14=-1,18=20,19=15,26=4/3(2);
 2/9=110,17=4/2;
 99//99;
 2/9=110,17=4/2;
 3/5=4,6=6,7=11,11=2,16=1,25=1,30=1,70=32205,71=1,72=1,74=-55,75=-5,124=31/1,2,3;
 4/5=5,16=3,69=1/1;
 5/5=2,32=2,38=5,53=1/2;
 7//1,2,3,16;
 1/14=-1,18=20,19=15,26=4/3(-5);
 2/9=110,17=4/2;
 6/7=2,8=2,9=2,10=2,19=2,28=1/1;
 99/9=1/99;
 ---------------------------------
 CP22.M062X_6-311pGd_opt_water_GD3
 ---------------------------------
 Symbolic Z-matrix:
 Charge =  0 Multiplicity = 1
 C                    -5.93055   1.20859   0.1459 
 N                    -4.68972   0.6142   -0.06698 
 C                    -3.44867   1.21659   0.05642 
 O                    -3.30968   2.40826   0.33741 
 N                    -2.40446   0.39444  -0.16714 
 C                    -1.03688   0.85156   0.05314 
 C                    -0.0499   -0.25861  -0.26576 
 C                     1.38372   0.19837  -0.02558 
 C                    -6.1391    2.59081   0.09679 
 C                    -7.42538   3.05928   0.30368 
 C                    -8.52607   2.25333   0.54044 
 C                    -8.2809    0.88667   0.56465 
 C                    -7.0176    0.35719   0.37886 
 H                    -4.70238  -0.39415  -0.1619 
 H                    -2.56341  -0.59656  -0.29477 
 H                    -0.91883   1.17455   1.09232 
 H                    -0.84538   1.71954  -0.58235 
 H                    -0.17718  -0.56654  -1.30799 
 H                    -0.27413  -1.13107   0.3563 
 H                     1.63048   1.06074  -0.65022 
 H                     2.09407  -0.59708  -0.258 
 H                     1.53403   0.48689   1.01791 
 H                    -5.31926   3.26114  -0.10483 
 Cl                   -9.61471  -0.19738   0.85041 
 H                    -6.8636   -0.71549   0.41367 
 S                    -7.6824    4.84865   0.25044 
 H                    -9.52133   2.64666   0.69693 
 F                    -6.79167   5.02591  -1.08743 
 F                    -9.01291   4.71716  -0.65951 
 F                    -6.37753   5.15187   1.15548 
 F                    -8.5992    4.84278   1.58296 
 F                    -7.91422   6.4498    0.20348 
 

 GradGradGradGradGradGradGradGradGradGradGradGradGradGradGradGradGradGrad
 Berny optimization.
 Initialization pass.
                           ----------------------------
                           !    Initial Parameters    !
                           ! (Angstroms and Degrees)  !
 --------------------------                            --------------------------
 ! Name  Definition              Value          Derivative Info.                !
 --------------------------------------------------------------------------------
 ! R1    R(1,2)                  1.3922         estimate D2E/DX2                !
 ! R2    R(1,9)                  1.3987         estimate D2E/DX2                !
 ! R3    R(1,13)                 1.4003         estimate D2E/DX2                !
 ! R4    R(2,3)                  1.385          estimate D2E/DX2                !
 ! R5    R(2,14)                 1.0129         estimate D2E/DX2                !
 ! R6    R(3,4)                  1.2322         estimate D2E/DX2                !
 ! R7    R(3,5)                  1.3477         estimate D2E/DX2                !
 ! R8    R(5,6)                  1.4587         estimate D2E/DX2                !
 ! R9    R(5,15)                 1.0118         estimate D2E/DX2                !
 ! R10   R(6,7)                  1.5193         estimate D2E/DX2                !
 ! R11   R(6,16)                 1.0946         estimate D2E/DX2                !
 ! R12   R(6,17)                 1.0927         estimate D2E/DX2                !
 ! R13   R(7,8)                  1.5237         estimate D2E/DX2                !
 ! R14   R(7,18)                 1.0942         estimate D2E/DX2                !
 ! R15   R(7,19)                 1.0947         estimate D2E/DX2                !
 ! R16   R(8,20)                 1.093          estimate D2E/DX2                !
 ! R17   R(8,21)                 1.0915         estimate D2E/DX2                !
 ! R18   R(8,22)                 1.093          estimate D2E/DX2                !
 ! R19   R(9,10)                 1.3845         estimate D2E/DX2                !
 ! R20   R(9,23)                 1.078          estimate D2E/DX2                !
 ! R21   R(10,11)                1.3846         estimate D2E/DX2                !
 ! R22   R(10,26)                1.8085         estimate D2E/DX2                !
 ! R23   R(11,12)                1.3887         estimate D2E/DX2                !
 ! R24   R(11,27)                1.0816         estimate D2E/DX2                !
 ! R25   R(12,13)                1.3823         estimate D2E/DX2                !
 ! R26   R(12,24)                1.7424         estimate D2E/DX2                !
 ! R27   R(13,25)                1.0842         estimate D2E/DX2                !
 ! R28   R(26,28)                1.617          estimate D2E/DX2                !
 ! R29   R(26,29)                1.6173         estimate D2E/DX2                !
 ! R30   R(26,30)                1.6167         estimate D2E/DX2                !
 ! R31   R(26,31)                1.6175         estimate D2E/DX2                !
 ! R32   R(26,32)                1.6185         estimate D2E/DX2                !
 ! A1    A(2,1,9)              123.327          estimate D2E/DX2                !
 ! A2    A(2,1,13)             117.2411         estimate D2E/DX2                !
 ! A3    A(9,1,13)             119.4022         estimate D2E/DX2                !
 ! A4    A(1,2,3)              126.8194         estimate D2E/DX2                !
 ! A5    A(1,2,14)             115.3542         estimate D2E/DX2                !
 ! A6    A(3,2,14)             116.9065         estimate D2E/DX2                !
 ! A7    A(2,3,4)              122.8204         estimate D2E/DX2                !
 ! A8    A(2,3,5)              114.4666         estimate D2E/DX2                !
 ! A9    A(4,3,5)              122.7109         estimate D2E/DX2                !
 ! A10   A(3,5,6)              120.6772         estimate D2E/DX2                !
 ! A11   A(3,5,15)             119.7837         estimate D2E/DX2                !
 ! A12   A(6,5,15)             118.2481         estimate D2E/DX2                !
 ! A13   A(5,6,7)              110.3877         estimate D2E/DX2                !
 ! A14   A(5,6,16)             109.691          estimate D2E/DX2                !
 ! A15   A(5,6,17)             108.9911         estimate D2E/DX2                !
 ! A16   A(7,6,16)             110.1712         estimate D2E/DX2                !
 ! A17   A(7,6,17)             110.1525         estimate D2E/DX2                !
 ! A18   A(16,6,17)            107.3885         estimate D2E/DX2                !
 ! A19   A(6,7,8)              111.0371         estimate D2E/DX2                !
 ! A20   A(6,7,18)             109.2686         estimate D2E/DX2                !
 ! A21   A(6,7,19)             109.2695         estimate D2E/DX2                !
 ! A22   A(8,7,18)             110.12           estimate D2E/DX2                !
 ! A23   A(8,7,19)             110.0091         estimate D2E/DX2                !
 ! A24   A(18,7,19)            107.0456         estimate D2E/DX2                !
 ! A25   A(7,8,20)             111.035          estimate D2E/DX2                !
 ! A26   A(7,8,21)             111.1116         estimate D2E/DX2                !
 ! A27   A(7,8,22)             111.041          estimate D2E/DX2                !
 ! A28   A(20,8,21)            107.8398         estimate D2E/DX2                !
 ! A29   A(20,8,22)            107.8344         estimate D2E/DX2                !
 ! A30   A(21,8,22)            107.828          estimate D2E/DX2                !
 ! A31   A(1,9,10)             117.8821         estimate D2E/DX2                !
 ! A32   A(1,9,23)             120.5076         estimate D2E/DX2                !
 ! A33   A(10,9,23)            121.6083         estimate D2E/DX2                !
 ! A34   A(9,10,11)            124.5522         estimate D2E/DX2                !
 ! A35   A(9,10,26)            117.5433         estimate D2E/DX2                !
 ! A36   A(11,10,26)           117.9035         estimate D2E/DX2                !
 ! A37   A(10,11,12)           115.8163         estimate D2E/DX2                !
 ! A38   A(10,11,27)           122.9957         estimate D2E/DX2                !
 ! A39   A(12,11,27)           121.188          estimate D2E/DX2                !
 ! A40   A(11,12,13)           122.4094         estimate D2E/DX2                !
 ! A41   A(11,12,24)           118.686          estimate D2E/DX2                !
 ! A42   A(13,12,24)           118.9033         estimate D2E/DX2                !
 ! A43   A(1,13,12)            119.9291         estimate D2E/DX2                !
 ! A44   A(1,13,25)            119.7762         estimate D2E/DX2                !
 ! A45   A(12,13,25)           120.2947         estimate D2E/DX2                !
 ! A46   A(10,26,28)            93.1263         estimate D2E/DX2                !
 ! A47   A(10,26,29)            93.0401         estimate D2E/DX2                !
 ! A48   A(10,26,30)            93.1177         estimate D2E/DX2                !
 ! A49   A(10,26,31)            93.021          estimate D2E/DX2                !
 ! A50   A(28,26,29)            89.8041         estimate D2E/DX2                !
 ! A51   A(28,26,30)            89.8857         estimate D2E/DX2                !
 ! A52   A(28,26,32)            86.9306         estimate D2E/DX2                !
 ! A53   A(29,26,31)            89.823          estimate D2E/DX2                !
 ! A54   A(29,26,32)            86.9201         estimate D2E/DX2                !
 ! A55   A(30,26,31)            89.8271         estimate D2E/DX2                !
 ! A56   A(30,26,32)            86.922          estimate D2E/DX2                !
 ! A57   A(31,26,32)            86.922          estimate D2E/DX2                !
 ! A58   L(10,26,32,28,-1)     180.0569         estimate D2E/DX2                !
 ! A59   L(28,26,31,10,-1)     186.1473         estimate D2E/DX2                !
 ! A60   L(29,26,30,10,-1)     186.1578         estimate D2E/DX2                !
 ! A61   L(10,26,32,28,-2)     179.9601         estimate D2E/DX2                !
 ! A62   L(28,26,31,10,-2)     180.0471         estimate D2E/DX2                !
 ! A63   L(29,26,30,10,-2)     180.0256         estimate D2E/DX2                !
 ! D1    D(9,1,2,3)             21.5013         estimate D2E/DX2                !
 ! D2    D(9,1,2,14)          -169.8934         estimate D2E/DX2                !
 ! D3    D(13,1,2,3)          -160.4967         estimate D2E/DX2                !
 ! D4    D(13,1,2,14)            8.1087         estimate D2E/DX2                !
 ! D5    D(2,1,9,10)           178.9207         estimate D2E/DX2                !
 ! D6    D(2,1,9,23)            -0.5677         estimate D2E/DX2                !
 ! D7    D(13,1,9,10)            0.9597         estimate D2E/DX2                !
 ! D8    D(13,1,9,23)         -178.5287         estimate D2E/DX2                !
 ! D9    D(2,1,13,12)         -178.4254         estimate D2E/DX2                !
 ! D10   D(2,1,13,25)            1.6395         estimate D2E/DX2                !
 ! D11   D(9,1,13,12)           -0.3415         estimate D2E/DX2                !
 ! D12   D(9,1,13,25)          179.7234         estimate D2E/DX2                !
 ! D13   D(1,2,3,4)             -2.5951         estimate D2E/DX2                !
 ! D14   D(1,2,3,5)            177.9299         estimate D2E/DX2                !
 ! D15   D(14,2,3,4)          -171.0459         estimate D2E/DX2                !
 ! D16   D(14,2,3,5)             9.479          estimate D2E/DX2                !
 ! D17   D(2,3,5,6)           -173.9942         estimate D2E/DX2                !
 ! D18   D(2,3,5,15)            -7.1956         estimate D2E/DX2                !
 ! D19   D(4,3,5,6)              6.5302         estimate D2E/DX2                !
 ! D20   D(4,3,5,15)           173.3287         estimate D2E/DX2                !
 ! D21   D(3,5,6,7)            179.8542         estimate D2E/DX2                !
 ! D22   D(3,5,6,16)            58.2719         estimate D2E/DX2                !
 ! D23   D(3,5,6,17)           -59.0408         estimate D2E/DX2                !
 ! D24   D(15,5,6,7)            12.8575         estimate D2E/DX2                !
 ! D25   D(15,5,6,16)         -108.7249         estimate D2E/DX2                !
 ! D26   D(15,5,6,17)          133.9624         estimate D2E/DX2                !
 ! D27   D(5,6,7,8)           -179.3648         estimate D2E/DX2                !
 ! D28   D(5,6,7,18)            58.9755         estimate D2E/DX2                !
 ! D29   D(5,6,7,19)           -57.8432         estimate D2E/DX2                !
 ! D30   D(16,6,7,8)           -58.0672         estimate D2E/DX2                !
 ! D31   D(16,6,7,18)         -179.7269         estimate D2E/DX2                !
 ! D32   D(16,6,7,19)           63.4544         estimate D2E/DX2                !
 ! D33   D(17,6,7,8)            60.2241         estimate D2E/DX2                !
 ! D34   D(17,6,7,18)          -61.4356         estimate D2E/DX2                !
 ! D35   D(17,6,7,19)         -178.2543         estimate D2E/DX2                !
 ! D36   D(6,7,8,20)           -59.7594         estimate D2E/DX2                !
 ! D37   D(6,7,8,21)          -179.781          estimate D2E/DX2                !
 ! D38   D(6,7,8,22)            60.2083         estimate D2E/DX2                !
 ! D39   D(18,7,8,20)           61.4012         estimate D2E/DX2                !
 ! D40   D(18,7,8,21)          -58.6204         estimate D2E/DX2                !
 ! D41   D(18,7,8,22)         -178.6311         estimate D2E/DX2                !
 ! D42   D(19,7,8,20)          179.153          estimate D2E/DX2                !
 ! D43   D(19,7,8,21)           59.1314         estimate D2E/DX2                !
 ! D44   D(19,7,8,22)          -60.8792         estimate D2E/DX2                !
 ! D45   D(1,9,10,11)           -0.8209         estimate D2E/DX2                !
 ! D46   D(1,9,10,26)          179.5539         estimate D2E/DX2                !
 ! D47   D(23,9,10,11)         178.6615         estimate D2E/DX2                !
 ! D48   D(23,9,10,26)          -0.9637         estimate D2E/DX2                !
 ! D49   D(9,10,11,12)           0.0195         estimate D2E/DX2                !
 ! D50   D(9,10,11,27)        -179.8721         estimate D2E/DX2                !
 ! D51   D(26,10,11,12)        179.6435         estimate D2E/DX2                !
 ! D52   D(26,10,11,27)         -0.2481         estimate D2E/DX2                !
 ! D53   D(9,10,26,28)          45.2269         estimate D2E/DX2                !
 ! D54   D(9,10,26,29)         135.1967         estimate D2E/DX2                !
 ! D55   D(9,10,26,30)         -44.829          estimate D2E/DX2                !
 ! D56   D(9,10,26,31)        -134.8202         estimate D2E/DX2                !
 ! D57   D(11,10,26,28)       -134.4238         estimate D2E/DX2                !
 ! D58   D(11,10,26,29)        -44.4541         estimate D2E/DX2                !
 ! D59   D(11,10,26,30)        135.5203         estimate D2E/DX2                !
 ! D60   D(11,10,26,31)         45.5291         estimate D2E/DX2                !
 ! D61   D(10,11,12,13)          0.6547         estimate D2E/DX2                !
 ! D62   D(10,11,12,24)       -179.7611         estimate D2E/DX2                !
 ! D63   D(27,11,12,13)       -179.4515         estimate D2E/DX2                !
 ! D64   D(27,11,12,24)          0.1326         estimate D2E/DX2                !
 ! D65   D(11,12,13,1)          -0.5007         estimate D2E/DX2                !
 ! D66   D(11,12,13,25)        179.434          estimate D2E/DX2                !
 ! D67   D(24,12,13,1)         179.916          estimate D2E/DX2                !
 ! D68   D(24,12,13,25)         -0.1493         estimate D2E/DX2                !
 --------------------------------------------------------------------------------
 Trust Radius=3.00D-01 FncErr=1.00D-07 GrdErr=1.00D-06
 Number of steps in this run=    173 maximum allowed number of steps=    192.
 GradGradGradGradGradGradGradGradGradGradGradGradGradGradGradGradGradGrad

                          Input orientation:                          
 ---------------------------------------------------------------------
 Center     Atomic      Atomic             Coordinates (Angstroms)
 Number     Number       Type             X           Y           Z
 ---------------------------------------------------------------------
      1          6           0       -5.930552    1.208595    0.145903
      2          7           0       -4.689716    0.614198   -0.066984
      3          6           0       -3.448668    1.216591    0.056422
      4          8           0       -3.309682    2.408262    0.337414
      5          7           0       -2.404456    0.394444   -0.167140
      6          6           0       -1.036879    0.851557    0.053141
      7          6           0       -0.049897   -0.258610   -0.265758
      8          6           0        1.383715    0.198371   -0.025577
      9          6           0       -6.139100    2.590814    0.096790
     10          6           0       -7.425385    3.059281    0.303680
     11          6           0       -8.526068    2.253328    0.540438
     12          6           0       -8.280901    0.886669    0.564649
     13          6           0       -7.017602    0.357190    0.378860
     14          1           0       -4.702379   -0.394151   -0.161905
     15          1           0       -2.563408   -0.596563   -0.294770
     16          1           0       -0.918831    1.174551    1.092321
     17          1           0       -0.845377    1.719538   -0.582352
     18          1           0       -0.177181   -0.566540   -1.307989
     19          1           0       -0.274135   -1.131066    0.356295
     20          1           0        1.630476    1.060742   -0.650224
     21          1           0        2.094072   -0.597080   -0.258002
     22          1           0        1.534029    0.486893    1.017913
     23          1           0       -5.319265    3.261140   -0.104834
     24         17           0       -9.614710   -0.197379    0.850415
     25          1           0       -6.863601   -0.715490    0.413668
     26         16           0       -7.682395    4.848653    0.250435
     27          1           0       -9.521332    2.646665    0.696933
     28          9           0       -6.791666    5.025910   -1.087426
     29          9           0       -9.012915    4.717161   -0.659511
     30          9           0       -6.377528    5.151874    1.155475
     31          9           0       -8.599203    4.842778    1.582957
     32          9           0       -7.914222    6.449795    0.203482
 ---------------------------------------------------------------------
                    Distance matrix (angstroms):
                    1          2          3          4          5
     1  C    0.000000
     2  N    1.392229   0.000000
     3  C    2.483509   1.385028   0.000000
     4  O    2.888743   2.299281   1.232215   0.000000
     5  N    3.632381   2.297985   1.347696   2.264833   0.000000
     6  C    4.907557   3.662511   2.439260   2.769435   1.458679
     7  C    6.074887   4.725381   3.719094   4.254670   2.445435
     8  C    7.385693   6.087790   4.939173   5.200322   3.795883
     9  C    1.398726   2.456531   3.021348   2.845494   4.340653
    10  C    2.384210   3.687778   4.389865   4.167010   5.703749
    11  C    2.825568   4.215840   5.204718   5.222635   6.436634
    12  C    2.408968   3.656476   4.870074   5.203836   5.942256
    13  C    1.400299   2.384090   3.685081   4.237604   4.645494
    14  H    2.042535   1.012887   2.052790   3.168982   2.429477
    15  H    3.845835   2.457441   2.048059   3.159992   1.011756
    16  H    5.100413   3.984665   2.734033   2.794297   2.098069
    17  H    5.162405   4.033153   2.727291   2.719027   2.087822
    18  H    6.194044   4.826718   3.967846   4.622700   2.680631
    19  H    6.124813   4.766809   3.959682   4.662804   2.671972
    20  H    7.604263   6.362734   5.130433   5.215016   4.118009
    21  H    8.235180   6.893726   5.840396   6.211855   4.607399
    22  H    7.549916   6.318877   5.126812   5.255119   4.113948
    23  H    2.156266   2.721041   2.775845   2.227422   4.088757
    24  Cl   4.005761   5.075022   6.375720   6.841485   7.305712
    25  H    2.155082   2.593236   3.939838   4.732228   4.631767
    26  S    4.041028   5.194949   5.581573   5.008363   6.918886
    27  H    3.907094   5.297075   6.271572   6.226612   7.514589
    28  F    4.102988   4.992264   5.195665   4.583281   6.445542
    29  F    4.739165   5.989611   6.612669   6.233116   7.912018
    30  F    4.094933   4.993357   5.027186   4.196226   6.337803
    31  F    4.732242   5.990599   6.481323   5.954602   7.824666
    32  F    5.604324   6.672689   6.881077   6.128109   8.195252
                    6          7          8          9         10
     6  C    0.000000
     7  C    1.519309   0.000000
     8  C    2.508411   1.523734   0.000000
     9  C    5.390694   6.732685   7.895031   0.000000
    10  C    6.763861   8.107433   9.267872   1.384483   0.000000
    11  C    7.634814   8.877233  10.136421   2.451191   1.384601
    12  C    7.262144   8.351687   9.707056   2.776745   2.349523
    13  C    6.009954   7.024504   8.412546   2.416693   2.733721
    14  H    3.877361   4.655614   6.116389   3.322816   4.422412
    15  H    2.132695   2.536294   4.035365   4.806065   6.112459
    16  H    1.094603   2.157169   2.739406   5.499827   6.819780
    17  H    1.092664   2.155479   2.755503   5.407760   6.773217
    18  H    2.145403   1.094197   2.160108   6.891065   8.263202
    19  H    2.145804   1.094720   2.159096   6.951083   8.288676
    20  H    2.766452   2.170751   1.093050   7.953959   9.322698
    21  H    3.463843   2.170536   1.091499   8.835930  10.212958
    22  H    2.770078   2.170809   1.093029   8.009486   9.348712
    23  H    4.916286   6.338830   7.369991   1.078016   2.154849
    24  Cl   8.678427   9.629913  11.040351   4.519052   3.962057
    25  H    6.044527   6.862719   8.309410   3.399552   3.817930
    26  S    7.757486   9.198131  10.192922   2.739198   1.808519
    27  H    8.696139   9.953666  11.199831   3.435518   2.172072
    28  F    7.200256   8.605390   9.553508   2.785301   2.490865
    29  F    8.892014  10.259094  11.353909   3.654059   2.489288
    30  F    6.944811   8.445837   9.282725   2.781491   2.490483
    31  F    8.686710  10.125835  11.127289   3.651321   2.489028
    32  F    8.869088  10.347487  11.206445   4.249021   3.427038
                   11         12         13         14         15
    11  C    0.000000
    12  C    1.388687   0.000000
    13  C    2.428357   1.382313   0.000000
    14  H    4.703513   3.869652   2.493431   0.000000
    15  H    6.661289   5.968945   4.604701   2.152631   0.000000
    16  H    7.703142   7.386569   6.194523   4.283590   2.786665
    17  H    7.780656   7.569433   6.393456   4.418249   2.898043
    18  H    9.004014   8.443274   7.105639   4.671257   2.592604
    19  H    8.920899   8.259720   6.905778   4.518951   2.439334
    20  H   10.295403   9.987072   8.737462   6.516151   4.523457
    21  H   11.024959  10.512770   9.183617   6.800159   4.657625
    22  H   10.225158   9.833521   8.576457   6.407886   4.436892
    23  H    3.422813   3.854557   3.398710   3.707419   4.744754
    24  Cl   2.699480   1.742374   2.697199   5.019413   7.154835
    25  H    3.404960   2.144399   1.084237   2.259518   4.359781
    26  S    2.744375   4.019236   4.542211   6.044627   7.493441
    27  H    1.081552   2.157256   3.407569   5.762506   7.740459
    28  F    3.653122   4.698989   4.898774   5.882072   7.079454
    29  F    2.783409   4.087429   4.905999   6.704763   8.364498
    30  F    3.660063   4.707854   4.899165   5.941382   7.049486
    31  F    2.792391   4.097447   4.906303   6.756864   8.339251
    32  F    4.254201   5.586884   6.160724   7.568953   8.861751
                   16         17         18         19         20
    16  H    0.000000
    17  H    1.762650   0.000000
    18  H    3.056621   2.489816   0.000000
    19  H    2.504643   3.055048   1.760094   0.000000
    20  H    3.090045   2.562901   2.519588   3.073214   0.000000
    21  H    3.746949   3.756631   2.502397   2.504177   1.765541
    22  H    2.548516   3.121191   3.073724   2.514953   1.766716
    23  H    5.015062   4.756073   6.522250   6.705031   7.310136
    24  Cl   8.806760   9.090027   9.688238   9.400121  11.414420
    25  H    6.274800   6.568138   6.906121   6.602807   8.742780
    26  S    7.742971   7.565033   9.385161   9.521059  10.094009
    27  H    8.736503   8.818636  10.082538   9.994896  11.344285
    28  F    7.353534   6.822430   8.664615   9.081349   9.319129
    29  F    9.007397   8.700596  10.315436  10.564085  11.253943
    30  F    6.754292   6.738373   8.787106   8.795762   9.172024
    31  F    8.525534   8.635103  10.418673  10.319800  11.132709
    32  F    8.806460   8.541747  10.553450  10.764002  10.994178
                   21         22         23         24         25
    21  H    0.000000
    22  H    1.765391   0.000000
    23  H    8.358641   7.478278   0.000000
    24  Cl  11.767919  11.170975   5.596848   0.000000
    25  H    8.983599   8.504765   4.297371   2.833335   0.000000
    26  S   11.202402  10.225285   2.868937   5.436567   5.626434
    27  H   12.097578  11.268925   4.321780   2.849713   4.295097
    28  F   10.548094   9.713513   2.499574   6.245603   5.934824
    29  F   12.319396  11.486816   4.008830   5.176363   5.940114
    30  F   10.335202   9.185517   2.506627   6.259946   5.934013
    31  F   12.137846  11.044248   4.013504   5.193367   5.939183
    32  F   12.248974  11.202185   4.122667   6.891669   7.244949
                   26         27         28         29         30
    26  S    0.000000
    27  H    2.903412   0.000000
    28  F    1.617001   4.036808   0.000000
    29  F    1.617274   2.526931   2.283065   0.000000
    30  F    1.616700   4.045966   2.284291   3.229305   0.000000
    31  F    1.617462   2.541314   3.229810   2.283768   2.283445
    32  F    1.618519   4.158136   2.225764   2.225737   2.225381
                   31         32
    31  F    0.000000
    32  F    2.225905   0.000000
 Stoichiometry    C10H12ClF5N2OS
 Framework group  C1[X(C10H12ClF5N2OS)]
 Deg. of freedom    90
 Full point group                 C1      NOp   1
 Largest Abelian subgroup         C1      NOp   1
 Largest concise Abelian subgroup C1      NOp   1
                         Standard orientation:                         
 ---------------------------------------------------------------------
 Center     Atomic      Atomic             Coordinates (Angstroms)
 Number     Number       Type             X           Y           Z
 ---------------------------------------------------------------------
      1          6           0       -0.486857    1.104974   -0.163861
      2          7           0       -1.872039    1.116140   -0.303326
      3          6           0       -2.740958    0.069494   -0.042913
      4          8           0       -2.355778   -1.045424    0.313382
      5          7           0       -4.043073    0.367320   -0.222020
      6          6           0       -5.082063   -0.591306    0.137538
      7          6           0       -6.457306   -0.016610   -0.156965
      8          6           0       -7.555206   -1.000588    0.227960
      9          6           0        0.275184   -0.067907   -0.154949
     10          6           0        1.648864    0.053401   -0.032156
     11          6           0        2.325166    1.257560    0.066520
     12          6           0        1.535017    2.399152    0.036772
     13          6           0        0.157942    2.344456   -0.070296
     14          1           0       -2.285469    2.028480   -0.453829
     15          1           0       -4.318284    1.321311   -0.416472
     16          1           0       -4.998420   -0.845034    1.199037
     17          1           0       -4.928971   -1.511620   -0.431231
     18          1           0       -6.526461    0.226986   -1.221457
     19          1           0       -6.583278    0.920092    0.395425
     20          1           0       -7.454014   -1.937618   -0.325658
     21          1           0       -8.543677   -0.590446    0.013304
     22          1           0       -7.514965   -1.235934    1.294592
     23          1           0       -0.200775   -1.030502   -0.249777
     24         17           0        2.309789    3.955725    0.149358
     25          1           0       -0.426504    3.257623   -0.081163
     26         16           0        2.624165   -1.469427   -0.009241
     27          1           0        3.400705    1.323110    0.159646
     28          9           0        1.817015   -2.109852   -1.255458
     29          9           0        3.727699   -0.879948   -1.034083
     30          9           0        1.615139   -2.204631    1.017920
     31          9           0        3.526042   -0.974274    1.238808
     32          9           0        3.498589   -2.831243    0.011794
 ---------------------------------------------------------------------
 Rotational constants (GHZ):      0.3773784      0.1333109      0.1029635
 Standard basis: 6-311+G(d) (5D, 7F)
 There are   512 symmetry adapted cartesian basis functions of A   symmetry.
 There are   492 symmetry adapted basis functions of A   symmetry.
   492 basis functions,   811 primitive gaussians,   512 cartesian basis functions
    86 alpha electrons       86 beta electrons
       nuclear repulsion energy      2019.9022143818 Hartrees.
 NAtoms=   32 NActive=   32 NUniq=   32 SFac= 1.00D+00 NAtFMM=   60 NAOKFM=F Big=F
 Integral buffers will be    131072 words long.
 Raffenetti 2 integral format.
 Two-electron integral symmetry is turned on.
 Nuclear repulsion after empirical dispersion term =     2019.9005657711 Hartrees.
 ------------------------------------------------------------------------------
 Polarizable Continuum Model (PCM)
 =================================
 Model                : PCM (using non-symmetric T matrix).
 Atomic radii         : SMD-Coulomb.
 Polarization charges : Total charges.
 Charge compensation  : None.
 Solution method      : On-the-fly selection.
 Cavity type          : VdW (van der Waals Surface) (Alpha=1.000).
 Cavity algorithm     : GePol (No added spheres)
                        Default sphere list used, NSphG=   32.
                        Lebedev-Laikov grids with approx.  5.0 points / Ang**2.
                        Smoothing algorithm: York/Karplus (Gamma=1.0000).
                        Polarization charges: spherical gaussians, with
                                              point-specific exponents (IZeta= 3).
                        Self-potential: point-specific (ISelfS= 7).
                        Self-field    : sphere-specific E.n sum rule (ISelfD= 2).
 1st derivatives      : Analytical E(r).r(x)/FMM algorithm (CHGder, D1EAlg=3).
                        Cavity 1st derivative terms included.
 Solvent              : Water, Eps=  78.355300 Eps(inf)=   1.777849
 ------------------------------------------------------------------------------
 ------------------------------------------------------------------------------
 Atomic radii for non-electrostatic terms: SMD-CDS.
 ------------------------------------------------------------------------------
 Nuclear repulsion after PCM non-electrostatic terms =     2019.9130946171 Hartrees.
 One-electron integrals computed using PRISM.
 NBasis=   492 RedAO= T EigKep=  1.32D-06  NBF=   492
 NBsUse=   490 1.00D-06 EigRej=  8.25D-07 NBFU=   490
 ExpMin= 4.05D-02 ExpMax= 1.06D+05 ExpMxC= 3.62D+03 IAcc=3 IRadAn=         5 AccDes= 0.00D+00
 Harris functional with IExCor= 1009 and IRadAn=       5 diagonalized for initial guess.
 HarFok:  IExCor= 1009 AccDes= 0.00D+00 IRadAn=         5 IDoV= 1 UseB2=F ITyADJ=14
 ICtDFT=  3500011 ScaDFX=  1.000000  1.000000  1.000000  1.000000
 FoFCou: FMM=F IPFlag=           0 FMFlag=      100000 FMFlg1=           0
         NFxFlg=           0 DoJE=T BraDBF=F KetDBF=T FulRan=T
         wScrn=  0.000000 ICntrl=     500 IOpCl=  0 I1Cent=   200000004 NGrid=           0
         NMat0=    1 NMatS0=      1 NMatT0=    0 NMatD0=    1 NMtDS0=    0 NMtDT0=    0
 Petite list used in FoFCou.
 Requested convergence on RMS density matrix=1.00D-08 within 128 cycles.
 Requested convergence on MAX density matrix=1.00D-06.
 Requested convergence on             energy=1.00D-06.
 No special actions if energy rises.
 Inv3:  Mode=1 IEnd=    20139843.
 Iteration    1 A*A^-1 deviation from unit magnitude is 7.77D-15 for   2583.
 Iteration    1 A*A^-1 deviation from orthogonality  is 4.60D-15 for   2580    818.
 Iteration    1 A^-1*A deviation from unit magnitude is 7.99D-15 for   2583.
 Iteration    1 A^-1*A deviation from orthogonality  is 2.90D-09 for   2129   2090.
 Iteration    2 A*A^-1 deviation from unit magnitude is 2.78D-15 for   1101.
 Iteration    2 A*A^-1 deviation from orthogonality  is 9.68D-15 for   2582   1074.
 Iteration    2 A^-1*A deviation from unit magnitude is 8.88D-16 for    207.
 Iteration    2 A^-1*A deviation from orthogonality  is 7.87D-16 for   2590    690.
 Error on total polarization charges =  0.04000
 SCF Done:  E(RM062X) =  -1930.43550972     A.U. after   15 cycles
            NFock= 15  Conv=0.63D-08     -V/T= 2.0024
 SMD-CDS (non-electrostatic) energy       (kcal/mol) =       7.86
 (included in total energy above)

 **********************************************************************

            Population analysis using the SCF density.

 **********************************************************************

 Orbital symmetries:
       Occupied  (A) (A) (A) (A) (A) (A) (A) (A) (A) (A) (A) (A)
                 (A) (A) (A) (A) (A) (A) (A) (A) (A) (A) (A) (A)
                 (A) (A) (A) (A) (A) (A) (A) (A) (A) (A) (A) (A)
                 (A) (A) (A) (A) (A) (A) (A) (A) (A) (A) (A) (A)
                 (A) (A) (A) (A) (A) (A) (A) (A) (A) (A) (A) (A)
                 (A) (A) (A) (A) (A) (A) (A) (A) (A) (A) (A) (A)
                 (A) (A) (A) (A) (A) (A) (A) (A) (A) (A) (A) (A)
                 (A) (A)
       Virtual   (A) (A) (A) (A) (A) (A) (A) (A) (A) (A) (A) (A)
                 (A) (A) (A) (A) (A) (A) (A) (A) (A) (A) (A) (A)
                 (A) (A) (A) (A) (A) (A) (A) (A) (A) (A) (A) (A)
                 (A) (A) (A) (A) (A) (A) (A) (A) (A) (A) (A) (A)
                 (A) (A) (A) (A) (A) (A) (A) (A) (A) (A) (A) (A)
                 (A) (A) (A) (A) (A) (A) (A) (A) (A) (A) (A) (A)
                 (A) (A) (A) (A) (A) (A) (A) (A) (A) (A) (A) (A)
                 (A) (A) (A) (A) (A) (A) (A) (A) (A) (A) (A) (A)
                 (A) (A) (A) (A) (A) (A) (A) (A) (A) (A) (A) (A)
                 (A) (A) (A) (A) (A) (A) (A) (A) (A) (A) (A) (A)
                 (A) (A) (A) (A) (A) (A) (A) (A) (A) (A) (A) (A)
                 (A) (A) (A) (A) (A) (A) (A) (A) (A) (A) (A) (A)
                 (A) (A) (A) (A) (A) (A) (A) (A) (A) (A) (A) (A)
                 (A) (A) (A) (A) (A) (A) (A) (A) (A) (A) (A) (A)
                 (A) (A) (A) (A) (A) (A) (A) (A) (A) (A) (A) (A)
                 (A) (A) (A) (A) (A) (A) (A) (A) (A) (A) (A) (A)
                 (A) (A) (A) (A) (A) (A) (A) (A) (A) (A) (A) (A)
                 (A) (A) (A) (A) (A) (A) (A) (A) (A) (A) (A) (A)
                 (A) (A) (A) (A) (A) (A) (A) (A) (A) (A) (A) (A)
                 (A) (A) (A) (A) (A) (A) (A) (A) (A) (A) (A) (A)
                 (A) (A) (A) (A) (A) (A) (A) (A) (A) (A) (A) (A)
                 (A) (A) (A) (A) (A) (A) (A) (A) (A) (A) (A) (A)
                 (A) (A) (A) (A) (A) (A) (A) (A) (A) (A) (A) (A)
                 (A) (A) (A) (A) (A) (A) (A) (A) (A) (A) (A) (A)
                 (A) (A) (A) (A) (A) (A) (A) (A) (A) (A) (A) (A)
                 (A) (A) (A) (A) (A) (A) (A) (A) (A) (A) (A) (A)
                 (A) (A) (A) (A) (A) (A) (A) (A) (A) (A) (A) (A)
                 (A) (A) (A) (A) (A) (A) (A) (A) (A) (A) (A) (A)
                 (A) (A) (A) (A) (A) (A) (A) (A) (A) (A) (A) (A)
                 (A) (A) (A) (A) (A) (A) (A) (A) (A) (A) (A) (A)
                 (A) (A) (A) (A) (A) (A) (A) (A) (A) (A) (A) (A)
                 (A) (A) (A) (A) (A) (A) (A) (A) (A) (A) (A) (A)
                 (A) (A) (A) (A) (A) (A) (A) (A) (A) (A) (A) (A)
                 (A) (A) (A) (A) (A) (A) (A) (A)
 The electronic state is 1-A.
 Alpha  occ. eigenvalues -- -102.69043 -90.28929 -25.29444 -25.29443 -25.29441
 Alpha  occ. eigenvalues --  -25.29440 -25.29322 -19.60299 -14.79391 -14.77257
 Alpha  occ. eigenvalues --  -10.68851 -10.63040 -10.62422 -10.61728 -10.58011
 Alpha  occ. eigenvalues --  -10.57516 -10.57307 -10.56684 -10.53062 -10.51755
 Alpha  occ. eigenvalues --   -9.83312  -8.61259  -7.55826  -7.55150  -7.55134
 Alpha  occ. eigenvalues --   -6.53680  -6.53669  -6.53216  -1.51208  -1.41187
 Alpha  occ. eigenvalues --   -1.41145  -1.38122  -1.36737  -1.19155  -1.07438
 Alpha  occ. eigenvalues --   -1.04081  -1.01787  -0.97954  -0.93568  -0.88792
 Alpha  occ. eigenvalues --   -0.86825  -0.85646  -0.78637  -0.76934  -0.74950
 Alpha  occ. eigenvalues --   -0.74700  -0.73023  -0.69086  -0.68745  -0.67619
 Alpha  occ. eigenvalues --   -0.65093  -0.64368  -0.63340  -0.62377  -0.61384
 Alpha  occ. eigenvalues --   -0.59565  -0.59329  -0.56739  -0.56494  -0.56344
 Alpha  occ. eigenvalues --   -0.56237  -0.56159  -0.55891  -0.54080  -0.53694
 Alpha  occ. eigenvalues --   -0.53475  -0.52742  -0.52609  -0.51996  -0.51470
 Alpha  occ. eigenvalues --   -0.50072  -0.49421  -0.47199  -0.46841  -0.45999
 Alpha  occ. eigenvalues --   -0.44841  -0.42992  -0.42135  -0.40031  -0.39752
 Alpha  occ. eigenvalues --   -0.39443  -0.39054  -0.36797  -0.33462  -0.32780
 Alpha  occ. eigenvalues --   -0.29063
 Alpha virt. eigenvalues --   -0.02934  -0.02238  -0.00332   0.00948   0.02126
 Alpha virt. eigenvalues --    0.02870   0.03149   0.03274   0.03972   0.04270
 Alpha virt. eigenvalues --    0.04504   0.04720   0.04924   0.05678   0.06098
 Alpha virt. eigenvalues --    0.06908   0.07046   0.07529   0.07742   0.08146
 Alpha virt. eigenvalues --    0.08694   0.09225   0.09400   0.09969   0.10154
 Alpha virt. eigenvalues --    0.10784   0.11191   0.11417   0.11807   0.12085
 Alpha virt. eigenvalues --    0.12410   0.12666   0.13278   0.13726   0.14031
 Alpha virt. eigenvalues --    0.14404   0.15370   0.15812   0.17114   0.17321
 Alpha virt. eigenvalues --    0.17605   0.17740   0.18303   0.18762   0.19561
 Alpha virt. eigenvalues --    0.20116   0.20379   0.20610   0.21066   0.21328
 Alpha virt. eigenvalues --    0.21531   0.21699   0.22105   0.22506   0.23102
 Alpha virt. eigenvalues --    0.23451   0.23903   0.24121   0.24525   0.25446
 Alpha virt. eigenvalues --    0.25754   0.26050   0.26204   0.26500   0.26793
 Alpha virt. eigenvalues --    0.27225   0.27726   0.27958   0.28067   0.28269
 Alpha virt. eigenvalues --    0.28930   0.29664   0.30041   0.30313   0.30800
 Alpha virt. eigenvalues --    0.31461   0.31508   0.32025   0.32306   0.32404
 Alpha virt. eigenvalues --    0.32862   0.33278   0.33566   0.34289   0.34473
 Alpha virt. eigenvalues --    0.34932   0.35451   0.35637   0.36519   0.36897
 Alpha virt. eigenvalues --    0.37457   0.38006   0.38733   0.39056   0.39692
 Alpha virt. eigenvalues --    0.39836   0.40565   0.41773   0.42546   0.43734
 Alpha virt. eigenvalues --    0.44341   0.44746   0.44987   0.46145   0.46695
 Alpha virt. eigenvalues --    0.47386   0.47760   0.48471   0.48552   0.48815
 Alpha virt. eigenvalues --    0.49810   0.50319   0.50899   0.51483   0.51997
 Alpha virt. eigenvalues --    0.53305   0.54236   0.55101   0.55455   0.56962
 Alpha virt. eigenvalues --    0.57792   0.57974   0.58247   0.59239   0.60939
 Alpha virt. eigenvalues --    0.61240   0.61959   0.63027   0.63474   0.64500
 Alpha virt. eigenvalues --    0.65206   0.66496   0.67339   0.67810   0.68212
 Alpha virt. eigenvalues --    0.68719   0.69401   0.70476   0.71512   0.71837
 Alpha virt. eigenvalues --    0.71941   0.72588   0.72721   0.73694   0.73943
 Alpha virt. eigenvalues --    0.74153   0.75644   0.76331   0.76398   0.77135
 Alpha virt. eigenvalues --    0.78712   0.79339   0.80849   0.81551   0.82113
 Alpha virt. eigenvalues --    0.84865   0.85838   0.86669   0.87798   0.89120
 Alpha virt. eigenvalues --    0.91301   0.91772   0.91904   0.92915   0.93255
 Alpha virt. eigenvalues --    0.93820   0.94820   0.95286   0.95699   0.97134
 Alpha virt. eigenvalues --    0.98614   0.98977   0.99498   1.00775   1.03588
 Alpha virt. eigenvalues --    1.04543   1.05004   1.06093   1.06408   1.08282
 Alpha virt. eigenvalues --    1.08611   1.11805   1.12484   1.13723   1.16434
 Alpha virt. eigenvalues --    1.18498   1.20791   1.21915   1.22498   1.23621
 Alpha virt. eigenvalues --    1.24239   1.24789   1.25597   1.26362   1.29379
 Alpha virt. eigenvalues --    1.30393   1.32913   1.33630   1.34695   1.34728
 Alpha virt. eigenvalues --    1.36187   1.37287   1.38107   1.39157   1.40594
 Alpha virt. eigenvalues --    1.42781   1.43645   1.44632   1.46474   1.49277
 Alpha virt. eigenvalues --    1.49843   1.50135   1.50815   1.51470   1.52110
 Alpha virt. eigenvalues --    1.54282   1.55070   1.55909   1.57632   1.59331
 Alpha virt. eigenvalues --    1.61470   1.62166   1.62628   1.62927   1.64011
 Alpha virt. eigenvalues --    1.65212   1.67522   1.69069   1.69843   1.73357
 Alpha virt. eigenvalues --    1.74587   1.76347   1.77696   1.77972   1.79035
 Alpha virt. eigenvalues --    1.81078   1.82829   1.85239   1.86082   1.88151
 Alpha virt. eigenvalues --    1.89055   1.90822   1.91091   1.92554   1.94320
 Alpha virt. eigenvalues --    1.96188   1.97173   1.98355   2.00511   2.02950
 Alpha virt. eigenvalues --    2.05071   2.06740   2.07280   2.08136   2.10709
 Alpha virt. eigenvalues --    2.12566   2.15053   2.15505   2.20454   2.24037
 Alpha virt. eigenvalues --    2.24746   2.26193   2.27465   2.29576   2.30052
 Alpha virt. eigenvalues --    2.32537   2.33674   2.38435   2.39298   2.41357
 Alpha virt. eigenvalues --    2.43330   2.47817   2.52210   2.53190   2.55715
 Alpha virt. eigenvalues --    2.56488   2.57311   2.58562   2.60091   2.60689
 Alpha virt. eigenvalues --    2.63625   2.65417   2.66038   2.69199   2.72223
 Alpha virt. eigenvalues --    2.73183   2.78759   2.80463   2.82853   2.85030
 Alpha virt. eigenvalues --    2.86999   2.88192   2.92504   2.94454   2.98558
 Alpha virt. eigenvalues --    2.98821   2.99836   3.02406   3.07220   3.11450
 Alpha virt. eigenvalues --    3.13481   3.16828   3.18525   3.23372   3.25643
 Alpha virt. eigenvalues --    3.25867   3.27415   3.30513   3.30812   3.35147
 Alpha virt. eigenvalues --    3.36417   3.39051   3.40967   3.41658   3.46110
 Alpha virt. eigenvalues --    3.56647   3.61636   3.65909   3.67704   3.70931
 Alpha virt. eigenvalues --    3.78587   3.79079   3.79521   3.79637   3.80187
 Alpha virt. eigenvalues --    3.81760   3.82256   3.82781   3.82949   3.83365
 Alpha virt. eigenvalues --    3.83818   3.85027   3.86074   3.87702   3.88390
 Alpha virt. eigenvalues --    3.88492   3.90325   3.90623   3.91016   3.93424
 Alpha virt. eigenvalues --    3.97531   3.99100   3.99783   4.01902   4.02349
 Alpha virt. eigenvalues --    4.06546   4.07505   4.09757   4.26268   4.28780
 Alpha virt. eigenvalues --    4.29454   4.31979   4.37686   4.54972   4.58440
 Alpha virt. eigenvalues --    4.77254   4.89585   5.18772   5.20409   5.41020
 Alpha virt. eigenvalues --    5.88356   6.34812   6.36093   6.38115   6.40540
 Alpha virt. eigenvalues --    6.41510   6.43100   6.47042   6.51202   6.52029
 Alpha virt. eigenvalues --    6.54463   6.55608   6.63024   6.63993   6.64509
 Alpha virt. eigenvalues --    6.69959   8.21994   9.96140  17.50795  17.55524
 Alpha virt. eigenvalues --   17.60404  23.46293  23.59545  23.74436  23.82304
 Alpha virt. eigenvalues --   23.91630  23.92602  23.96855  24.08516  24.11061
 Alpha virt. eigenvalues --   24.19490  25.93255  26.22387  26.72274  35.60137
 Alpha virt. eigenvalues --   35.70229  50.12838  66.88843  66.90423  66.95778
 Alpha virt. eigenvalues --   66.97804  67.06280 189.46320 216.06197
          Condensed to atoms (all electrons):
               1          2          3          4          5          6
     1  C   28.124375  -0.316012  -1.087339   0.024290  -0.249304  -0.512484
     2  N   -0.316012   7.779754   0.447543  -0.117724  -0.550019  -0.520005
     3  C   -1.087339   0.447543   8.171145   0.562842   0.256901  -1.270578
     4  O    0.024290  -0.117724   0.562842   8.301305  -0.186614  -0.104866
     5  N   -0.249304  -0.550019   0.256901  -0.186614   7.635107   0.557714
     6  C   -0.512484  -0.520005  -1.270578  -0.104866   0.557714   8.760539
     7  C   -0.016886   0.042131   0.222579   0.015962  -0.141872  -0.980869
     8  C   -0.017821  -0.016864  -0.283313  -0.002670   0.001257   0.432287
     9  C   -4.444415   0.171203   0.111566   0.051531  -0.051039  -0.206746
    10  C   -4.873821   0.125863   0.557037   0.004035   0.113263   0.069678
    11  C   -5.170771   0.061277  -0.341102  -0.011347  -0.035398  -0.028856
    12  C   -0.664382  -0.073806  -0.442917   0.025571   0.053804  -0.022816
    13  C   -2.955130   0.021298  -1.050378  -0.030984  -0.247287  -0.179301
    14  H    0.034292   0.244285  -0.033985  -0.000491   0.056825   0.015798
    15  H   -0.009434   0.067354   0.035407  -0.001265   0.252784  -0.087490
    16  H   -0.003136   0.018951   0.092828   0.000087  -0.067737   0.302223
    17  H    0.017482  -0.006845   0.000633   0.000587  -0.046380   0.417070
    18  H    0.000136   0.000756   0.013021  -0.000097   0.006511  -0.073733
    19  H   -0.000150  -0.003414  -0.012555  -0.000178   0.006220  -0.061881
    20  H   -0.000104  -0.000120  -0.004533  -0.000055  -0.000333  -0.051506
    21  H    0.000090   0.000014   0.006047   0.000023  -0.001204   0.085245
    22  H    0.000022   0.000036   0.001713  -0.000037   0.000143  -0.044920
    23  H   -0.030793  -0.015767   0.066242  -0.008216   0.000927   0.004607
    24  Cl   0.001659  -0.010754  -0.046208  -0.000118   0.000398  -0.001392
    25  H    0.086902  -0.016900   0.000305  -0.000058  -0.000184  -0.000281
    26  S   -0.596579   0.018395  -0.030558  -0.006442   0.003114   0.006194
    27  H   -0.004047   0.001180   0.003275  -0.000005   0.000019   0.000030
    28  F   -0.202887   0.001263   0.007526  -0.000313   0.000174   0.000411
    29  F    0.140198  -0.000465  -0.001840   0.000026  -0.000018  -0.000005
    30  F   -0.249396   0.002248   0.010352   0.000518   0.000386   0.000612
    31  F    0.132985  -0.000066  -0.002157  -0.000090  -0.000010  -0.000050
    32  F   -0.017332  -0.000108  -0.001155   0.000008  -0.000003  -0.000012
               7          8          9         10         11         12
     1  C   -0.016886  -0.017821  -4.444415  -4.873821  -5.170771  -0.664382
     2  N    0.042131  -0.016864   0.171203   0.125863   0.061277  -0.073806
     3  C    0.222579  -0.283313   0.111566   0.557037  -0.341102  -0.442917
     4  O    0.015962  -0.002670   0.051531   0.004035  -0.011347   0.025571
     5  N   -0.141872   0.001257  -0.051039   0.113263  -0.035398   0.053804
     6  C   -0.980869   0.432287  -0.206746   0.069678  -0.028856  -0.022816
     7  C    6.455587  -0.234219   0.002501  -0.008520   0.001317  -0.003073
     8  C   -0.234219   6.172408  -0.005219   0.001173  -0.000164  -0.000644
     9  C    0.002501  -0.005219  16.696870   2.737783  -2.643663  -3.784619
    10  C   -0.008520   0.001173   2.737783  29.894888  -2.599699  -4.886070
    11  C    0.001317  -0.000164  -2.643663  -2.599699  16.559558  -0.524477
    12  C   -0.003073  -0.000644  -3.784619  -4.886070  -0.524477  22.969347
    13  C    0.023492  -0.003597  -3.191680 -12.275604  -0.118569  -5.531071
    14  H   -0.002109   0.000127   0.084495   0.040686  -0.016070   0.033428
    15  H   -0.002102   0.001925   0.012539  -0.000586   0.000363  -0.002956
    16  H   -0.007692  -0.019697   0.008727  -0.000352   0.000020   0.000103
    17  H   -0.027842  -0.016805  -0.015104  -0.000245   0.000057   0.000053
    18  H    0.448610  -0.047931   0.001257   0.000050  -0.000004   0.000013
    19  H    0.462522  -0.045293  -0.001271  -0.000039   0.000001   0.000039
    20  H    0.022777   0.378384  -0.000073  -0.000005   0.000000  -0.000000
    21  H   -0.121134   0.380819   0.000014   0.000000  -0.000000   0.000000
    22  H    0.007720   0.380648   0.000043  -0.000002  -0.000000   0.000001
    23  H   -0.000261   0.000022   0.376387  -0.033168  -0.023077  -0.001315
    24  Cl  -0.000060  -0.000004   0.095347   0.022408  -0.003755  -1.148262
    25  H    0.000005  -0.000001  -0.027286   0.057820  -0.017257   0.126857
    26  S    0.000063   0.000032   0.122137  -2.482569   0.741603  -0.241280
    27  H   -0.000000   0.000000  -0.005447  -0.141052   0.343830   0.060686
    28  F   -0.000009   0.000002  -0.130271  -0.038377   0.273790   0.094403
    29  F    0.000000  -0.000000   0.146142   0.413256  -0.352884  -0.206966
    30  F    0.000001   0.000003  -0.167585  -0.013386   0.296386   0.091263
    31  F    0.000000  -0.000000   0.133431   0.385770  -0.342103  -0.186827
    32  F    0.000000  -0.000000  -0.040013   0.073129   0.030057  -0.018446
              13         14         15         16         17         18
     1  C   -2.955130   0.034292  -0.009434  -0.003136   0.017482   0.000136
     2  N    0.021298   0.244285   0.067354   0.018951  -0.006845   0.000756
     3  C   -1.050378  -0.033985   0.035407   0.092828   0.000633   0.013021
     4  O   -0.030984  -0.000491  -0.001265   0.000087   0.000587  -0.000097
     5  N   -0.247287   0.056825   0.252784  -0.067737  -0.046380   0.006511
     6  C   -0.179301   0.015798  -0.087490   0.302223   0.417070  -0.073733
     7  C    0.023492  -0.002109  -0.002102  -0.007692  -0.027842   0.448610
     8  C   -0.003597   0.000127   0.001925  -0.019697  -0.016805  -0.047931
     9  C   -3.191680   0.084495   0.012539   0.008727  -0.015104   0.001257
    10  C  -12.275604   0.040686  -0.000586  -0.000352  -0.000245   0.000050
    11  C   -0.118569  -0.016070   0.000363   0.000020   0.000057  -0.000004
    12  C   -5.531071   0.033428  -0.002956   0.000103   0.000053   0.000013
    13  C   30.471361  -0.176016   0.003054   0.000095   0.001818  -0.000493
    14  H   -0.176016   0.270049   0.001650  -0.000218   0.000173   0.000008
    15  H    0.003054   0.001650   0.285831   0.003927  -0.000239  -0.000873
    16  H    0.000095  -0.000218   0.003927   0.432507  -0.042968   0.005090
    17  H    0.001818   0.000173  -0.000239  -0.042968   0.443700  -0.007950
    18  H   -0.000493   0.000008  -0.000873   0.005090  -0.007950   0.433448
    19  H    0.000686   0.000036  -0.000827  -0.008368   0.005629  -0.040792
    20  H    0.000020   0.000000  -0.000057  -0.000452   0.003453  -0.008250
    21  H   -0.000002   0.000000  -0.000024  -0.000052  -0.000074  -0.003201
    22  H   -0.000004  -0.000000   0.000028   0.003129  -0.000462   0.005778
    23  H   -0.042901  -0.000029  -0.000027  -0.000023   0.000029  -0.000000
    24  Cl   0.197658   0.000728  -0.000014   0.000002   0.000000   0.000000
    25  H    0.120917   0.004916  -0.000010   0.000001  -0.000001   0.000000
    26  S    0.919717   0.000757   0.000029  -0.000041  -0.000006   0.000001
    27  H    0.013703   0.000006   0.000000  -0.000000   0.000000   0.000000
    28  F    0.020202   0.000014  -0.000001   0.000000   0.000001  -0.000000
    29  F   -0.056543  -0.000001  -0.000000   0.000000  -0.000000  -0.000000
    30  F    0.027447   0.000016  -0.000000   0.000000   0.000001  -0.000000
    31  F   -0.054529   0.000000  -0.000000   0.000000   0.000000   0.000000
    32  F    0.008823  -0.000000  -0.000000   0.000000  -0.000000  -0.000000
              19         20         21         22         23         24
     1  C   -0.000150  -0.000104   0.000090   0.000022  -0.030793   0.001659
     2  N   -0.003414  -0.000120   0.000014   0.000036  -0.015767  -0.010754
     3  C   -0.012555  -0.004533   0.006047   0.001713   0.066242  -0.046208
     4  O   -0.000178  -0.000055   0.000023  -0.000037  -0.008216  -0.000118
     5  N    0.006220  -0.000333  -0.001204   0.000143   0.000927   0.000398
     6  C   -0.061881  -0.051506   0.085245  -0.044920   0.004607  -0.001392
     7  C    0.462522   0.022777  -0.121134   0.007720  -0.000261  -0.000060
     8  C   -0.045293   0.378384   0.380819   0.380648   0.000022  -0.000004
     9  C   -0.001271  -0.000073   0.000014   0.000043   0.376387   0.095347
    10  C   -0.000039  -0.000005   0.000000  -0.000002  -0.033168   0.022408
    11  C    0.000001   0.000000  -0.000000  -0.000000  -0.023077  -0.003755
    12  C    0.000039  -0.000000   0.000000   0.000001  -0.001315  -1.148262
    13  C    0.000686   0.000020  -0.000002  -0.000004  -0.042901   0.197658
    14  H    0.000036   0.000000   0.000000  -0.000000  -0.000029   0.000728
    15  H   -0.000827  -0.000057  -0.000024   0.000028  -0.000027  -0.000014
    16  H   -0.008368  -0.000452  -0.000052   0.003129  -0.000023   0.000002
    17  H    0.005629   0.003453  -0.000074  -0.000462   0.000029   0.000000
    18  H   -0.040792  -0.008250  -0.003201   0.005778  -0.000000   0.000000
    19  H    0.439009   0.005947  -0.003158  -0.008097   0.000000   0.000000
    20  H    0.005947   0.446117  -0.024277  -0.036496  -0.000000  -0.000000
    21  H   -0.003158  -0.024277   0.424893  -0.024370   0.000000   0.000000
    22  H   -0.008097  -0.036496  -0.024370   0.445011  -0.000000  -0.000000
    23  H    0.000000  -0.000000   0.000000  -0.000000   0.339927   0.000314
    24  Cl   0.000000  -0.000000   0.000000  -0.000000   0.000314  17.543747
    25  H   -0.000000  -0.000000   0.000000  -0.000000   0.000024  -0.013656
    26  S   -0.000000  -0.000000   0.000000   0.000000   0.018265  -0.022714
    27  H    0.000000   0.000000  -0.000000  -0.000000  -0.000029  -0.013607
    28  F   -0.000000  -0.000000  -0.000000  -0.000000   0.000758  -0.000429
    29  F   -0.000000  -0.000000  -0.000000  -0.000000  -0.000506   0.000253
    30  F   -0.000000  -0.000000  -0.000000  -0.000000  -0.002935  -0.000441
    31  F   -0.000000  -0.000000   0.000000  -0.000000  -0.000728  -0.000166
    32  F   -0.000000  -0.000000   0.000000  -0.000000  -0.000702   0.000135
              25         26         27         28         29         30
     1  C    0.086902  -0.596579  -0.004047  -0.202887   0.140198  -0.249396
     2  N   -0.016900   0.018395   0.001180   0.001263  -0.000465   0.002248
     3  C    0.000305  -0.030558   0.003275   0.007526  -0.001840   0.010352
     4  O   -0.000058  -0.006442  -0.000005  -0.000313   0.000026   0.000518
     5  N   -0.000184   0.003114   0.000019   0.000174  -0.000018   0.000386
     6  C   -0.000281   0.006194   0.000030   0.000411  -0.000005   0.000612
     7  C    0.000005   0.000063  -0.000000  -0.000009   0.000000   0.000001
     8  C   -0.000001   0.000032   0.000000   0.000002  -0.000000   0.000003
     9  C   -0.027286   0.122137  -0.005447  -0.130271   0.146142  -0.167585
    10  C    0.057820  -2.482569  -0.141052  -0.038377   0.413256  -0.013386
    11  C   -0.017257   0.741603   0.343830   0.273790  -0.352884   0.296386
    12  C    0.126857  -0.241280   0.060686   0.094403  -0.206966   0.091263
    13  C    0.120917   0.919717   0.013703   0.020202  -0.056543   0.027447
    14  H    0.004916   0.000757   0.000006   0.000014  -0.000001   0.000016
    15  H   -0.000010   0.000029   0.000000  -0.000001  -0.000000  -0.000000
    16  H    0.000001  -0.000041  -0.000000   0.000000   0.000000   0.000000
    17  H   -0.000001  -0.000006   0.000000   0.000001  -0.000000   0.000001
    18  H    0.000000   0.000001   0.000000  -0.000000  -0.000000  -0.000000
    19  H   -0.000000  -0.000000   0.000000  -0.000000  -0.000000  -0.000000
    20  H   -0.000000  -0.000000   0.000000  -0.000000  -0.000000  -0.000000
    21  H    0.000000   0.000000  -0.000000  -0.000000  -0.000000  -0.000000
    22  H   -0.000000   0.000000  -0.000000  -0.000000  -0.000000  -0.000000
    23  H    0.000024   0.018265  -0.000029   0.000758  -0.000506  -0.002935
    24  Cl  -0.013656  -0.022714  -0.013607  -0.000429   0.000253  -0.000441
    25  H    0.355505   0.000391  -0.000161  -0.000003   0.000003  -0.000008
    26  S    0.000391  17.142695   0.046904   0.029776  -0.029991   0.057503
    27  H   -0.000161   0.046904   0.340882   0.000049  -0.001431   0.000048
    28  F   -0.000003   0.029776   0.000049   8.977109  -0.032813  -0.008131
    29  F    0.000003  -0.029991  -0.001431  -0.032813   8.982061  -0.053490
    30  F   -0.000008   0.057503   0.000048  -0.008131  -0.053490   8.979406
    31  F    0.000000  -0.024009  -0.001393  -0.054525  -0.001188  -0.032377
    32  F   -0.000000  -0.211833  -0.000734   0.012348   0.011390   0.012353
              31         32
     1  C    0.132985  -0.017332
     2  N   -0.000066  -0.000108
     3  C   -0.002157  -0.001155
     4  O   -0.000090   0.000008
     5  N   -0.000010  -0.000003
     6  C   -0.000050  -0.000012
     7  C    0.000000   0.000000
     8  C   -0.000000  -0.000000
     9  C    0.133431  -0.040013
    10  C    0.385770   0.073129
    11  C   -0.342103   0.030057
    12  C   -0.186827  -0.018446
    13  C   -0.054529   0.008823
    14  H    0.000000  -0.000000
    15  H   -0.000000  -0.000000
    16  H    0.000000   0.000000
    17  H    0.000000  -0.000000
    18  H    0.000000  -0.000000
    19  H   -0.000000  -0.000000
    20  H   -0.000000  -0.000000
    21  H    0.000000   0.000000
    22  H   -0.000000  -0.000000
    23  H   -0.000728  -0.000702
    24  Cl  -0.000166   0.000135
    25  H    0.000000  -0.000000
    26  S   -0.024009  -0.211833
    27  H   -0.001393  -0.000734
    28  F   -0.054525   0.012348
    29  F   -0.001188   0.011390
    30  F   -0.032377   0.012353
    31  F    8.986534   0.014102
    32  F    0.014102   9.136218
 Mulliken charges:
               1
     1  C   -1.140211
     2  N   -0.354682
     3  C    0.041654
     4  O   -0.515213
     5  N   -0.368144
     6  C   -0.504615
     7  C   -0.158619
     8  C   -1.054844
     9  C   -0.037541
    10  C   -1.143341
    11  C   -0.079063
    12  C    0.284359
    13  C    0.083799
    14  H    0.440629
    15  H    0.441015
    16  H    0.283045
    17  H    0.274235
    18  H    0.268646
    19  H    0.265933
    20  H    0.269561
    21  H    0.280348
    22  H    0.270118
    23  H    0.352974
    24  Cl   0.398930
    25  H    0.322161
    26  S    0.538445
    27  H    0.357297
    28  F    0.049935
    29  F    0.044813
    30  F    0.049206
    31  F    0.047396
    32  F   -0.008226
 Sum of Mulliken charges =  -0.00000
 Mulliken charges with hydrogens summed into heavy atoms:
               1
     1  C   -1.140211
     2  N    0.085947
     3  C    0.041654
     4  O   -0.515213
     5  N    0.072870
     6  C    0.052665
     7  C    0.375960
     8  C   -0.234816
     9  C    0.315433
    10  C   -1.143341
    11  C    0.278234
    12  C    0.284359
    13  C    0.405960
    24  Cl   0.398930
    26  S    0.538445
    28  F    0.049935
    29  F    0.044813
    30  F    0.049206
    31  F    0.047396
    32  F   -0.008226
 Electronic spatial extent (au):  <R**2>=           9795.8786
 Charge=              0.0000 electrons
 Dipole moment (field-independent basis, Debye):
    X=             -8.9081    Y=              8.4239    Z=             -1.4617  Tot=             12.3472
 Quadrupole moment (field-independent basis, Debye-Ang):
   XX=           -106.1077   YY=           -132.1347   ZZ=           -135.0304
   XY=             -9.7610   XZ=              3.7468   YZ=             -0.3379
 Traceless Quadrupole moment (field-independent basis, Debye-Ang):
   XX=             18.3166   YY=             -7.7105   ZZ=            -10.6061
   XY=             -9.7610   XZ=              3.7468   YZ=             -0.3379
 Octapole moment (field-independent basis, Debye-Ang**2):
  XXX=           -145.7001  YYY=            -14.2170  ZZZ=              1.7713  XYY=            -21.0921
  XXY=             52.2609  XXZ=             -8.0751  XZZ=             17.5194  YZZ=            -16.3738
  YYZ=             -7.1035  XYZ=              2.0030
 Hexadecapole moment (field-independent basis, Debye-Ang**3):
 XXXX=          -8301.5199 YYYY=          -2781.9677 ZZZZ=           -331.6639 XXXY=           -186.4975
 XXXZ=             50.3611 YYYX=           -192.3402 YYYZ=             -3.9333 ZZZX=             -4.8879
 ZZZY=             -0.7953 XXYY=          -2013.9405 XXZZ=          -1623.1517 YYZZ=           -534.4192
 XXYZ=             -3.2290 YYXZ=             22.5757 ZZXY=            -43.0226
 N-N= 2.019913094617D+03 E-N=-8.602560934328D+03  KE= 1.925749165719D+03
 D1PCM: PCM CHGder 1st derivatives, ID1Alg=3 FixD1E=F DoIter=F DoCFld=F I1PDM=0.
 Calling FoFJK, ICntrl=      2127 FMM=F ISym2X=0 I1Cent= 0 IOpClX= 0 NMat=1 NMatS=1 NMatT=0.
 ***** Axes restored to original set *****
 -------------------------------------------------------------------
 Center     Atomic                   Forces (Hartrees/Bohr)
 Number     Number              X              Y              Z
 -------------------------------------------------------------------
      1        6          -0.000003325    0.000002688    0.000004191
      2        7          -0.000007117   -0.000002212    0.000004755
      3        6           0.000005958    0.000007612    0.000009606
      4        8          -0.000005023   -0.000005022   -0.000009225
      5        7           0.000001601   -0.000001594   -0.000005873
      6        6           0.000001391   -0.000003843    0.000005537
      7        6           0.000000278   -0.000001275   -0.000001969
      8        6          -0.000007006   -0.000010295   -0.000004584
      9        6          -0.000005744   -0.000004433    0.000002093
     10        6           0.000005795    0.000005593    0.000000141
     11        6           0.000002505    0.000000887    0.000007019
     12        6           0.000006645    0.000015070    0.000007978
     13        6           0.000000465    0.000004305    0.000006496
     14        1          -0.000002154    0.000000267    0.000004809
     15        1          -0.000004539   -0.000007555    0.000005034
     16        1           0.000004270    0.000000600   -0.000004608
     17        1          -0.000004439   -0.000004182   -0.000008157
     18        1          -0.000003154   -0.000012399    0.000002812
     19        1          -0.000003765   -0.000005203    0.000002509
     20        1          -0.000000436   -0.000005696   -0.000004833
     21        1          -0.000002855   -0.000007568   -0.000002819
     22        1           0.000001566    0.000000136   -0.000005719
     23        1           0.000004208    0.000001800   -0.000002446
     24       17          -0.000004539    0.000004084    0.000015615
     25        1          -0.000002632    0.000002822    0.000013010
     26       16           0.000007251   -0.000010518   -0.000007599
     27        1           0.000001854    0.000008035    0.000004495
     28        9           0.000001144    0.000004400   -0.000006741
     29        9           0.000000494    0.000007507   -0.000000867
     30        9          -0.000000076    0.000005937   -0.000011258
     31        9           0.000006972    0.000011506   -0.000008945
     32        9           0.000004404   -0.000001452   -0.000010459
 -------------------------------------------------------------------
 Cartesian Forces:  Max     0.000015615 RMS     0.000005964

 GradGradGradGradGradGradGradGradGradGradGradGradGradGradGradGradGradGrad
 Berny optimization.
 FormGI is forming the generalized inverse of G from B-inverse, IUseBI=4.
 GSVD:  received Info=                   1 from GESDD.
 Internal  Forces:  Max     0.000010591 RMS     0.000002798
 Search for a local minimum.
 Step number   1 out of a maximum of  173
 All quantities printed in internal units (Hartrees-Bohrs-Radians)
 Mixed Optimization -- En-DIIS/RFO-DIIS
 Second derivative matrix not updated -- first step.
 ITU=  0
     Eigenvalues ---    0.00258   0.00452   0.00511   0.00916   0.01396
     Eigenvalues ---    0.01599   0.01795   0.01890   0.01913   0.02014
     Eigenvalues ---    0.02120   0.02137   0.02191   0.02210   0.02258
     Eigenvalues ---    0.02266   0.02283   0.02291   0.02384   0.03785
     Eigenvalues ---    0.04482   0.04960   0.05556   0.05565   0.05574
     Eigenvalues ---    0.08121   0.09054   0.09058   0.09175   0.12028
     Eigenvalues ---    0.12650   0.13563   0.13569   0.13585   0.13597
     Eigenvalues ---    0.15721   0.15861   0.15999   0.16000   0.16000
     Eigenvalues ---    0.16000   0.16000   0.16000   0.16721   0.21888
     Eigenvalues ---    0.21919   0.22052   0.22059   0.23481   0.23513
     Eigenvalues ---    0.23524   0.24984   0.24999   0.24999   0.25000
     Eigenvalues ---    0.25000   0.25000   0.25000   0.25457   0.30010
     Eigenvalues ---    0.30433   0.31238   0.34273   0.34286   0.34332
     Eigenvalues ---    0.34463   0.34465   0.34507   0.34640   0.35487
     Eigenvalues ---    0.35807   0.36235   0.37130   0.42533   0.43143
     Eigenvalues ---    0.45493   0.45680   0.46388   0.46933   0.47000
     Eigenvalues ---    0.47797   0.47984   0.48018   0.48066   0.48107
     Eigenvalues ---    0.48119   0.48194   0.48517   0.55515   0.90170
 RFO step:  Lambda= 0.00000000D+00 EMin= 2.57605917D-03
 Linear search not attempted -- first point.
 Iteration  1 RMS(Cart)=  0.00016852 RMS(Int)=  0.00000001
 Iteration  2 RMS(Cart)=  0.00000001 RMS(Int)=  0.00000000
 Variable       Old X    -DE/DX   Delta X   Delta X   Delta X     New X
                                 (Linear)    (Quad)   (Total)
    R1        2.63093  -0.00000   0.00000  -0.00000  -0.00000   2.63093
    R2        2.64321  -0.00000   0.00000  -0.00001  -0.00001   2.64320
    R3        2.64618  -0.00000   0.00000  -0.00001  -0.00001   2.64617
    R4        2.61732   0.00000   0.00000   0.00001   0.00001   2.61733
    R5        1.91408  -0.00000   0.00000  -0.00000  -0.00000   1.91408
    R6        2.32855  -0.00001   0.00000  -0.00001  -0.00001   2.32854
    R7        2.54678   0.00000   0.00000   0.00001   0.00001   2.54678
    R8        2.75650   0.00000   0.00000   0.00001   0.00001   2.75651
    R9        1.91194   0.00000   0.00000   0.00001   0.00001   1.91195
   R10        2.87108   0.00000   0.00000   0.00000   0.00000   2.87108
   R11        2.06850  -0.00000   0.00000  -0.00000  -0.00000   2.06850
   R12        2.06484   0.00000   0.00000   0.00001   0.00001   2.06484
   R13        2.87944  -0.00000   0.00000  -0.00001  -0.00001   2.87943
   R14        2.06773  -0.00000   0.00000  -0.00000  -0.00000   2.06773
   R15        2.06872   0.00000   0.00000   0.00000   0.00000   2.06873
   R16        2.06557   0.00000   0.00000   0.00000   0.00000   2.06557
   R17        2.06263   0.00000   0.00000   0.00000   0.00000   2.06263
   R18        2.06552   0.00000   0.00000   0.00000   0.00000   2.06553
   R19        2.61629  -0.00001   0.00000  -0.00001  -0.00001   2.61628
   R20        2.03716   0.00000   0.00000   0.00001   0.00001   2.03716
   R21        2.61652  -0.00000   0.00000  -0.00001  -0.00001   2.61651
   R22        3.41761  -0.00000   0.00000  -0.00001  -0.00001   3.41759
   R23        2.62424  -0.00000   0.00000  -0.00001  -0.00001   2.62423
   R24        2.04384   0.00000   0.00000   0.00000   0.00000   2.04384
   R25        2.61219  -0.00000   0.00000  -0.00000  -0.00000   2.61219
   R26        3.29261   0.00001   0.00000   0.00002   0.00002   3.29263
   R27        2.04891   0.00000   0.00000   0.00000   0.00000   2.04891
   R28        3.05569  -0.00000   0.00000  -0.00000  -0.00000   3.05569
   R29        3.05620  -0.00000   0.00000  -0.00000  -0.00000   3.05620
   R30        3.05512  -0.00001   0.00000  -0.00001  -0.00001   3.05511
   R31        3.05656  -0.00000   0.00000  -0.00001  -0.00001   3.05655
   R32        3.05856  -0.00000   0.00000  -0.00001  -0.00001   3.05855
    A1        2.15246  -0.00001   0.00000  -0.00003  -0.00003   2.15243
    A2        2.04624   0.00001   0.00000   0.00003   0.00003   2.04627
    A3        2.08396   0.00000   0.00000   0.00000   0.00000   2.08396
    A4        2.21342  -0.00001   0.00000  -0.00005  -0.00005   2.21337
    A5        2.01331   0.00001   0.00000   0.00003   0.00003   2.01334
    A6        2.04040   0.00001   0.00000   0.00003   0.00003   2.04043
    A7        2.14362  -0.00001   0.00000  -0.00004  -0.00004   2.14358
    A8        1.99782   0.00001   0.00000   0.00002   0.00002   1.99784
    A9        2.14171   0.00000   0.00000   0.00001   0.00001   2.14172
   A10        2.10621  -0.00000   0.00000  -0.00002  -0.00002   2.10620
   A11        2.09062   0.00000   0.00000  -0.00000  -0.00000   2.09062
   A12        2.06382   0.00000   0.00000   0.00001   0.00001   2.06383
   A13        1.92663   0.00000   0.00000   0.00001   0.00001   1.92664
   A14        1.91447   0.00000   0.00000   0.00003   0.00003   1.91450
   A15        1.90225  -0.00000   0.00000  -0.00004  -0.00004   1.90221
   A16        1.92285  -0.00000   0.00000  -0.00001  -0.00001   1.92284
   A17        1.92252   0.00000   0.00000   0.00001   0.00001   1.92254
   A18        1.87428   0.00000   0.00000  -0.00000  -0.00000   1.87428
   A19        1.93796  -0.00000   0.00000  -0.00001  -0.00001   1.93795
   A20        1.90710   0.00000   0.00000   0.00003   0.00003   1.90713
   A21        1.90711   0.00000   0.00000  -0.00000  -0.00000   1.90711
   A22        1.92196   0.00000   0.00000   0.00001   0.00001   1.92196
   A23        1.92002   0.00000   0.00000   0.00000   0.00000   1.92002
   A24        1.86830  -0.00000   0.00000  -0.00003  -0.00003   1.86827
   A25        1.93793   0.00000   0.00000   0.00001   0.00001   1.93794
   A26        1.93926  -0.00000   0.00000   0.00000   0.00000   1.93926
   A27        1.93803   0.00000   0.00000   0.00001   0.00001   1.93804
   A28        1.88216  -0.00000   0.00000   0.00000   0.00000   1.88216
   A29        1.88207  -0.00000   0.00000  -0.00003  -0.00003   1.88203
   A30        1.88195  -0.00000   0.00000   0.00001   0.00001   1.88196
   A31        2.05743   0.00000   0.00000   0.00001   0.00001   2.05744
   A32        2.10325  -0.00000   0.00000  -0.00001  -0.00001   2.10325
   A33        2.12247  -0.00000   0.00000  -0.00000  -0.00000   2.12246
   A34        2.17385  -0.00000   0.00000  -0.00000  -0.00000   2.17384
   A35        2.05152   0.00000   0.00000   0.00001   0.00001   2.05152
   A36        2.05780  -0.00000   0.00000  -0.00000  -0.00000   2.05780
   A37        2.02138  -0.00000   0.00000  -0.00000  -0.00000   2.02137
   A38        2.14668  -0.00000   0.00000  -0.00001  -0.00001   2.14667
   A39        2.11513   0.00000   0.00000   0.00001   0.00001   2.11514
   A40        2.13645   0.00000   0.00000   0.00001   0.00001   2.13646
   A41        2.07146  -0.00000   0.00000  -0.00000  -0.00000   2.07146
   A42        2.07525  -0.00000   0.00000  -0.00001  -0.00001   2.07525
   A43        2.09316  -0.00000   0.00000  -0.00001  -0.00001   2.09315
   A44        2.09049   0.00000   0.00000   0.00001   0.00001   2.09050
   A45        2.09954   0.00000   0.00000  -0.00000  -0.00000   2.09954
   A46        1.62536   0.00001   0.00000   0.00005   0.00005   1.62541
   A47        1.62386   0.00001   0.00000   0.00004   0.00004   1.62390
   A48        1.62521  -0.00000   0.00000  -0.00000  -0.00000   1.62521
   A49        1.62352  -0.00000   0.00000  -0.00000  -0.00000   1.62352
   A50        1.56738   0.00000   0.00000   0.00001   0.00001   1.56739
   A51        1.56880  -0.00000   0.00000  -0.00000  -0.00000   1.56880
   A52        1.51723  -0.00000   0.00000  -0.00002  -0.00002   1.51720
   A53        1.56771  -0.00000   0.00000  -0.00002  -0.00002   1.56769
   A54        1.51704  -0.00000   0.00000  -0.00003  -0.00003   1.51702
   A55        1.56778   0.00000   0.00000  -0.00001  -0.00001   1.56777
   A56        1.51708  -0.00000   0.00000  -0.00002  -0.00002   1.51706
   A57        1.51708  -0.00000   0.00000  -0.00003  -0.00003   1.51705
   A58        3.14259   0.00000   0.00000   0.00003   0.00003   3.14262
   A59        3.24888   0.00001   0.00000   0.00005   0.00005   3.24893
   A60        3.24907   0.00001   0.00000   0.00004   0.00004   3.24911
   A61        3.14090   0.00000   0.00000   0.00002   0.00002   3.14092
   A62        3.14242  -0.00000   0.00000  -0.00001  -0.00001   3.14241
   A63        3.14204   0.00000   0.00000   0.00002   0.00002   3.14206
    D1        0.37527  -0.00000   0.00000  -0.00010  -0.00010   0.37517
    D2       -2.96520  -0.00000   0.00000  -0.00001  -0.00001  -2.96521
    D3       -2.80120  -0.00000   0.00000  -0.00007  -0.00007  -2.80127
    D4        0.14152   0.00000   0.00000   0.00001   0.00001   0.14154
    D5        3.12276  -0.00000   0.00000  -0.00001  -0.00001   3.12274
    D6       -0.00991  -0.00000   0.00000  -0.00003  -0.00003  -0.00994
    D7        0.01675  -0.00000   0.00000  -0.00004  -0.00004   0.01671
    D8       -3.11591  -0.00000   0.00000  -0.00005  -0.00005  -3.11597
    D9       -3.11411  -0.00000   0.00000  -0.00003  -0.00003  -3.11414
   D10        0.02862   0.00000   0.00000   0.00001   0.00001   0.02862
   D11       -0.00596  -0.00000   0.00000  -0.00000  -0.00000  -0.00596
   D12        3.13676   0.00000   0.00000   0.00003   0.00003   3.13680
   D13       -0.04529  -0.00000   0.00000  -0.00009  -0.00009  -0.04539
   D14        3.10546   0.00000   0.00000   0.00004   0.00004   3.10551
   D15       -2.98531  -0.00000   0.00000  -0.00018  -0.00018  -2.98549
   D16        0.16544  -0.00000   0.00000  -0.00004  -0.00004   0.16540
   D17       -3.03677  -0.00000   0.00000  -0.00007  -0.00007  -3.03684
   D18       -0.12559  -0.00000   0.00000  -0.00010  -0.00010  -0.12569
   D19        0.11397   0.00000   0.00000   0.00007   0.00007   0.11404
   D20        3.02516   0.00000   0.00000   0.00004   0.00004   3.02519
   D21        3.13905  -0.00000   0.00000  -0.00004  -0.00004   3.13901
   D22        1.01704  -0.00000   0.00000  -0.00005  -0.00005   1.01698
   D23       -1.03046  -0.00000   0.00000  -0.00005  -0.00005  -1.03051
   D24        0.22441  -0.00000   0.00000  -0.00001  -0.00001   0.22440
   D25       -1.89761   0.00000   0.00000  -0.00002  -0.00002  -1.89763
   D26        2.33809   0.00000   0.00000  -0.00001  -0.00001   2.33807
   D27       -3.13051  -0.00000   0.00000   0.00004   0.00004  -3.13046
   D28        1.02932  -0.00000   0.00000   0.00002   0.00002   1.02934
   D29       -1.00955  -0.00000   0.00000   0.00004   0.00004  -1.00952
   D30       -1.01346   0.00000   0.00000   0.00008   0.00008  -1.01339
   D31       -3.13683   0.00000   0.00000   0.00006   0.00006  -3.13677
   D32        1.10749   0.00000   0.00000   0.00007   0.00007   1.10756
   D33        1.05111   0.00000   0.00000   0.00008   0.00008   1.05119
   D34       -1.07225   0.00000   0.00000   0.00006   0.00006  -1.07220
   D35       -3.11112   0.00000   0.00000   0.00007   0.00007  -3.11105
   D36       -1.04300   0.00000   0.00000   0.00005   0.00005  -1.04295
[...]
 00801,-0.00001580,-0.00000777,0.00000426,0.00000245,0.00000684,0.00000
 194,0.00000102,-0.00000306,-0.00000082,-0.00041830,-0.00362912,0.00132
 082,-0.01466819,0.00822523,0.00231881,-0.31047202,0.10101110,0.0444226
 4,0.00082472,-0.00067206,0.00038649,0.00131178,-0.00035738,0.00080676,
 -0.00000253,0.00002772,-0.00001638,-0.00000345,0.00001016,0.00001147,0
 .00001003,-0.00000069,0.00000035,0.00000574,0.00000191,-0.00000079,-0.
 00000034,-0.00000037,-0.00000046,-0.00000043,-0.00000023,0.00000011,0.
 00000019,0.00000014,-0.00000005,0.00000153,0.00000022,0.00000020,0.000
 00006,0.00000007,0.00000002,-0.00034113,0.00055991,0.00020842,0.000768
 40,-0.00138766,-0.00058206,0.00020128,-0.00006377,0.00000707,-0.004083
 99,-0.00119160,0.00045368,0.32417181,-0.00045707,-0.00119135,0.0001325
 3,0.00004249,0.00027373,-0.00002352,0.00005428,-0.00013069,-0.00007158
 ,-0.00014876,0.00011981,-0.00002383,-0.00002625,0.00004372,0.00002545,
 0.00001068,0.00000189,0.00000348,0.00000033,-0.00000167,-0.00000007,-0
 .00000033,0.00000111,0.00000029,-0.00297861,-0.00284577,0.00102757,-0.
 01718894,0.01134641,0.00246646,0.10020777,-0.09585865,-0.01465781,0.02
 744720,-0.00705885,-0.00438872,-0.00027220,-0.00520417,0.00053315,-0.0
 0009108,0.00000159,0.00002684,-0.00000371,-0.00000133,-0.00000041,-0.0
 0000204,-0.00000124,-0.00000125,-0.00000221,-0.00000016,-0.00000039,-0
 .00000018,0.00000053,0.00000009,0.00000007,0.00000032,0.00000005,-0.00
 000005,-0.00000006,0.,-0.00000056,-0.00000003,-0.00000006,-0.00000015,
 -0.00000006,-0.00000006,-0.00069139,0.00061585,0.00018976,0.00056585,0
 .00096206,-0.00037028,0.00129003,-0.00013558,-0.00019086,-0.00384362,-
 0.00068256,0.00070757,-0.10507262,0.10200266,-0.00032709,-0.00000359,-
 0.00130802,-0.00007663,0.00019018,-0.00044296,0.00001724,0.00013828,-0
 .00005598,0.00022520,-0.00008865,-0.00002568,-0.00002632,-0.00001102,0
 .00006131,0.00000464,-0.00000504,0.00001576,-0.00000082,-0.00000053,-0
 .00000059,-0.00000033,0.00000041,-0.00000106,0.00151092,0.00084670,0.0
 0530137,0.00345740,-0.00195827,0.00055889,0.04446588,-0.01508210,-0.03
 868448,-0.00088967,0.00066884,0.00299552,0.00052288,0.00066234,0.00533
 813,0.00000653,-0.00003561,0.00005766,0.00000058,-0.00000969,0.0000208
 1,0.00000433,-0.00000514,-0.00000769,-0.00000455,0.00000568,-0.0000016
 2,0.,-0.00000077,-0.00000073,0.00000029,0.00000029,-0.00000011,0.00000
 010,0.00000029,0.,0.00000009,0.00000003,0.00000006,-0.00000035,0.,-0.0
 0000010,0.00018748,-0.00004107,0.00087527,-0.00075935,0.00005279,-0.00
 242076,-0.00005060,0.00005954,0.00020549,0.00052608,0.00015295,-0.0015
 1575,-0.04778823,0.01493057,0.03039445,0.00036460,0.00022043,-0.001006
 97,0.00052401,-0.00034743,-0.00004380,-0.00047004,-0.00030965,-0.00003
 243,0.00010171,0.00015720,0.00004249,0.00018775,-0.00003883,-0.0000233
 7,-0.00003394,-0.00003088,-0.00000469,0.00000756,0.00001315,0.00000435
 ,0.00000292,-0.00000834,-0.00000220,-0.00211637,-0.00039751,-0.0003955
 2,-0.00355605,0.00479383,0.00850749,0.00228367,-0.00222686,0.00048520,
 -0.00023992,0.00025459,-0.00054420,0.00012036,-0.00021162,0.00016484,0
 .00007581,0.00002917,0.00002819,-0.00000484,0.00001648,0.00000862,0.00
 001761,-0.00000303,0.00000446,0.00001131,0.00000684,-0.00000192,-0.000
 00049,-0.00000107,-0.00000089,-0.00000020,0.00000009,-0.00000042,0.000
 00149,0.00000079,-0.00000054,0.00000267,0.00000084,0.00000054,0.000000
 89,-0.00000042,0.00000002,0.00123073,0.00102230,-0.00013365,-0.0003045
 4,-0.00050417,-0.00000103,0.00009419,0.00000975,0.00006935,-0.08547299
 ,-0.01465895,0.05162256,0.00031771,0.00045246,0.00010056,0.13769336,-0
 .00170536,0.00236417,0.00006705,0.00172344,-0.00056740,-0.00018225,-0.
 00147033,-0.00064534,-0.00000785,0.00057258,0.00030077,0.00010349,0.00
 059804,-0.00017673,-0.00013175,-0.00013138,-0.00008588,0.00000206,0.00
 001596,0.00004339,0.00001454,0.00000617,-0.00002149,-0.00000742,0.0010
 1543,-0.00466074,0.00256014,-0.01738103,-0.00625161,0.02139061,0.00510
 140,-0.00237370,0.00183505,0.00032739,-0.00103463,-0.00148958,-0.00098
 076,-0.00101291,0.00052050,0.00012747,0.00011338,-0.00001083,0.0000013
 0,0.00005791,0.00002700,0.00004282,0.00001235,0.00001353,0.00003387,0.
 00000762,0.00000038,-0.00000057,-0.00000339,-0.00000307,-0.00000143,-0
 .00000280,-0.00000029,0.00000109,0.00000202,-0.00000088,0.00001087,0.0
 0000168,0.00000130,0.00000118,0.00000056,0.00000131,-0.00071362,-0.002
 23265,0.00099754,-0.00085652,-0.00109087,0.00005201,-0.00003302,-0.000
 05404,-0.00002198,-0.01236417,-0.06589676,0.02299147,0.00012815,0.0002
 3003,0.00032137,0.00379393,0.08892330,0.00080189,-0.00092909,0.0005766
 9,-0.00130565,0.00056773,0.00013965,0.00116712,0.00051159,-0.00000469,
 -0.00046849,-0.00025049,-0.00003283,-0.00047128,0.00015412,0.00009213,
 0.00009892,0.00006656,0.00000304,-0.00001337,-0.00003339,-0.00001153,-
 0.00000482,0.00001670,0.00000352,0.00010770,0.00313737,-0.00032624,0.0
 1656274,-0.00643370,-0.01126833,-0.00480049,0.00573496,-0.00095109,0.0
 0104643,-0.00040311,0.00055406,-0.00017308,0.00058462,-0.00021114,-0.0
 0015125,-0.00007505,-0.00003121,0.00000018,-0.00004681,-0.00002923,-0.
 00003079,-0.00000799,-0.00000703,-0.00002828,-0.00000766,-0.00000022,0
 .00000064,0.00000341,0.00000353,-0.00000102,0.00000214,0.00000043,-0.0
 0000187,-0.00000171,0.00000049,-0.00000836,-0.00000134,-0.00000112,-0.
 00000031,0.00000003,0.00000028,-0.00017272,0.00127689,-0.00091354,0.00
 072404,0.00119161,-0.00003853,-0.00005050,0.00004458,-0.00003288,0.051
 22306,0.02596497,-0.13236963,-0.00024959,-0.00044494,-0.00017257,-0.08
 897264,-0.01258916,0.20776402,-0.00000001,-0.00066395,0.00127156,-0.00
 116970,0.00104004,0.00024165,0.00142452,0.00050305,0.00000619,-0.00061
 268,-0.00021932,-0.00011442,-0.00059455,0.00019064,0.00011734,0.000123
 84,0.00008322,0.00001662,-0.00001650,-0.00004243,-0.00001320,-0.000007
 34,0.00002230,0.00000585,0.00261767,0.00576515,-0.00254451,-0.01722464
 ,-0.00946418,-0.01143881,-0.00269746,0.00229013,0.00003932,0.00034624,
 -0.00053619,0.00095472,-0.00039806,0.00065554,-0.00027760,-0.00029166,
 -0.00008410,-0.00000805,0.00000504,-0.00006024,-0.00002514,-0.00004183
 ,-0.00000979,-0.00001256,-0.00003133,-0.00000921,-0.00000178,0.0000004
 2,0.00000247,0.00000380,-0.00000042,0.00000442,-0.00000091,-0.00000062
 ,-0.00000155,-0.00000001,-0.00001151,-0.00000100,-0.00000113,-0.000000
 71,-0.00000112,-0.00000047,0.00075800,-0.00049367,-0.00053894,0.000677
 47,0.00084116,-0.00011268,0.00005445,0.00004731,-0.00010330,-0.1343315
 6,0.00787298,-0.05542629,0.00102461,0.00051077,-0.00081148,-0.04318042
 ,-0.00366120,-0.00139531,0.20551791,-0.00095476,-0.00092242,-0.0008319
 1,0.00147067,-0.00065659,-0.00029644,-0.00130716,-0.00062652,-0.000008
 48,0.00044086,0.00032257,0.00010221,0.00051146,-0.00013781,-0.00009063
 ,-0.00010884,-0.00007003,-0.00000919,0.00001349,0.00003587,0.00001249,
 0.00000464,-0.00001760,-0.00000445,-0.00268339,-0.00242255,0.00259660,
 0.02216558,-0.00241799,0.01074786,0.00097391,-0.00465779,0.00285140,0.
 00050738,0.00218849,-0.00007411,0.00170197,-0.00060486,-0.00004265,0.0
 0018286,0.00010135,-0.00003078,-0.00000706,0.00004798,0.00002105,0.000
 03869,0.00000672,0.00001146,0.00002861,0.00000726,-0.00000039,-0.00000
 158,-0.00000258,-0.00000221,0.00000022,-0.00000286,0.00000013,0.000000
 78,0.00000153,-0.00000064,0.00000928,0.00000137,0.00000103,0.00000090,
 0.00000052,0.00000104,-0.00011959,0.00010929,0.00036402,-0.00051112,-0
 .00050567,0.00012303,0.00004106,-0.00003153,-0.00008117,0.00441930,-0.
 05963080,0.00358404,0.00150134,-0.00135212,0.00016481,-0.00985880,0.00
 486785,0.00064797,0.01834482,0.09159401,-0.00048853,-0.00066046,0.0004
 8797,-0.00083515,0.00076490,0.00017918,0.00093667,0.00034706,0.0000394
 5,-0.00035771,-0.00017962,-0.00006431,-0.00038383,0.00011123,0.0000656
 8,0.00008083,0.00005865,0.00000455,-0.00000998,-0.00002664,-0.00001352
 ,-0.00000438,0.00001380,0.00000408,0.00149265,0.00498549,-0.00139768,-
 0.01303052,-0.00827911,-0.00123992,-0.00052854,0.00281216,-0.00047975,
 -0.00021693,-0.00060821,0.00014573,-0.00019825,0.00040578,-0.00005844,
 -0.00019670,-0.00006446,-0.00000017,0.00000193,-0.00003993,-0.00001857
 ,-0.00002583,-0.00000781,-0.00000652,-0.00002162,-0.00000606,-0.000001
 82,0.00000030,0.00000285,0.00000281,0.00000020,0.00000217,0.00000016,-
 0.00000077,-0.00000129,0.00000009,-0.00000716,-0.00000071,-0.00000083,
 0.00000002,-0.00000053,-0.00000027,0.00031860,-0.00019738,-0.00025027,
 0.00039394,0.00048925,-0.00009536,0.00000501,0.00004850,-0.00000611,-0
 .05563349,0.00558508,-0.08935388,-0.00069204,0.00082731,-0.00044913,0.
 02034319,0.00244902,0.00436126,0.08902809,0.01124591,0.13725639,0.0004
 9043,0.00040866,0.00073814,0.00089646,-0.00044939,-0.00002220,-0.00081
 702,-0.00052350,-0.00001286,0.00028520,0.00019042,0.00003291,0.0003353
 6,-0.00008279,-0.00005302,-0.00006885,-0.00004667,-0.00001121,0.000012
 56,0.00002226,0.00000662,0.00000306,-0.00001059,-0.00000300,-0.0017532
 7,-0.00099665,0.00130916,-0.01250622,0.00587984,-0.00842907,0.00330815
 ,-0.00429798,-0.00142797,-0.00035708,0.00056132,0.00089230,0.00015700,
 -0.00042997,-0.00021951,0.00010554,0.00004913,-0.00000962,-0.00000950,
 0.00003421,0.00001330,0.00002707,0.00000295,0.00001053,0.00001957,0.00
 000557,-0.00000134,-0.00000121,0.00000083,0.00000016,0.00000095,-0.000
 00226,-0.00000099,0.00000120,0.00000041,-0.00000125,0.00000490,0.00000
 187,0.00000089,0.00000146,-0.00000034,0.00000144,0.00107482,0.00056148
 ,-0.00062617,-0.00048254,-0.00086750,0.00022070,0.00008231,-0.00000977
 ,-0.00010533,-0.12389940,-0.02976662,-0.05025507,0.00028148,0.00054641
 ,-0.00039250,0.00342599,-0.00081237,0.00050889,-0.00429166,0.00028749,
 -0.00538654,0.20440740,-0.00198335,0.00246593,0.00032044,0.00199375,-0
 .00056317,-0.00012916,-0.00163876,-0.00068814,-0.00007095,0.00063866,0
 .00040122,0.00016725,0.00064455,-0.00017742,-0.00013006,-0.00013827,-0
 .00009790,0.00000192,0.00001815,0.00004596,0.00001483,0.00000639,-0.00
 002212,-0.00000755,-0.00010422,-0.00575229,-0.00263838,-0.02540765,-0.
 00757932,-0.01355237,0.00456674,-0.00340743,-0.00324138,0.00067987,-0.
 00070743,0.00155091,-0.00095592,-0.00110994,-0.00003692,0.00013986,0.0
 0011662,0.00001603,-0.00000190,0.00005797,0.00002539,0.00004780,0.0000
 1072,0.00001406,0.00003580,0.00000893,-0.00000076,-0.00000191,-0.00000
 334,-0.00000269,-0.00000108,-0.00000356,-0.00000032,0.00000130,0.00000
 190,-0.00000104,0.00001153,0.00000186,0.00000139,0.00000171,0.00000042
 ,0.00000165,-0.00095623,-0.00172630,-0.00011167,-0.00089276,-0.0012065
 5,0.00035333,-0.00001929,-0.00005993,0.00001860,-0.02600176,-0.0707007
 2,-0.02004208,0.00001693,0.00022806,-0.00044064,-0.00048671,0.00676868
 ,0.00097973,-0.00402004,0.00688013,-0.00223058,0.01967931,0.09210427,-
 0.00069496,0.00049162,0.00013222,0.00086543,-0.00030790,-0.00004876,-0
 .00079109,-0.00034693,-0.00005997,0.00032756,0.00018777,0.00008449,0.0
 0030674,-0.00009712,-0.00005106,-0.00006872,-0.00004390,-0.00000918,0.
 00001017,0.00002172,0.00000792,0.00000231,-0.00000895,-0.00000253,0.00
 048263,-0.00230705,-0.00015451,-0.01323699,0.00465097,-0.00091233,0.00
 281033,-0.00438650,-0.00102440,-0.00082565,0.00047158,0.00048773,0.000
 24274,-0.00039364,-0.00003488,0.00010185,0.00004703,-0.00001422,-0.000
 00118,0.00002849,0.00000787,0.00002264,0.00000487,0.00000859,0.0000158
 8,0.00000334,-0.00000041,-0.00000140,0.00000018,0.00000010,0.00000106,
 -0.00000324,-0.00000008,0.00000023,0.00000027,-0.00000059,0.00000530,0
 .00000141,0.00000066,0.00000129,0.00000028,0.00000145,-0.00047498,-0.0
 0097871,-0.00025006,-0.00045043,-0.00080870,0.00018745,0.00000988,-0.0
 0004352,-0.00002226,-0.05016495,-0.02220875,-0.08748962,0.00007084,0.0
 0021425,-0.00018014,-0.01864898,-0.00663324,-0.04410794,-0.00561174,0.
 00012371,-0.00136954,0.08730020,0.01700605,0.13618469,0.00001909,-0.00
 036276,-0.00071594,-0.00095674,0.00059258,-0.00007085,0.00100814,0.000
 36034,0.00002986,-0.00046539,-0.00015686,-0.00009457,-0.00042770,0.000
 14569,0.00007660,0.00008772,0.00006293,0.00001043,-0.00001243,-0.00003
 041,-0.00000729,-0.00000483,0.00001600,0.00000403,0.00252347,0.0037618
 7,0.00064165,-0.00734535,-0.00432137,0.01469773,-0.00216585,0.00124476
 ,0.00025643,0.00008106,-0.00049260,-0.00095440,-0.00032904,0.00050111,
 0.00023843,-0.00017484,-0.00004838,-0.00004649,0.00000584,-0.00004223,
 -0.00001975,-0.00003032,-0.00000604,-0.00000884,-0.00002202,-0.0000064
 0,-0.00000189,0.00000031,0.00000080,0.00000219,-0.00000049,0.00000381,
 -0.00000054,-0.00000029,-0.00000090,-0.00000002,-0.00000832,-0.0000007
 4,-0.00000066,-0.00000113,-0.00000083,-0.00000051,0.00068167,-0.000332
 38,0.00020586,0.00049231,0.00061969,-0.00014160,0.00007153,0.00003293,
 0.00008456,-0.09189173,0.01050407,0.05532721,0.00069866,-0.00044515,0.
 00012679,-0.00018382,-0.00250254,0.00549779,0.00338861,-0.00159795,-0.
 01943287,-0.04303775,-0.00317427,0.01999878,0.13738511,-0.00065616,-0.
 00079510,0.00118763,0.00172985,-0.00059988,0.00001507,-0.00142133,-0.0
 0070537,-0.00004841,0.00047685,0.00036547,0.00012337,0.00056598,-0.000
 15740,-0.00012020,-0.00011817,-0.00007588,-0.00001499,0.00001510,0.000
 03979,0.00001315,0.00000545,-0.00001902,-0.00000527,-0.00376846,-0.003
 21452,-0.00124409,0.01833997,-0.00313265,-0.01868880,0.00010948,-0.005
 08280,-0.00225327,0.00043099,0.00229465,-0.00034254,0.00170080,-0.0006
 9528,-0.00040223,0.00016912,0.00009478,0.00002181,-0.00000628,0.000053
 68,0.00002750,0.00004033,0.00000856,0.00001319,0.00003235,0.00000704,0
 .,-0.00000103,-0.00000197,-0.00000238,0.00000022,-0.00000383,-0.000000
 23,0.00000087,0.00000153,-0.00000061,0.00001017,0.00000148,0.00000119,
 0.00000109,0.00000067,0.00000106,-0.00027885,0.00010027,-0.00030996,-0
 .00056585,-0.00057162,0.00012335,0.00006054,-0.00002219,0.00006011,0.0
 0818179,-0.06090376,-0.01142731,0.00069845,-0.00165767,-0.00043930,0.0
 0059060,0.00706313,-0.00148665,-0.00011290,0.00669864,-0.00188362,-0.0
 1054683,0.00476733,0.00315083,0.00539775,0.08867533,0.00062076,0.00093
 967,0.00029669,0.00120283,-0.00089898,0.00005000,-0.00123777,-0.000496
 90,-0.00005158,0.00051639,0.00023679,0.00011982,0.00051250,-0.00015409
 ,-0.00008156,-0.00011009,-0.00007372,-0.00003294,0.00001512,0.00003533
 ,0.00001454,0.00000522,-0.00001727,-0.00000449,-0.00251199,-0.00648993
 ,-0.00047174,0.01316960,0.01038155,-0.01047452,0.00110586,-0.00277799,
 -0.00002404,0.00016336,0.00062026,0.00053087,0.00016998,-0.00053887,-0
 .00017680,0.00023828,0.00006989,0.00005500,-0.00000347,0.00005282,0.00
 002062,0.00003622,0.00000846,0.00001277,0.00002894,0.00000675,0.000002
 07,-0.00000083,-0.00000165,-0.00000135,0.00000005,-0.00000467,0.,0.000
 00042,0.00000072,-0.00000027,0.00000946,0.00000129,0.00000102,0.000000
 91,0.00000107,0.00000172,-0.00063069,0.00031664,-0.00015507,-0.0005509
 7,-0.00069835,0.00012788,-0.00004321,-0.00006081,-0.00004736,0.0559147
 5,-0.01427356,-0.12929768,-0.00025949,-0.00087865,-0.00058340,0.004859
 07,0.00224880,-0.00557056,0.00111511,-0.00379059,-0.04445185,-0.000976
 52,-0.00118709,0.00434349,-0.08922486,-0.00643160,0.20653208,0.0002851
 6,-0.00037293,0.00012089,-0.00009125,0.00003450,-0.00003238,0.00010408
 ,-0.00000874,-0.00003694,-0.00007153,0.00002220,-0.00001131,-0.0000526
 4,0.00003524,0.00001406,0.00001184,0.00000498,0.00000746,-0.00000063,-
 0.00000380,-0.00000094,-0.00000063,0.00000207,-0.00000032,-0.00022600,
 -0.00053833,0.00005147,0.00299671,0.00032131,-0.00023022,-0.00054102,0
 .00058558,0.00000014,0.00003599,0.00030418,0.00009153,0.00016919,0.000
 05191,-0.00015019,-0.00000991,-0.00001149,0.00001380,0.00000082,-0.000
 00434,-0.00000423,-0.00000427,-0.00000004,-0.00000068,-0.00000174,-0.0
 0000002,0.00000012,0.00000009,-0.00000030,0.00000054,-0.00000039,0.000
 00063,-0.00000050,0.00000038,-0.00000010,-0.00000030,-0.00000140,0.000
 00023,0.,0.00000004,-0.00000036,0.00000014,0.00030828,-0.00008654,-0.0
 0002088,0.00009130,0.00009970,-0.00003157,0.00002017,0.00000922,-0.000
 00198,-0.05409596,0.01498133,-0.00029921,0.00015430,0.00009660,-0.0000
 2906,-0.01090072,0.02911322,0.02056040,-0.01103611,-0.03549506,-0.0151
 5059,-0.02769642,0.03730178,-0.02160478,0.00061453,-0.02108189,0.01586
 507,0.09993771,-0.00072254,0.00030402,0.00014669,0.00093307,-0.0003069
 3,-0.00010296,-0.00076555,-0.00029922,0.00000638,0.00032384,0.00014149
 ,0.00005516,0.00031644,-0.00009583,-0.00006846,-0.00006688,-0.00004525
 ,-0.00000659,0.00000856,0.00002185,0.00000833,0.00000395,-0.00001164,-
 0.00000402,-0.00046281,-0.00061451,0.00010112,0.00038684,0.00088309,-0
 .00004388,0.00043162,-0.00040788,-0.00008366,0.00032506,0.00044303,-0.
 00000909,0.00022635,-0.00040932,-0.00004590,0.00007626,0.00004822,-0.0
 0000444,0.00000012,0.00002959,0.00001368,0.00002202,0.00000562,0.00000
 679,0.00001786,0.00000460,0.00000077,-0.00000046,-0.00000215,-0.000001
 40,-0.00000042,-0.00000175,0.00000006,0.00000067,0.00000089,-0.0000005
 7,0.00000602,0.00000055,0.00000060,0.00000048,0.00000038,0.00000083,-0
 .00042934,0.00014452,0.00002963,-0.00037446,-0.00042352,0.00007805,0.0
 0000097,-0.00002891,-0.00000148,0.01498848,-0.15579294,0.00303818,0.00
 029736,0.00029420,-0.00007367,0.01772182,-0.02464589,-0.01817389,-0.01
 879312,-0.03880386,-0.01596275,0.02061108,-0.02005445,0.01216376,-0.00
 972252,-0.03253342,0.02385469,-0.02536077,0.27215542,0.00003571,0.0000
 7082,0.00027597,-0.00003852,0.00000995,-0.00000812,0.00002604,0.000013
 75,-0.00001706,-0.00001727,-0.00000665,0.00001744,-0.00001139,0.000002
 13,-0.00000623,0.00000170,0.00000039,-0.00000345,-0.00000007,-0.000000
 23,-0.00000072,0.00000009,0.00000019,0.00000034,0.00006848,0.00011888,
 -0.00011135,-0.00021015,0.00002020,0.00210580,0.00002956,-0.00007563,-
 0.00025793,0.00006129,-0.00007127,0.00037874,-0.00010614,-0.00001504,-
 0.00033844,-0.00000294,-0.00000248,-0.00000334,-0.00000030,-0.00000034
 ,-0.00000134,-0.00000044,-0.00000005,0.00000102,-0.00000155,-0.0000007
 8,-0.00000059,0.00000014,0.00000093,0.00000071,0.00000038,-0.00000061,
 -0.00000002,-0.00000038,-0.00000021,0.00000002,-0.00000027,0.00000006,
 -0.00000013,0.00000026,0.00000018,0.00000038,-0.00004603,0.00002135,0.
 00000003,-0.00000512,0.00000811,-0.00003891,-0.00000509,-0.00000110,-0
 .00000782,-0.00026394,0.00300105,-0.05098063,-0.00002665,-0.00003293,0
 .00002602,0.02357233,-0.03451885,-0.01741877,-0.01436193,-0.02733512,-
 0.00328942,-0.02310102,0.02335206,-0.00571418,0.01352273,0.04036321,-0
 .02068336,0.00088048,-0.00492198,0.09607533\\0.00000333,-0.00000271,-0
 .00000419,0.00000710,0.00000221,-0.00000475,-0.00000594,-0.00000761,-0
 .00000961,0.00000502,0.00000502,0.00000922,-0.00000161,0.00000160,0.00
 000587,-0.00000139,0.00000384,-0.00000554,-0.00000028,0.00000127,0.000
 00197,0.00000700,0.00001029,0.00000458,0.00000574,0.00000444,-0.000002
 09,-0.00000579,-0.00000559,-0.00000014,-0.00000250,-0.00000089,-0.0000
 0702,-0.00000664,-0.00001508,-0.00000798,-0.00000047,-0.00000429,-0.00
 000650,0.00000215,-0.00000027,-0.00000481,0.00000454,0.00000756,-0.000
 00503,-0.00000427,-0.00000060,0.00000461,0.00000444,0.00000418,0.00000
 816,0.00000315,0.00001240,-0.00000281,0.00000377,0.00000520,-0.0000025
 1,0.00000044,0.00000570,0.00000483,0.00000285,0.00000757,0.00000282,-0
 .00000157,-0.00000014,0.00000572,-0.00000421,-0.00000180,0.00000245,0.
 00000453,-0.00000408,-0.00001561,0.00000263,-0.00000282,-0.00001301,-0
 .00000725,0.00001051,0.00000760,-0.00000186,-0.00000804,-0.00000450,-0
 .00000114,-0.00000440,0.00000674,-0.00000050,-0.00000751,0.00000086,0.
 00000008,-0.00000594,0.00001126,-0.00000698,-0.00001150,0.00000895,-0.
 00000441,0.00000146,0.00001046\\\@


 ONLY THE DAY DAWNS TO WHICH YOU ARE AWAKE.

                                 -- THOREAU
 Job cpu time:       0 days  6 hours 20 minutes  8.6 seconds.
 File lengths (MBytes):  RWF=    944 Int=      0 D2E=      0 Chk=     27 Scr=      1
 Normal termination of Gaussian 09 at Thu Nov 14 11:12:59 2019.
pbs_rusage has been removed.
Please contact help@nci.org.au if you require this functionality.
