Process 0 of 1 is on r4148 - thread support 0
initial socket setup ...start
initial socket setup ...done 
now start server 0 ... 
r4148 10.9.71
Q-Chem Developer Version! Running on 10.9.71.*
                  Welcome to Q-Chem
     A Quantum Leap Into The Future Of Chemistry


 Q-Chem 5.0, Q-Chem, Inc., Pleasanton, CA (2017)

 Yihan Shao,  Zhengting Gan,  E. Epifanovsky,  A. T. B. Gilbert,  M. Wormit,  
 J. Kussmann,  A. W. Lange,  A. Behn,  Jia Deng,  Xintian Feng,  D. Ghosh,  
 M. Goldey,  P. R. Horn,  L. D. Jacobson,  I. Kaliman,  T. Kus,  A. Landau,  
 Jie Liu,  E. I. Proynov,  R. M. Richard,  R. P. Steele,  E. J. Sundstrom,  
 H. L. Woodcock III,  P. M. Zimmerman,  D. Zuev,  B. Albrecht,  E. Alguire,  
 S. A. Baeppler,  Z. Benda,  Y. A. Bernard,  E. J. Berquist,  K. B. Bravaya,  
 D. Casanova,  Chun-Min Chang,  Yunqing Chen,  A. Chien,  K. D. Closser,  
 M. P. Coons,  S. Dasgupta,  M. Diedenhofen,  Hainam Do,  R. G. Edgar,  
 Po-Tung Fang,  S. Fatehi,  Qingguo Feng,  Qinghui Ge,  A. Ghysels,  
 J. Gomes,  J. Gonthier,  A. Gunina,  M. W. D. Hanson-Heine,  
 P. H. P. Harbach,  A. W. Hauser,  J. E. Herr,  E. G. Hohenstein,  
 Z. C. Holden,  Kerwin Hui,  T.-C. Jagau,  Hyunjun Ji,  B. Kaduk,  
 K. Khistyaev,  Jaehoon Kim,  P. Klunzinger,  K. Koh,  D. Kosenkov,  
 T. Kowalczyk,  C. M. Krauter,  A. Kunitsa,  Ka Un Lao,  A. Laurent,  
 K. V. Lawler,  Joonho Lee,  D. Lefrancois,  S. Lehtola,  D. S. Levine,  
 Yi-Pei Li,  You-Sheng Lin,  Fenglai Liu,  E. Livshits,  A. Luenser,  
 P. Manohar,  E. Mansoor,  S. F. Manzer,  Shan-Ping Mao,  Yuezhi Mao,  
 N. Mardirossian,  A. V. Marenich,  L. A. Martinez-Martinez,  S. A. Maurer,  
 N. J. Mayhall,  S. C. McKenzie,  J.-M. Mewes,  A. F. Morrison,  K. Nanda,  
 T. S. Nguyen-Beck,  R. Olivares-Amaya,  J. A. Parkhill,  T. M. Perrine,  
 F. Plasser,  S. Prager,  A. Prociuk,  D. R. Rehn,  F. Rob,  M. Schneider,  
 N. Sergueev,  S. M. Sharada,  S. Sharma,  D. W. Small,  T. Stauch,  
 T. Stein,  Yu-Chuan Su,  A. J. W. Thom,  T. Tsuchimochi,  L. Vogt,  
 O. Vydrov,  M. A. Watson,  J. Wenzel,  M. de Wergifosse,  T. A. Wesolowski,  
 A. White,  J. Witte,  A. Yamada,  Jun Yang,  K. Yao,  S. Yeganeh,  
 S. R. Yost,  Zhi-Qiang You,  A. Zech,  Igor Ying Zhang,  Xing Zhang,  
 Yan Zhao,  Ying Zhu,  B. R. Brooks,  G. K. L. Chan,  C. J. Cramer,  
 M. S. Gordon,  W. J. Hehre,  A. Klamt,  M. W. Schmidt,  C. D. Sherrill,  
 D. G. Truhlar,  A. Aspuru-Guzik,  R. Baer,  A. T. Bell,  N. A. Besley,  
 Jeng-Da Chai,  A. Dreuw,  B. D. Dunietz,  T. R. Furlani,  Chao-Ping Hsu,  
 Yousung Jung,  Jing Kong,  D. S. Lambrecht,  WanZhen Liang,  C. Ochsenfeld,  
 V. A. Rassolov,  L. V. Slipchenko,  J. E. Subotnik,  T. Van Voorhis,  
 J. M. Herbert,  A. I. Krylov,  P. M. W. Gill,  M. Head-Gordon

 Contributors to earlier versions of Q-Chem not listed above: 
 R. D. Adamson,  B. Austin,  J. Baker,  G. J. O. Beran,  K. Brandhorst,  
 S. T. Brown,  E. F. C. Byrd,  A. K. Chakraborty,  C.-L. Cheng,  
 Siu Hung Chien,  D. M. Chipman,  D. L. Crittenden,  H. Dachsel,  
 R. A. DiStasio Jr.,  R. J. Doerksen,  A. D. Dutoi,  L. Fusti-Molnar,  
 W. A. Goddard III,  A. Golubeva-Zadorozhnaya,  S. R. Gwaltney,  G. Hawkins,  
 A. Heyden,  S. Hirata,  G. Kedziora,  F. J. Keil,  C. Kelley,  Jihan Kim,  
 R. A. King,  R. Z. Khaliullin,  P. P. Korambath,  W. Kurlancheek,  
 A. M. Lee,  M. S. Lee,  S. V. Levchenko,  Ching Yeh Lin,  D. Liotard,  
 R. C. Lochan,  I. Lotan,  P. E. Maslen,  N. Nair,  D. P. O'Neill,  
 D. Neuhauser,  E. Neuscamman,  C. M. Oana,  R. Olson,  B. Peters,  
 R. Peverati,  P. A. Pieniazek,  Y. M. Rhee,  J. Ritchie,  M. A. Rohrdanz,  
 E. Rosta,  N. J. Russ,  H. F. Schaefer III,  N. E. Schultz,  N. Shenvi,  
 A. C. Simmonett,  A. Sodt,  D. Stuck,  K. S. Thanthiriwatte,  V. Vanovschi,  
 Tao Wang,  A. Warshel,  C. F. Williams,  Q. Wu,  X. Xu,  W. Zhang

 Please cite Q-Chem as follows:
 Y. Shao et al., Mol. Phys. 113, 184-215 (2015)
 DOI: 10.1080/00268976.2014.952696

 Q-Chem 5.0.0 for Intel X86 EM64T Linux

 Parts of Q-Chem use Armadillo 5.200.1 (Boston Tea Smuggler).
 http://arma.sourceforge.net/

 Q-Chem begins on Mon Dec  9 10:13:42 2019  

Host: r4148
0

     Scratch files written to /jobfs/local/4046348.r-man2/CP22.CCSD-T_6-31pGd.mo//
 Parallel job on  1  processors
Core orbitals will be frozen

Checking the input file for inconsistencies... 	...done.

--------------------------------------------------------------
User input:
--------------------------------------------------------------
$molecule
  0 1
    C     -5.9449858374    1.1845279443    0.2478725437
    N     -4.6898709366    0.5720356328    0.2269034803
    C     -3.4571155953    1.1942612069    0.0313888362
    O     -3.3294990904    2.3797267246   -0.1773056887
    N     -2.4014264383    0.3207204343    0.0694317654
    C     -1.0457093923    0.8524693639   -0.0092716588
    C     -0.0393904459   -0.2778803414   -0.1648991048
    C      1.3871365511    0.2541829455   -0.2601830571
    C     -6.1220392974    2.5723224700    0.2767562977
    C     -7.4168389174    3.0589661629    0.3236412747
    C     -8.5487156523    2.2606952850    0.3433463984
    C     -8.3384048228    0.8900092109    0.3136447808
    C     -7.0660280204    0.3480608181    0.2659324870
    H     -4.7018083567   -0.4357678041    0.1829105246
    H     -2.5151412030   -0.5453296537    0.5762482058
    H     -0.8162789209    1.4547957722    0.8774995276
    H     -1.0048474694    1.5242145698   -0.8680994785
    H     -0.2889054464   -0.8570141514   -1.0588853113
    H     -0.1189121126   -0.9615093937    0.6887801975
    H      1.5002908474    0.9193927323   -1.1193337131
    H      2.1058593520   -0.5588307932   -0.3717388020
    H      1.6587403017    0.8186691137    0.6349470091
    H     -5.2698746932    3.2327400721    0.2536706737
    Cl    -9.7087063898   -0.1796398148    0.3350564792
    H     -6.9491539972   -0.7298908571    0.2438804575
    S     -7.6444805064    4.8579506970    0.3627905896
    H     -9.5473466163    2.6723101731    0.3789373653
    F     -6.5566931056    5.0933501664   -0.8019815006
    F     -8.8183506377    4.7985674347   -0.7465749930
    F     -6.4951710465    5.0492249723    1.4778767696
    F     -8.7570325260    4.7548853520    1.5314398684
    F     -7.8540595781    6.4499035543    0.4000377758

$end

$rem

    JOBTYPE               sp
    METHOD                CCSD(T)
    BASIS                 6-31+G*
    CC_BACKEND            XM

    MEM_TOTAL             60000
$end
--------------------------------------------------------------
 ----------------------------------------------------------------
             Standard Nuclear Orientation (Angstroms)
    I     Atom           X                Y                Z
 ----------------------------------------------------------------
    1      C      -0.4680790977    -1.1409564778    -0.0473752635
    2      N      -1.8630238488    -1.1824828784    -0.1048613234
    3      C      -2.7396559805    -0.1065918590     0.0331640099
    4      O      -2.3799685666     1.0279206045     0.2537865499
    5      N      -4.0572065146    -0.4685514249    -0.0765911931
    6      C      -5.0763271614     0.5745871232    -0.0633647533
    7      C      -6.4655070296    -0.0402480278     0.0187644799
    8      C      -7.5498537915     1.0324447642     0.0446858975
    9      C       0.2653999302     0.0507453438    -0.0440393088
   10      C       1.6461509617    -0.0389527443    -0.0123031662
   11      C       2.3486870907    -1.2324197690     0.0168357745
   12      C       1.5919420260    -2.3948369041     0.0127791825
   13      C       0.2087979869    -2.3647628264    -0.0178045951
   14      H      -2.2691353385    -2.1055335021    -0.0766362716
   15      H      -4.2813563533    -1.3085298929    -0.5904294264
   16      H      -4.9873111163     1.2111291660    -0.9514463666
   17      H      -4.8856674601     1.2102068894     0.8027373962
   18      H      -6.5271192231    -0.6638630886     0.9155215464
   19      H      -6.6261735700    -0.7025683490    -0.8402807941
   20      H      -7.4276690338     1.6918612669     0.9070596945
   21      H      -8.5443896086     0.5881254986     0.1036552708
   22      H      -7.5142968761     1.6517918574    -0.8546560568
   23      H      -0.2395518760     1.0034941547    -0.0567768333
   24      Cl      2.3998715738    -3.9337601158     0.0488219074
   25      H      -0.3421143019    -3.2989030100    -0.0196514197
   26      S       2.5953467567     1.5065956118    -0.0097857137
   27      H       3.4285002410    -1.2685276755     0.0424700259
   28      F       1.6368363661     2.1777364786     1.0975607224
   29      F       3.5762927003     0.9779187554     1.1608702093
   30      F       1.6913120954     2.1453218447    -1.1826733479
   31      F       3.6310322401     0.9458381921    -1.1175051250
   32      F       3.4428545006     2.8709105530    -0.0097131367
 ----------------------------------------------------------------
 Molecular Point Group                 C1    NOp =  1
 Largest Abelian Subgroup              C1    NOp =  1
 Nuclear Repulsion Energy =  2020.8831289996 hartrees
 There are       86 alpha and       86 beta electrons
 Requested basis set is 6-31+G(d)
 There are 126 shells and 412 basis functions
 Total memory of 50485MB is distributed as follows: 
   QALLOC including MEM_STATIC uses 30062MB
   MEM_STATIC is set to 62MB
   CCMAN JOB total memory use is  50423MB
 Warning: actual memory use might exceed 50485MB

 Total QAlloc Memory Limit  30062 MB
 Mega-Array Size        61 MB
 MEM_STATIC part        62 MB
 A cutoff of  1.0D-14 yielded   5793 shell pairs
 There are     66814 function pairs
 
 -------------------------------------------------------
 OpenMP Integral Computing Module                       
 Release: version 1.0, May 2013, Q-Chem Inc. Pittsburgh 
 -------------------------------------------------------
 Integral Job Info:
 Integral job number is                      11
 Integral operator is                         1
 short-range coefficients                     0
 long-range coefficients              100000000
 Omega coefficients                           0
 if combine SR and LR in K                    0
 Integral screening is                        0
 Integral computing path is                   2
 max size of driver memory is            800000
 size of driver memory is                593474
 size of scratch memory is             15166112
 max col of scratch BK array               1296
 max len of scratch array in speh3          155
 max len of scratch index in speh4           18
 max int batch size is                      520
 min int batch size is                       52
 fixed nKL is                                52
 max L of basis functions is                  2
 order of int derivative is                   0
 number of shells is                        126
 number of basis is                         412
 number of cartesian basis is               412
 number of contracted shell pairs          5793
 number of primitive shell pairs          18716
 maxK2 (contraction) of shell pair           36
 max number of K2 of shell pair               1
 max number of CS2 of shell pair            838
 max number of PS2 of shell pair           4764
 mem total for path MDJ                  168264
 -------------------------------------------------------
 Smallest overlap matrix eigenvalue = 4.19E-07
 Linear dependence detected in AO basis
 Number of orthogonalized atomic orbitals = 411
 Maximum deviation from orthogonality = 1.954E-10

 Scale SEOQF with 1.000000e-02/1.000000e-01/1.000000e-01

 Standard Electronic Orientation quadrupole field applied
 Nucleus-field energy     =     0.0000000456 hartrees
 Guess from superposition of atomic densities
 Warning:  Energy on first SCF cycle will be non-variational
 A restricted Hartree-Fock SCF calculation will be
 performed using Pulay DIIS extrapolation
 SCF converges when DIIS error is below 1.0E-08
 -------------------------------------------------------
 OpenMP Integral computing Module                
 Release: version 1.0, May 2013, Q-Chem Inc. Pittsburgh 
 -------------------------------------------------------
 ---------------------------------------
  Cycle       Energy         DIIS Error
 ---------------------------------------
    1   -1930.2257691570      3.66E-02
    2   -1923.0309725785      4.90E-03
    3   -1923.3590579578      3.19E-03
    4   -1923.5105687418      4.70E-04
    5   -1923.5163072719      1.77E-04
    6   -1923.5170722040      4.71E-05
    7   -1923.5171587700      2.05E-05
    8   -1923.5171819973      7.04E-06
    9   -1923.5171863089      3.20E-06
   10   -1923.5171871533      1.41E-06
   11   -1923.5171873304      6.66E-07
   12   -1923.5171873753      2.68E-07
   13   -1923.5171873808      1.00E-07
   14   -1923.5171873816      3.52E-08
   15   -1923.5171873817      1.24E-08
   16   -1923.5171873817      3.84E-09 Convergence criterion met
 ---------------------------------------
 SCF time:  CPU 315.81 s  wall 80.50 s
 SCF   energy in the final basis set = -1923.5171873817
 Total energy in the final basis set = -1923.5171873817


 ------------------------------------------------------------------------------

   CCMAN2: suite of methods based on coupled cluster
           and equation of motion theories.

   Components:
   * libvmm-1.3-trunk
     by Evgeny Epifanovsky, Ilya Kaliman.
   * libtensor-2.5-release
     by Evgeny Epifanovsky, Michael Wormit, Dmitry Zuev, Sam Manzer, 
        Ilya Kaliman.
   * libcc-2.5-trunk
     by Evgeny Epifanovsky, Arik Landau, Tomasz Kus, Kirill Khistyaev, 
        Dmitry Zuev, Prashant Manohar, Xintian Feng, Anna Krylov, 
        Matthew Goldey, Alec White, Thomas Jagau, Kaushik Nanda, 
        Anastasia Gunina, Alexander Kunitsa, Joonho Lee.

   CCMAN original authors:
   Anna I. Krylov, C. David Sherrill, Steven R. Gwaltney,
   Edward F. C. Byrd (2000)
   Sergey V. Levchenko, Lyudmila V. Slipchenko, Tao Wang,
   Ana-Maria C. Cristian (2003)
   Piotr A. Pieniazek, C. Melania Oana, Evgeny Epifanovsky (2007)
   Prashant Manohar (2009)

 ------------------------------------------------------------------------------


================================================================================
This program uses libxm tensor contraction code.
See https://github.com/ilyak/libxm for more info.
libxm is (c) Ilya Kaliman 2014-2016.
================================================================================

 Calculation will run on 4 cores using libxm for tensor contractions

 
 Alpha MOs, Restricted
 -- Occupied --                  
-104.85  -92.40  -26.36  -26.36  -26.36  -26.36  -26.35  -20.55
  1 A     2 A     3 A     4 A     5 A     6 A     7 A     8 A                  
-15.636 -15.611 -11.412 -11.336 -11.333 -11.314 -11.281 -11.281
  9 A    10 A    11 A    12 A    13 A    14 A    15 A    16 A                  
-11.277 -11.273 -11.246 -11.233 -10.582  -9.341  -8.052  -8.048
 17 A    18 A    19 A    20 A    21 A    22 A    23 A    24 A                  
 -8.048  -7.030  -7.030  -7.026  -1.755  -1.655  -1.655  -1.625
 25 A    26 A    27 A    28 A    29 A    30 A    31 A    32 A                  
 -1.611  -1.430  -1.294  -1.252  -1.216  -1.157  -1.101  -1.074
 33 A    34 A    35 A    36 A    37 A    38 A    39 A    40 A                  
 -1.041  -1.027  -0.953  -0.904  -0.886  -0.861  -0.860  -0.836
 41 A    42 A    43 A    44 A    45 A    46 A    47 A    48 A                  
 -0.820  -0.816  -0.776  -0.773  -0.756  -0.747  -0.728  -0.717
 49 A    50 A    51 A    52 A    53 A    54 A    55 A    56 A                  
 -0.688  -0.683  -0.681  -0.679  -0.677  -0.676  -0.668  -0.653
 57 A    58 A    59 A    60 A    61 A    62 A    63 A    64 A                  
 -0.651  -0.646  -0.642  -0.635  -0.630  -0.617  -0.602  -0.589
 65 A    66 A    67 A    68 A    69 A    70 A    71 A    72 A                  
 -0.575  -0.569  -0.560  -0.537  -0.526  -0.513  -0.503  -0.497
 73 A    74 A    75 A    76 A    77 A    78 A    79 A    80 A                  
 -0.475  -0.468  -0.464  -0.419  -0.374  -0.338
 81 A    82 A    83 A    84 A    85 A    86 A                                  
 -- Virtual --                   
  0.040   0.066   0.070   0.074   0.080   0.085   0.088   0.094
 87 A    88 A    89 A    90 A    91 A    92 A    93 A    94 A                  
  0.097   0.105   0.108   0.110   0.118   0.122   0.124   0.129
 95 A    96 A    97 A    98 A    99 A   100 A   101 A   102 A                  
  0.132   0.135   0.140   0.146   0.152   0.155   0.156   0.158
103 A   104 A   105 A   106 A   107 A   108 A   109 A   110 A                  
  0.179   0.181   0.187   0.190   0.193   0.197   0.203   0.204
111 A   112 A   113 A   114 A   115 A   116 A   117 A   118 A                  
  0.208   0.213   0.224   0.232   0.237   0.248   0.248   0.254
119 A   120 A   121 A   122 A   123 A   124 A   125 A   126 A                  
  0.257   0.264   0.269   0.272   0.282   0.284   0.294   0.297
127 A   128 A   129 A   130 A   131 A   132 A   133 A   134 A                  
  0.299   0.306   0.311   0.314   0.321   0.330   0.330   0.334
135 A   136 A   137 A   138 A   139 A   140 A   141 A   142 A                  
  0.342   0.348   0.352   0.355   0.357   0.366   0.373   0.376
143 A   144 A   145 A   146 A   147 A   148 A   149 A   150 A                  
  0.381   0.385   0.393   0.394   0.405   0.410   0.413   0.416
151 A   152 A   153 A   154 A   155 A   156 A   157 A   158 A                  
  0.423   0.428   0.429   0.435   0.436   0.444   0.450   0.454
159 A   160 A   161 A   162 A   163 A   164 A   165 A   166 A                  
  0.457   0.461   0.464   0.466   0.471   0.472   0.479   0.485
167 A   168 A   169 A   170 A   171 A   172 A   173 A   174 A                  
  0.490   0.505   0.510   0.511   0.525   0.530   0.531   0.537
175 A   176 A   177 A   178 A   179 A   180 A   181 A   182 A                  
  0.552   0.555   0.566   0.576   0.577   0.606   0.622   0.625
183 A   184 A   185 A   186 A   187 A   188 A   189 A   190 A                  
  0.631   0.640   0.651   0.683   0.693   0.708   0.734   0.743
191 A   192 A   193 A   194 A   195 A   196 A   197 A   198 A                  
  0.753   0.760   0.766   0.798   0.804   0.818   0.847   0.853
199 A   200 A   201 A   202 A   203 A   204 A   205 A   206 A                  
  0.863   0.881   0.883   0.904   0.911   0.912   0.928   0.941
207 A   208 A   209 A   210 A   211 A   212 A   213 A   214 A                  
  0.943   0.957   0.964   0.970   0.975   0.984   0.995   1.015
215 A   216 A   217 A   218 A   219 A   220 A   221 A   222 A                  
  1.019   1.045   1.053   1.057   1.068   1.077   1.092   1.109
223 A   224 A   225 A   226 A   227 A   228 A   229 A   230 A                  
  1.125   1.137   1.141   1.159   1.168   1.173   1.181   1.186
231 A   232 A   233 A   234 A   235 A   236 A   237 A   238 A                  
  1.193   1.207   1.211   1.223   1.228   1.233   1.237   1.250
239 A   240 A   241 A   242 A   243 A   244 A   245 A   246 A                  
  1.257   1.268   1.278   1.283   1.302   1.314   1.340   1.350
247 A   248 A   249 A   250 A   251 A   252 A   253 A   254 A                  
  1.358   1.369   1.384   1.386   1.398   1.416   1.450   1.465
255 A   256 A   257 A   258 A   259 A   260 A   261 A   262 A                  
  1.473   1.479   1.490   1.518   1.531   1.577   1.586   1.599
263 A   264 A   265 A   266 A   267 A   268 A   269 A   270 A                  
  1.617   1.620   1.636   1.646   1.678   1.686   1.699   1.701
271 A   272 A   273 A   274 A   275 A   276 A   277 A   278 A                  
  1.707   1.714   1.735   1.763   1.776   1.784   1.793   1.806
279 A   280 A   281 A   282 A   283 A   284 A   285 A   286 A                  
  1.847   1.858   1.864   1.876   1.883   1.908   1.925   1.973
287 A   288 A   289 A   290 A   291 A   292 A   293 A   294 A                  
  1.980   1.981   1.995   2.026   2.028   2.035   2.044   2.047
295 A   296 A   297 A   298 A   299 A   300 A   301 A   302 A                  
  2.052   2.063   2.068   2.077   2.081   2.107   2.117   2.122
303 A   304 A   305 A   306 A   307 A   308 A   309 A   310 A                  
  2.126   2.134   2.136   2.146   2.157   2.161   2.173   2.177
311 A   312 A   313 A   314 A   315 A   316 A   317 A   318 A                  
  2.189   2.202   2.215   2.228   2.233   2.259   2.260   2.280
319 A   320 A   321 A   322 A   323 A   324 A   325 A   326 A                  
  2.290   2.293   2.294   2.304   2.308   2.310   2.324   2.330
327 A   328 A   329 A   330 A   331 A   332 A   333 A   334 A                  
  2.336   2.337   2.344   2.373   2.379   2.391   2.401   2.434
335 A   336 A   337 A   338 A   339 A   340 A   341 A   342 A                  
  2.437   2.451   2.459   2.467   2.501   2.508   2.518   2.529
343 A   344 A   345 A   346 A   347 A   348 A   349 A   350 A                  
  2.547   2.565   2.578   2.590   2.606   2.636   2.661   2.675
351 A   352 A   353 A   354 A   355 A   356 A   357 A   358 A                  
  2.685   2.707   2.714   2.733   2.740   2.745   2.782   2.830
359 A   360 A   361 A   362 A   363 A   364 A   365 A   366 A                  
  2.880   2.943   2.946   2.959   2.973   3.012   3.030   3.055
367 A   368 A   369 A   370 A   371 A   372 A   373 A   374 A                  
  3.086   3.095   3.140   3.151   3.166   3.191   3.228   3.282
375 A   376 A   377 A   378 A   379 A   380 A   381 A   382 A                  
  3.305   3.322   3.402   3.449   3.467   3.600   3.683   3.732
383 A   384 A   385 A   386 A   387 A   388 A   389 A   390 A                  
  3.815   4.551   4.645   4.656   4.703   4.708   4.753   4.756
391 A   392 A   393 A   394 A   395 A   396 A   397 A   398 A                  
  4.802   4.815   4.862   4.867   4.922   4.971   5.046   5.163
399 A   400 A   401 A   402 A   403 A   404 A   405 A   406 A                  
  6.368   6.423   6.539   7.733   9.424
407 A   408 A   409 A   410 A   411 A                                          
 
 Beta MOs, Restricted
 -- Occupied --                  
-104.85  -92.40  -26.36  -26.36  -26.36  -26.36  -26.35  -20.55
  1 A     2 A     3 A     4 A     5 A     6 A     7 A     8 A                  
-15.636 -15.611 -11.412 -11.336 -11.333 -11.314 -11.281 -11.281
  9 A    10 A    11 A    12 A    13 A    14 A    15 A    16 A                  
-11.277 -11.273 -11.246 -11.233 -10.582  -9.341  -8.052  -8.048
 17 A    18 A    19 A    20 A    21 A    22 A    23 A    24 A                  
 -8.048  -7.030  -7.030  -7.026  -1.755  -1.655  -1.655  -1.625
 25 A    26 A    27 A    28 A    29 A    30 A    31 A    32 A                  
 -1.611  -1.430  -1.294  -1.252  -1.216  -1.157  -1.101  -1.074
 33 A    34 A    35 A    36 A    37 A    38 A    39 A    40 A                  
 -1.041  -1.027  -0.953  -0.904  -0.886  -0.861  -0.860  -0.836
 41 A    42 A    43 A    44 A    45 A    46 A    47 A    48 A                  
 -0.820  -0.816  -0.776  -0.773  -0.756  -0.747  -0.728  -0.717
 49 A    50 A    51 A    52 A    53 A    54 A    55 A    56 A                  
 -0.688  -0.683  -0.681  -0.679  -0.677  -0.676  -0.668  -0.653
 57 A    58 A    59 A    60 A    61 A    62 A    63 A    64 A                  
 -0.651  -0.646  -0.642  -0.635  -0.630  -0.617  -0.602  -0.589
 65 A    66 A    67 A    68 A    69 A    70 A    71 A    72 A                  
 -0.575  -0.569  -0.560  -0.537  -0.526  -0.513  -0.503  -0.497
 73 A    74 A    75 A    76 A    77 A    78 A    79 A    80 A                  
 -0.475  -0.468  -0.464  -0.419  -0.374  -0.338
 81 A    82 A    83 A    84 A    85 A    86 A                                  
 -- Virtual --                   
  0.040   0.066   0.070   0.074   0.080   0.085   0.088   0.094
 87 A    88 A    89 A    90 A    91 A    92 A    93 A    94 A                  
  0.097   0.105   0.108   0.110   0.118   0.122   0.124   0.129
 95 A    96 A    97 A    98 A    99 A   100 A   101 A   102 A                  
  0.132   0.135   0.140   0.146   0.152   0.155   0.156   0.158
103 A   104 A   105 A   106 A   107 A   108 A   109 A   110 A                  
  0.179   0.181   0.187   0.190   0.193   0.197   0.203   0.204
111 A   112 A   113 A   114 A   115 A   116 A   117 A   118 A                  
  0.208   0.213   0.224   0.232   0.237   0.248   0.248   0.254
119 A   120 A   121 A   122 A   123 A   124 A   125 A   126 A                  
  0.257   0.264   0.269   0.272   0.282   0.284   0.294   0.297
127 A   128 A   129 A   130 A   131 A   132 A   133 A   134 A                  
  0.299   0.306   0.311   0.314   0.321   0.330   0.330   0.334
135 A   136 A   137 A   138 A   139 A   140 A   141 A   142 A                  
  0.342   0.348   0.352   0.355   0.357   0.366   0.373   0.376
143 A   144 A   145 A   146 A   147 A   148 A   149 A   150 A                  
  0.381   0.385   0.393   0.394   0.405   0.410   0.413   0.416
151 A   152 A   153 A   154 A   155 A   156 A   157 A   158 A                  
  0.423   0.428   0.429   0.435   0.436   0.444   0.450   0.454
159 A   160 A   161 A   162 A   163 A   164 A   165 A   166 A                  
  0.457   0.461   0.464   0.466   0.471   0.472   0.479   0.485
167 A   168 A   169 A   170 A   171 A   172 A   173 A   174 A                  
  0.490   0.505   0.510   0.511   0.525   0.530   0.531   0.537
175 A   176 A   177 A   178 A   179 A   180 A   181 A   182 A                  
  0.552   0.555   0.566   0.576   0.577   0.606   0.622   0.625
183 A   184 A   185 A   186 A   187 A   188 A   189 A   190 A                  
  0.631   0.640   0.651   0.683   0.693   0.708   0.734   0.743
191 A   192 A   193 A   194 A   195 A   196 A   197 A   198 A                  
  0.753   0.760   0.766   0.798   0.804   0.818   0.847   0.853
199 A   200 A   201 A   202 A   203 A   204 A   205 A   206 A                  
  0.863   0.881   0.883   0.904   0.911   0.912   0.928   0.941
207 A   208 A   209 A   210 A   211 A   212 A   213 A   214 A                  
  0.943   0.957   0.964   0.970   0.975   0.984   0.995   1.015
215 A   216 A   217 A   218 A   219 A   220 A   221 A   222 A                  
  1.019   1.045   1.053   1.057   1.068   1.077   1.092   1.109
223 A   224 A   225 A   226 A   227 A   228 A   229 A   230 A                  
  1.125   1.137   1.141   1.159   1.168   1.173   1.181   1.186
231 A   232 A   233 A   234 A   235 A   236 A   237 A   238 A                  
  1.193   1.207   1.211   1.223   1.228   1.233   1.237   1.250
239 A   240 A   241 A   242 A   243 A   244 A   245 A   246 A                  
  1.257   1.268   1.278   1.283   1.302   1.314   1.340   1.350
247 A   248 A   249 A   250 A   251 A   252 A   253 A   254 A                  
  1.358   1.369   1.384   1.386   1.398   1.416   1.450   1.465
255 A   256 A   257 A   258 A   259 A   260 A   261 A   262 A                  
  1.473   1.479   1.490   1.518   1.531   1.577   1.586   1.599
263 A   264 A   265 A   266 A   267 A   268 A   269 A   270 A                  
  1.617   1.620   1.636   1.646   1.678   1.686   1.699   1.701
271 A   272 A   273 A   274 A   275 A   276 A   277 A   278 A                  
  1.707   1.714   1.735   1.763   1.776   1.784   1.793   1.806
279 A   280 A   281 A   282 A   283 A   284 A   285 A   286 A                  
  1.847   1.858   1.864   1.876   1.883   1.908   1.925   1.973
287 A   288 A   289 A   290 A   291 A   292 A   293 A   294 A                  
  1.980   1.981   1.995   2.026   2.028   2.035   2.044   2.047
295 A   296 A   297 A   298 A   299 A   300 A   301 A   302 A                  
  2.052   2.063   2.068   2.077   2.081   2.107   2.117   2.122
303 A   304 A   305 A   306 A   307 A   308 A   309 A   310 A                  
  2.126   2.134   2.136   2.146   2.157   2.161   2.173   2.177
311 A   312 A   313 A   314 A   315 A   316 A   317 A   318 A                  
  2.189   2.202   2.215   2.228   2.233   2.259   2.260   2.280
319 A   320 A   321 A   322 A   323 A   324 A   325 A   326 A                  
  2.290   2.293   2.294   2.304   2.308   2.310   2.324   2.330
327 A   328 A   329 A   330 A   331 A   332 A   333 A   334 A                  
  2.336   2.337   2.344   2.373   2.379   2.391   2.401   2.434
335 A   336 A   337 A   338 A   339 A   340 A   341 A   342 A                  
  2.437   2.451   2.459   2.467   2.501   2.508   2.518   2.529
343 A   344 A   345 A   346 A   347 A   348 A   349 A   350 A                  
  2.547   2.565   2.578   2.590   2.606   2.636   2.661   2.675
351 A   352 A   353 A   354 A   355 A   356 A   357 A   358 A                  
  2.685   2.707   2.714   2.733   2.740   2.745   2.782   2.830
359 A   360 A   361 A   362 A   363 A   364 A   365 A   366 A                  
  2.880   2.943   2.946   2.959   2.973   3.012   3.030   3.055
367 A   368 A   369 A   370 A   371 A   372 A   373 A   374 A                  
  3.086   3.095   3.140   3.151   3.166   3.191   3.228   3.282
375 A   376 A   377 A   378 A   379 A   380 A   381 A   382 A                  
  3.305   3.322   3.402   3.449   3.467   3.600   3.683   3.732
383 A   384 A   385 A   386 A   387 A   388 A   389 A   390 A                  
  3.815   4.551   4.645   4.656   4.703   4.708   4.753   4.756
391 A   392 A   393 A   394 A   395 A   396 A   397 A   398 A                  
  4.802   4.815   4.862   4.867   4.922   4.971   5.046   5.163
399 A   400 A   401 A   402 A   403 A   404 A   405 A   406 A                  
  6.368   6.423   6.539   7.733   9.424
407 A   408 A   409 A   410 A   411 A                                          

 Occupation and symmetry of molecular orbitals

 Point group: C1 (1 irreducible representation).

                           A     All 
 -------------------------------------
 All molecular orbitals:
  - Alpha                  411   411 
  - Beta                   411   411 
 -------------------------------------
 Alpha orbitals:
  - Frozen occupied        28    28  
  - Active occupied        58    58  
  - Active virtual         325   325 
  - Frozen virtual         0     0   
 -------------------------------------
 Beta orbitals:
  - Frozen occupied        28    28  
  - Active occupied        58    58  
  - Active virtual         325   325 
  - Frozen virtual         0     0   
 -------------------------------------

 Import integrals:   CPU 0.00 s  wall 0.00 s

 Import integrals:   CPU 2122.53 s  wall 1061.75 s

 MP2 amplitudes:   CPU 33.85 s  wall 107.17 s

           CCSD T amplitudes will be solved using DIIS.

           Start     Size      MaxIter   EConv     TConv     
           3         7         100       1.00e-06  1.00e-04  
 ------------------------------------------------------------------------------
           Energy (a.u.)   Ediff      Tdiff       Comment
 ------------------------------------------------------------------------------
         -1926.51769537                           
     1   -1926.48867993   2.90e-02   1.58e+00     Step took 1:18.39.
     2   -1926.58137245   9.27e-02   2.15e-01     
     3   -1926.57847489   2.90e-03   8.12e-02     
     4   -1926.58761923   9.14e-03   2.72e-02     Switched to DIIS steps.
     5   -1926.59059517   2.98e-03   1.74e-02     
     6   -1926.59078321   1.88e-04   3.69e-03     
     7   -1926.59076841   1.48e-05   1.77e-03     
     8   -1926.59075752   1.09e-05   4.91e-04     
     9   -1926.59075849   9.71e-07   1.88e-04     
    10   -1926.59075871   2.22e-07   5.82e-05     
 ------------------------------------------------------------------------------
         -1926.59075871                           CCSD T converged.


 ------------------------------------------------------------------------------
 == (T) code is based on LIBPT ==
 == Author: Ilya Kaliman, 2016 ==

 Starting (T) calculation...
 (T) calculation completed in 132239 sec
 ------------------------------------------------------------------------------

 SCF energy                 = -1923.51718738
 MP2 energy                 = -1926.51769537
 CCSD correlation energy     =    -3.07357133
 CCSD total energy           = -1926.59075871
 CCSD(T) correlation energy =    -0.11304161
 CCSD(T) total energy       = -1926.70380032

 CCSD  T1^2 = 0.0428  T2^2 = 1.0036  Leading amplitudes:

 Amplitude    Orbitals with energies
  0.0171       78 (A) A                  ->    95 (A) A                   
              -0.5131                          0.0968                     
  0.0171       78 (A) B                  ->    95 (A) B                   
              -0.5131                          0.0968                     
 -0.0164       68 (A) A                  ->    120 (A) A                  
              -0.6347                          0.2129                     
 -0.0164       68 (A) B                  ->    120 (A) B                  
              -0.6347                          0.2129                     

 Amplitude    Orbitals with energies
 -0.0503       85 (A) A      85 (A) B    ->    89 (A) A      89 (A) B     
              -0.3740       -0.3740            0.0702        0.0702       
  0.0503       85 (A) A      85 (A) B    ->    89 (A) B      89 (A) A     
              -0.3740       -0.3740            0.0702        0.0702       
  0.0503       85 (A) B      85 (A) A    ->    89 (A) A      89 (A) B     
              -0.3740       -0.3740            0.0702        0.0702       
 -0.0503       85 (A) B      85 (A) A    ->    89 (A) B      89 (A) A     
              -0.3740       -0.3740            0.0702        0.0702       

 CCSD calculation:   CPU 643063.73 s  wall 186507.90 s

 Total ccman2 time:   CPU 645243.34 s  wall 187698.80 s

 
 --------------------------------------------------------------
 
                    Orbital Energies (a.u.)
 --------------------------------------------------------------
 
 Alpha MOs
 -- Occupied --
******* -92.401 -26.355 -26.355 -26.355 -26.355 -26.355 -20.553
-15.636 -15.611 -11.412 -11.336 -11.333 -11.314 -11.281 -11.281
-11.277 -11.273 -11.246 -11.233 -10.582  -9.341  -8.052  -8.048
 -8.048  -7.030  -7.030  -7.026  -1.755  -1.655  -1.655  -1.625
 -1.611  -1.430  -1.294  -1.252  -1.216  -1.157  -1.101  -1.074
 -1.041  -1.027  -0.953  -0.904  -0.886  -0.861  -0.860  -0.836
 -0.820  -0.816  -0.776  -0.773  -0.756  -0.747  -0.728  -0.717
 -0.688  -0.683  -0.681  -0.679  -0.677  -0.676  -0.668  -0.653
 -0.651  -0.646  -0.642  -0.635  -0.630  -0.617  -0.602  -0.589
 -0.575  -0.569  -0.560  -0.537  -0.526  -0.513  -0.503  -0.497
 -0.475  -0.468  -0.464  -0.419  -0.374  -0.338
 -- Virtual --
  0.040   0.066   0.070   0.074   0.080   0.085   0.088   0.094
  0.097   0.105   0.108   0.110   0.118   0.122   0.124   0.129
  0.132   0.135   0.140   0.146   0.152   0.155   0.156   0.158
  0.179   0.181   0.187   0.190   0.193   0.197   0.203   0.204
  0.208   0.213   0.224   0.232   0.237   0.248   0.248   0.254
  0.257   0.264   0.269   0.272   0.282   0.284   0.294   0.297
  0.299   0.306   0.311   0.314   0.321   0.330   0.330   0.334
  0.342   0.348   0.352   0.355   0.357   0.366   0.373   0.376
  0.381   0.385   0.393   0.394   0.405   0.410   0.413   0.416
  0.423   0.428   0.429   0.435   0.436   0.444   0.450   0.454
  0.457   0.461   0.464   0.466   0.471   0.472   0.479   0.485
  0.490   0.505   0.510   0.511   0.525   0.530   0.531   0.537
  0.552   0.555   0.566   0.576   0.577   0.606   0.622   0.625
  0.631   0.640   0.651   0.683   0.693   0.708   0.734   0.743
  0.753   0.760   0.766   0.798   0.804   0.818   0.847   0.853
  0.863   0.881   0.883   0.904   0.911   0.912   0.928   0.941
  0.943   0.957   0.964   0.970   0.975   0.984   0.995   1.015
  1.019   1.045   1.053   1.057   1.068   1.077   1.092   1.109
  1.125   1.137   1.141   1.159   1.168   1.173   1.181   1.186
  1.193   1.207   1.211   1.223   1.228   1.233   1.237   1.250
  1.257   1.268   1.278   1.283   1.302   1.314   1.340   1.350
  1.358   1.369   1.384   1.386   1.398   1.416   1.450   1.465
  1.473   1.479   1.490   1.518   1.531   1.577   1.586   1.599
  1.617   1.620   1.636   1.646   1.678   1.686   1.699   1.701
  1.707   1.714   1.735   1.763   1.776   1.784   1.793   1.806
  1.847   1.858   1.864   1.876   1.883   1.908   1.925   1.973
  1.980   1.981   1.995   2.026   2.028   2.035   2.044   2.047
  2.052   2.063   2.068   2.077   2.081   2.107   2.117   2.122
  2.126   2.134   2.136   2.146   2.157   2.161   2.173   2.177
  2.189   2.202   2.215   2.228   2.233   2.259   2.260   2.280
  2.290   2.293   2.294   2.304   2.308   2.310   2.324   2.330
  2.336   2.337   2.344   2.373   2.379   2.391   2.401   2.434
  2.437   2.451   2.459   2.467   2.501   2.508   2.518   2.529
  2.547   2.565   2.578   2.590   2.606   2.636   2.661   2.675
  2.685   2.707   2.714   2.733   2.740   2.745   2.782   2.830
  2.880   2.943   2.946   2.959   2.973   3.012   3.030   3.055
  3.086   3.095   3.140   3.151   3.166   3.191   3.228   3.282
  3.305   3.322   3.402   3.449   3.467   3.600   3.683   3.732
  3.815   4.551   4.645   4.656   4.703   4.708   4.753   4.756
  4.802   4.815   4.862   4.867   4.922   4.971   5.046   5.163
  6.368   6.423   6.539   7.733   9.424
 --------------------------------------------------------------
 
          Ground-State Mulliken Net Atomic Charges

     Atom                 Charge (a.u.)
  ----------------------------------------
      1 C                    -0.005204
      2 N                    -0.821397
      3 C                     0.634816
      4 O                    -0.630833
      5 N                    -0.672201
      6 C                    -0.067236
      7 C                    -0.276505
      8 C                    -0.674365
      9 C                     0.296261
     10 C                    -0.098529
     11 C                    -0.472093
     12 C                     0.284401
     13 C                    -0.826419
     14 H                     0.460975
     15 H                     0.419633
     16 H                     0.204425
     17 H                     0.226621
     18 H                     0.207464
     19 H                     0.181113
     20 H                     0.199299
     21 H                     0.200360
     22 H                     0.197467
     23 H                     0.352662
     24 Cl                    0.256983
     25 H                     0.252311
     26 S                     3.085103
     27 H                     0.298667
     28 F                    -0.641701
     29 F                    -0.647373
     30 F                    -0.642927
     31 F                    -0.646946
     32 F                    -0.634836
  ----------------------------------------
  Sum of atomic charges =     0.000000

 -----------------------------------------------------------------
                    Cartesian Multipole Moments
 -----------------------------------------------------------------
    Charge (ESU x 10^10)
                -0.0000
    Dipole Moment (Debye)
         X      -6.4334      Y      -4.9930      Z      -1.0373
       Tot       8.2095
    Quadrupole Moments (Debye-Ang)
        XX    -113.5561     XY       5.2255     YY    -133.7894
        XZ       4.0196     YZ       0.6313     ZZ    -134.1102
    Octopole Moments (Debye-Ang^2)
       XXX     -73.6796    XXY     -16.1965    XYY      -7.5221
       YYY      39.2692    XXZ     -13.1808    XYZ      -4.3415
       YYZ      -2.4503    XZZ      18.7952    YZZ      21.1375
       ZZZ       0.4187
    Hexadecapole Moments (Debye-Ang^3)
      XXXX   -8592.6873   XXXY     109.4034   XXYY   -2026.8058
      XYYY     199.6964   YYYY   -2807.3162   XXXZ      51.7844
      XXYZ      22.8356   XYYZ      10.3902   YYYZ       3.5667
      XXZZ   -1613.2522   XYZZ      44.0907   YYZZ    -532.1288
      XZZZ      -0.1360   YZZZ       0.5096   ZZZZ    -310.6741
 -----------------------------------------------------------------
Archival summary:
1\1\r4148\SP\ProcedureUnspecified\6-31+G*\l115121012\hio507\WedDec1114:23:222019WedDec1114:23:222019\0\\#,ProcedureUnspecified,6-31+G*,\\0,1\S\F,1,1.60612\F,1,1.61102,2,87.7101\F,1,1.61274,2,87.6732,3,90.1724,0\F,1,1.61623,2,87.5678,3,-90.0696,0\F,1,1.61683,2,87.5144,3,-179.831,0\C,1,1.81375,2,179.698,3,-151.281,0\C,7,1.38403,1,117.833,2,-163.811,0\H,8,1.07836,7,121.647,1,-0.618666,0\C,7,1.3852,1,117.952,2,16.1523,0\H,10,1.08072,7,122.414,1,0.114998,0\C,10,1.38704,7,116.442,1,-179.943,0\C,12,1.38381,10,121.814,7,-0.0432048,0\H,13,1.08449,12,119.279,10,-179.99,0\C,13,1.39883,12,120.208,10,0.0759238,0\N,15,1.39675,13,117.266,12,178.731,0\H,16,1.00883,15,115.346,13,2.74708,0\C,16,1.39466,15,126.923,13,170.944,0\O,18,1.21044,16,123.663,15,-1.58329,0\N,18,1.37077,16,113.112,15,179.8,0\H,20,1.00987,18,118.276,16,-24.2625,0\C,20,1.4584,18,118.821,16,-174.952,0\H,22,1.0911,20,107.564,18,-50.5439,0\H,22,1.09627,20,110.562,18,65.8339,0\C,22,1.52138,20,110.457,18,-171.36,0\H,25,1.09401,22,109.029,20,57.5785,0\H,25,1.09656,22,109.608,20,-59.0413,0\C,25,1.5255,22,111.456,20,179.57,0\H,28,1.09087,25,111.257,22,-179.996,0\H,28,1.09245,25,110.999,22,-59.9929,0\H,28,1.09255,25,111.192,22,59.8778,0\Cl,12,1.73849,10,119.225,7,-179.975,0\\HF=-1923.51719\\@

 Total job time:  187780.23s(wall), 645560.32s(cpu) 
 Wed Dec 11 14:23:23 2019

        *************************************************************
        *                                                           *
        *  Thank you very much for using Q-Chem.  Have a nice day.  *
        *                                                           *
        *************************************************************


0 sent ACK to 0 
now end server 0 ... 
