 Entering Gaussian System, Link 0=/apps/gaussian/g09e01/g09/g09
 Initial command:
 /apps/gaussian/g09e01/g09/l1.exe "/jobfs/local/3579200.r-man2/Gau-38014.inp" -scrdir="/jobfs/local/3579200.r-man2/"
 Entering Link 1 = /apps/gaussian/g09e01/g09/l1.exe PID=     38015.
  
 Copyright (c) 1988,1990,1992,1993,1995,1998,2003,2009,2015,
            Gaussian, Inc.  All Rights Reserved.
  
 This is part of the Gaussian(R) 09 program.  It is based on
 the Gaussian(R) 03 system (copyright 2003, Gaussian, Inc.),
 the Gaussian(R) 98 system (copyright 1998, Gaussian, Inc.),
 the Gaussian(R) 94 system (copyright 1995, Gaussian, Inc.),
 the Gaussian 92(TM) system (copyright 1992, Gaussian, Inc.),
 the Gaussian 90(TM) system (copyright 1990, Gaussian, Inc.),
 the Gaussian 88(TM) system (copyright 1988, Gaussian, Inc.),
 the Gaussian 86(TM) system (copyright 1986, Carnegie Mellon
 University), and the Gaussian 82(TM) system (copyright 1983,
 Carnegie Mellon University). Gaussian is a federally registered
 trademark of Gaussian, Inc.
  
 This software contains proprietary and confidential information,
 including trade secrets, belonging to Gaussian, Inc.
  
 This software is provided under written license and may be
 used, copied, transmitted, or stored only in accord with that
 written license.
  
 The following legend is applicable only to US Government
 contracts under FAR:
  
                    RESTRICTED RIGHTS LEGEND
  
 Use, reproduction and disclosure by the US Government is
 subject to restrictions as set forth in subparagraphs (a)
 and (c) of the Commercial Computer Software - Restricted
 Rights clause in FAR 52.227-19.
  
 Gaussian, Inc.
 340 Quinnipiac St., Bldg. 40, Wallingford CT 06492
  
  
 ---------------------------------------------------------------
 Warning -- This program may not be used in any manner that
 competes with the business of Gaussian, Inc. or will provide
 assistance to any competitor of Gaussian, Inc.  The licensee
 of this program is prohibited from giving any competitor of
 Gaussian, Inc. access to this program.  By using this program,
 the user acknowledges that Gaussian, Inc. is engaged in the
 business of creating and licensing software in the field of
 computational chemistry and represents and warrants to the
 licensee that it is not a competitor of Gaussian, Inc. and that
 it will not use this program in any manner prohibited above.
 ---------------------------------------------------------------
  

 Cite this work as:
 Gaussian 09, Revision E.01,
 M. J. Frisch, G. W. Trucks, H. B. Schlegel, G. E. Scuseria, 
 M. A. Robb, J. R. Cheeseman, G. Scalmani, V. Barone, B. Mennucci, 
 G. A. Petersson, H. Nakatsuji, M. Caricato, X. Li, H. P. Hratchian, 
 A. F. Izmaylov, J. Bloino, G. Zheng, J. L. Sonnenberg, M. Hada, 
 M. Ehara, K. Toyota, R. Fukuda, J. Hasegawa, M. Ishida, T. Nakajima, 
 Y. Honda, O. Kitao, H. Nakai, T. Vreven, J. A. Montgomery, Jr., 
 J. E. Peralta, F. Ogliaro, M. Bearpark, J. J. Heyd, E. Brothers, 
 K. N. Kudin, V. N. Staroverov, T. Keith, R. Kobayashi, J. Normand, 
 K. Raghavachari, A. Rendell, J. C. Burant, S. S. Iyengar, J. Tomasi, 
 M. Cossi, N. Rega, J. M. Millam, M. Klene, J. E. Knox, J. B. Cross, 
 V. Bakken, C. Adamo, J. Jaramillo, R. Gomperts, R. E. Stratmann, 
 O. Yazyev, A. J. Austin, R. Cammi, C. Pomelli, J. W. Ochterski, 
 R. L. Martin, K. Morokuma, V. G. Zakrzewski, G. A. Voth, 
 P. Salvador, J. J. Dannenberg, S. Dapprich, A. D. Daniels, 
 O. Farkas, J. B. Foresman, J. V. Ortiz, J. Cioslowski, 
 and D. J. Fox, Gaussian, Inc., Wallingford CT, 2013.
 
 ******************************************
 Gaussian 09:  ES64L-G09RevE.01 30-Nov-2015
                14-Nov-2019 
 ******************************************
 %chk=CP22_c2.M062X_6-311pGd_opt_water_GD3.chk
 %mem=196608000
 %nproc=4
 Will use up to    4 processors via shared memory.
 ----------------------------------------------------------------------
 # M062X/6-311+G* SCF=Tight INT(grid=ultrafine) OPT IOP(2/17=4) Empiric
 alDispersion=GD3 SCRF=(SMD,Solvent=h2o) maxdisk=2684354560
 ----------------------------------------------------------------------
 1/14=-1,18=20,19=15,26=4,38=1/1,3;
 2/9=110,12=2,17=4,18=5,40=1/2;
 3/5=4,6=6,7=11,11=2,16=1,25=1,30=1,70=32201,71=1,72=1,74=-55,75=-5,124=31/1,2,3;
 4//1;
 5/5=2,32=2,38=5,53=1/2;
 6/7=2,8=2,9=2,10=2,28=1/1;
 7//1,2,3,16;
 1/14=-1,18=20,19=15,26=4/3(2);
 2/9=110,17=4/2;
 99//99;
 2/9=110,17=4/2;
 3/5=4,6=6,7=11,11=2,16=1,25=1,30=1,70=32205,71=1,72=1,74=-55,75=-5,124=31/1,2,3;
 4/5=5,16=3,69=1/1;
 5/5=2,32=2,38=5,53=1/2;
 7//1,2,3,16;
 1/14=-1,18=20,19=15,26=4/3(-5);
 2/9=110,17=4/2;
 6/7=2,8=2,9=2,10=2,19=2,28=1/1;
 99/9=1/99;
 ------------------------------------
 CP22_c2.M062X_6-311pGd_opt_water_GD3
 ------------------------------------
 Symbolic Z-matrix:
 Charge =  0 Multiplicity = 1
 C                    -5.94992   1.38593   0.06395 
 N                    -4.73909   0.71589  -0.10955 
 C                    -3.47783   1.26963   0.05265 
 O                    -3.3021    2.46313   0.30467 
 N                    -2.46285   0.39716  -0.08549 
 C                    -1.07656   0.82627   0.05638 
 C                    -0.13769  -0.35155  -0.14263 
 C                     1.31762   0.07724  -0.00212 
 C                    -7.05858   0.63005   0.46225 
 C                    -8.27604   1.26664   0.60546 
 C                    -8.46774   2.6222    0.38579 
 C                    -7.34832   3.33562  -0.01586 
 C                    -6.10331   2.75165  -0.19155 
 H                    -4.79613  -0.29565  -0.113 
 H                    -2.64982  -0.57017  -0.31282 
 H                    -0.93162   1.26064   1.04949 
 H                    -0.86157   1.60847  -0.67738 
 H                    -0.30738  -0.78483  -1.13328 
 H                    -0.37287  -1.12827   0.59165 
 H                     1.57568   0.8386   -0.74267 
 H                     1.99184  -0.76933  -0.14401 
 H                     1.50961   0.49557   0.98926 
 H                    -6.94293  -0.42975   0.65399 
 Cl                   -7.51944   5.04104  -0.33579 
 H                    -5.26949   3.34553  -0.53366 
 S                    -9.69847   0.27902   1.12173 
 H                    -9.42711   3.10626   0.50968 
 F                    -8.85341  -0.5074    2.2537 
 F                    -10.15813   1.36604   2.22665 
 F                    -9.37267  -0.90129   0.06567 
 F                    -10.67882   0.97114   0.03837 
 F                    -10.97348  -0.60308   1.58389 
 

 GradGradGradGradGradGradGradGradGradGradGradGradGradGradGradGradGradGrad
 Berny optimization.
 Initialization pass.
                           ----------------------------
                           !    Initial Parameters    !
                           ! (Angstroms and Degrees)  !
 --------------------------                            --------------------------
 ! Name  Definition              Value          Derivative Info.                !
 --------------------------------------------------------------------------------
 ! R1    R(1,2)                  1.3947         estimate D2E/DX2                !
 ! R2    R(1,9)                  1.3997         estimate D2E/DX2                !
 ! R3    R(1,13)                 1.3979         estimate D2E/DX2                !
 ! R4    R(2,3)                  1.387          estimate D2E/DX2                !
 ! R5    R(2,14)                 1.0132         estimate D2E/DX2                !
 ! R6    R(3,4)                  1.2324         estimate D2E/DX2                !
 ! R7    R(3,5)                  1.3455         estimate D2E/DX2                !
 ! R8    R(5,6)                  1.4581         estimate D2E/DX2                !
 ! R9    R(5,15)                 1.0111         estimate D2E/DX2                !
 ! R10   R(6,7)                  1.5193         estimate D2E/DX2                !
 ! R11   R(6,16)                 1.0936         estimate D2E/DX2                !
 ! R12   R(6,17)                 1.0938         estimate D2E/DX2                !
 ! R13   R(7,8)                  1.5237         estimate D2E/DX2                !
 ! R14   R(7,18)                 1.0945         estimate D2E/DX2                !
 ! R15   R(7,19)                 1.0944         estimate D2E/DX2                !
 ! R16   R(8,20)                 1.093          estimate D2E/DX2                !
 ! R17   R(8,21)                 1.0915         estimate D2E/DX2                !
 ! R18   R(8,22)                 1.093          estimate D2E/DX2                !
 ! R19   R(9,10)                 1.3813         estimate D2E/DX2                !
 ! R20   R(9,23)                 1.0832         estimate D2E/DX2                !
 ! R21   R(10,11)                1.3866         estimate D2E/DX2                !
 ! R22   R(10,26)                1.807          estimate D2E/DX2                !
 ! R23   R(11,12)                1.3869         estimate D2E/DX2                !
 ! R24   R(11,27)                1.0817         estimate D2E/DX2                !
 ! R25   R(12,13)                1.3863         estimate D2E/DX2                !
 ! R26   R(12,24)                1.7436         estimate D2E/DX2                !
 ! R27   R(13,25)                1.0793         estimate D2E/DX2                !
 ! R28   R(26,28)                1.6168         estimate D2E/DX2                !
 ! R29   R(26,29)                1.6167         estimate D2E/DX2                !
 ! R30   R(26,30)                1.617          estimate D2E/DX2                !
 ! R31   R(26,31)                1.6167         estimate D2E/DX2                !
 ! R32   R(26,32)                1.6178         estimate D2E/DX2                !
 ! A1    A(2,1,9)              117.6208         estimate D2E/DX2                !
 ! A2    A(2,1,13)             122.8133         estimate D2E/DX2                !
 ! A3    A(9,1,13)             119.5191         estimate D2E/DX2                !
 ! A4    A(1,2,3)              125.6707         estimate D2E/DX2                !
 ! A5    A(1,2,14)             115.5435         estimate D2E/DX2                !
 ! A6    A(3,2,14)             116.7569         estimate D2E/DX2                !
 ! A7    A(2,3,4)              122.6981         estimate D2E/DX2                !
 ! A8    A(2,3,5)              114.5241         estimate D2E/DX2                !
 ! A9    A(4,3,5)              122.7776         estimate D2E/DX2                !
 ! A10   A(3,5,6)              121.0888         estimate D2E/DX2                !
 ! A11   A(3,5,15)             120.2603         estimate D2E/DX2                !
 ! A12   A(6,5,15)             118.6352         estimate D2E/DX2                !
 ! A13   A(5,6,7)              110.2813         estimate D2E/DX2                !
 ! A14   A(5,6,16)             109.345          estimate D2E/DX2                !
 ! A15   A(5,6,17)             109.3933         estimate D2E/DX2                !
 ! A16   A(7,6,16)             110.1799         estimate D2E/DX2                !
 ! A17   A(7,6,17)             110.1845         estimate D2E/DX2                !
 ! A18   A(16,6,17)            107.4029         estimate D2E/DX2                !
 ! A19   A(6,7,8)              111.0996         estimate D2E/DX2                !
 ! A20   A(6,7,18)             109.2471         estimate D2E/DX2                !
 ! A21   A(6,7,19)             109.2389         estimate D2E/DX2                !
 ! A22   A(8,7,18)             110.0574         estimate D2E/DX2                !
 ! A23   A(8,7,19)             110.0659         estimate D2E/DX2                !
 ! A24   A(18,7,19)            107.0378         estimate D2E/DX2                !
 ! A25   A(7,8,20)             111.0422         estimate D2E/DX2                !
 ! A26   A(7,8,21)             111.0839         estimate D2E/DX2                !
 ! A27   A(7,8,22)             111.0464         estimate D2E/DX2                !
 ! A28   A(20,8,21)            107.8391         estimate D2E/DX2                !
 ! A29   A(20,8,22)            107.8457         estimate D2E/DX2                !
 ! A30   A(21,8,22)            107.8335         estimate D2E/DX2                !
 ! A31   A(1,9,10)             118.6042         estimate D2E/DX2                !
 ! A32   A(1,9,23)             119.6152         estimate D2E/DX2                !
 ! A33   A(10,9,23)            121.7799         estimate D2E/DX2                !
 ! A34   A(9,10,11)            123.7789         estimate D2E/DX2                !
 ! A35   A(9,10,26)            118.1352         estimate D2E/DX2                !
 ! A36   A(11,10,26)           118.0841         estimate D2E/DX2                !
 ! A37   A(10,11,12)           115.9256         estimate D2E/DX2                !
 ! A38   A(10,11,27)           122.8177         estimate D2E/DX2                !
 ! A39   A(12,11,27)           121.2555         estimate D2E/DX2                !
 ! A40   A(11,12,13)           123.0171         estimate D2E/DX2                !
 ! A41   A(11,12,24)           118.4946         estimate D2E/DX2                !
 ! A42   A(13,12,24)           118.4827         estimate D2E/DX2                !
 ! A43   A(1,13,12)            119.1388         estimate D2E/DX2                !
 ! A44   A(1,13,25)            120.7125         estimate D2E/DX2                !
 ! A45   A(12,13,25)           120.1439         estimate D2E/DX2                !
 ! A46   A(10,26,28)            93.1208         estimate D2E/DX2                !
 ! A47   A(10,26,29)            92.957          estimate D2E/DX2                !
 ! A48   A(10,26,30)            93.0812         estimate D2E/DX2                !
 ! A49   A(10,26,31)            92.9751         estimate D2E/DX2                !
 ! A50   A(28,26,29)            89.8369         estimate D2E/DX2                !
 ! A51   A(28,26,30)            89.822          estimate D2E/DX2                !
 ! A52   A(28,26,32)            86.9451         estimate D2E/DX2                !
 ! A53   A(29,26,31)            89.8697         estimate D2E/DX2                !
 ! A54   A(29,26,32)            86.9787         estimate D2E/DX2                !
 ! A55   A(30,26,31)            89.8296         estimate D2E/DX2                !
 ! A56   A(30,26,32)            86.9831         estimate D2E/DX2                !
 ! A57   A(31,26,32)            86.959          estimate D2E/DX2                !
 ! A58   L(10,26,32,28,-1)     180.0659         estimate D2E/DX2                !
 ! A59   L(28,26,31,10,-1)     186.0959         estimate D2E/DX2                !
 ! A60   L(29,26,30,10,-1)     186.0382         estimate D2E/DX2                !
 ! A61   L(10,26,32,28,-2)     179.9356         estimate D2E/DX2                !
 ! A62   L(28,26,31,10,-2)     179.979          estimate D2E/DX2                !
 ! A63   L(29,26,30,10,-2)     179.9874         estimate D2E/DX2                !
 ! D1    D(9,1,2,3)           -151.4482         estimate D2E/DX2                !
 ! D2    D(9,1,2,14)            11.7389         estimate D2E/DX2                !
 ! D3    D(13,1,2,3)            31.0552         estimate D2E/DX2                !
 ! D4    D(13,1,2,14)         -165.7577         estimate D2E/DX2                !
 ! D5    D(2,1,9,10)          -178.291          estimate D2E/DX2                !
 ! D6    D(2,1,9,23)             1.9951         estimate D2E/DX2                !
 ! D7    D(13,1,9,10)           -0.7087         estimate D2E/DX2                !
 ! D8    D(13,1,9,23)          179.5773         estimate D2E/DX2                !
 ! D9    D(2,1,13,12)          178.8598         estimate D2E/DX2                !
 ! D10   D(2,1,13,25)           -0.3502         estimate D2E/DX2                !
 ! D11   D(9,1,13,12)            1.4088         estimate D2E/DX2                !
 ! D12   D(9,1,13,25)         -177.8012         estimate D2E/DX2                !
 ! D13   D(1,2,3,4)             -4.0758         estimate D2E/DX2                !
 ! D14   D(1,2,3,5)            175.8228         estimate D2E/DX2                !
 ! D15   D(14,2,3,4)          -167.0819         estimate D2E/DX2                !
 ! D16   D(14,2,3,5)            12.8167         estimate D2E/DX2                !
 ! D17   D(2,3,5,6)           -179.992          estimate D2E/DX2                !
 ! D18   D(2,3,5,15)             1.4679         estimate D2E/DX2                !
 ! D19   D(4,3,5,6)             -0.0935         estimate D2E/DX2                !
 ! D20   D(4,3,5,15)          -178.6336         estimate D2E/DX2                !
 ! D21   D(3,5,6,7)            179.8275         estimate D2E/DX2                !
 ! D22   D(3,5,6,16)            58.5279         estimate D2E/DX2                !
 ! D23   D(3,5,6,17)           -58.836          estimate D2E/DX2                !
 ! D24   D(15,5,6,7)            -1.6092         estimate D2E/DX2                !
 ! D25   D(15,5,6,16)         -122.9088         estimate D2E/DX2                !
 ! D26   D(15,5,6,17)          119.7273         estimate D2E/DX2                !
 ! D27   D(5,6,7,8)            179.8398         estimate D2E/DX2                !
 ! D28   D(5,6,7,18)            58.2323         estimate D2E/DX2                !
 ! D29   D(5,6,7,19)           -58.5475         estimate D2E/DX2                !
 ! D30   D(16,6,7,8)           -59.3588         estimate D2E/DX2                !
 ! D31   D(16,6,7,18)          179.0337         estimate D2E/DX2                !
 ! D32   D(16,6,7,19)           62.2539         estimate D2E/DX2                !
 ! D33   D(17,6,7,8)            58.9752         estimate D2E/DX2                !
 ! D34   D(17,6,7,18)          -62.6323         estimate D2E/DX2                !
 ! D35   D(17,6,7,19)         -179.4121         estimate D2E/DX2                !
 ! D36   D(6,7,8,20)           -60.0579         estimate D2E/DX2                !
 ! D37   D(6,7,8,21)           179.9352         estimate D2E/DX2                !
 ! D38   D(6,7,8,22)            59.9324         estimate D2E/DX2                !
 ! D39   D(18,7,8,20)           61.075          estimate D2E/DX2                !
 ! D40   D(18,7,8,21)          -58.9319         estimate D2E/DX2                !
 ! D41   D(18,7,8,22)         -178.9347         estimate D2E/DX2                !
 ! D42   D(19,7,8,20)          178.8139         estimate D2E/DX2                !
 ! D43   D(19,7,8,21)           58.8069         estimate D2E/DX2                !
 ! D44   D(19,7,8,22)          -61.1958         estimate D2E/DX2                !
 ! D45   D(1,9,10,11)           -0.4555         estimate D2E/DX2                !
 ! D46   D(1,9,10,26)         -179.9423         estimate D2E/DX2                !
 ! D47   D(23,9,10,11)         179.2519         estimate D2E/DX2                !
 ! D48   D(23,9,10,26)          -0.2348         estimate D2E/DX2                !
 ! D49   D(9,10,11,12)           0.8547         estimate D2E/DX2                !
 ! D50   D(9,10,11,27)        -179.5375         estimate D2E/DX2                !
 ! D51   D(26,10,11,12)       -179.6583         estimate D2E/DX2                !
 ! D52   D(26,10,11,27)         -0.0505         estimate D2E/DX2                !
 ! D53   D(9,10,26,28)          43.5731         estimate D2E/DX2                !
 ! D54   D(9,10,26,29)         133.5709         estimate D2E/DX2                !
 ! D55   D(9,10,26,30)         -46.4165         estimate D2E/DX2                !
 ! D56   D(9,10,26,31)        -136.4059         estimate D2E/DX2                !
 ! D57   D(11,10,26,28)       -135.9434         estimate D2E/DX2                !
 ! D58   D(11,10,26,29)        -45.9456         estimate D2E/DX2                !
 ! D59   D(11,10,26,30)        134.067          estimate D2E/DX2                !
 ! D60   D(11,10,26,31)         44.0776         estimate D2E/DX2                !
 ! D61   D(10,11,12,13)         -0.1019         estimate D2E/DX2                !
 ! D62   D(10,11,12,24)        179.0292         estimate D2E/DX2                !
 ! D63   D(27,11,12,13)       -179.7163         estimate D2E/DX2                !
 ! D64   D(27,11,12,24)         -0.5853         estimate D2E/DX2                !
 ! D65   D(11,12,13,1)          -1.0133         estimate D2E/DX2                !
 ! D66   D(11,12,13,25)        178.2013         estimate D2E/DX2                !
 ! D67   D(24,12,13,1)         179.8556         estimate D2E/DX2                !
 ! D68   D(24,12,13,25)         -0.9298         estimate D2E/DX2                !
 --------------------------------------------------------------------------------
 Trust Radius=3.00D-01 FncErr=1.00D-07 GrdErr=1.00D-06
 Number of steps in this run=    173 maximum allowed number of steps=    192.
 GradGradGradGradGradGradGradGradGradGradGradGradGradGradGradGradGradGrad

                          Input orientation:                          
 ---------------------------------------------------------------------
 Center     Atomic      Atomic             Coordinates (Angstroms)
 Number     Number       Type             X           Y           Z
 ---------------------------------------------------------------------
      1          6           0       -5.949921    1.385926    0.063953
      2          7           0       -4.739088    0.715887   -0.109551
      3          6           0       -3.477828    1.269625    0.052648
      4          8           0       -3.302101    2.463130    0.304666
      5          7           0       -2.462847    0.397156   -0.085487
      6          6           0       -1.076560    0.826267    0.056377
      7          6           0       -0.137692   -0.351550   -0.142632
      8          6           0        1.317620    0.077237   -0.002121
      9          6           0       -7.058581    0.630052    0.462248
     10          6           0       -8.276039    1.266636    0.605462
     11          6           0       -8.467736    2.622201    0.385793
     12          6           0       -7.348319    3.335620   -0.015864
     13          6           0       -6.103312    2.751655   -0.191551
     14          1           0       -4.796134   -0.295654   -0.113000
     15          1           0       -2.649817   -0.570172   -0.312817
     16          1           0       -0.931619    1.260644    1.049486
     17          1           0       -0.861572    1.608469   -0.677383
     18          1           0       -0.307381   -0.784828   -1.133278
     19          1           0       -0.372871   -1.128265    0.591646
     20          1           0        1.575680    0.838597   -0.742673
     21          1           0        1.991837   -0.769327   -0.144008
     22          1           0        1.509609    0.495574    0.989258
     23          1           0       -6.942933   -0.429751    0.653990
     24         17           0       -7.519440    5.041043   -0.335794
     25          1           0       -5.269492    3.345526   -0.533656
     26         16           0       -9.698470    0.279020    1.121730
     27          1           0       -9.427108    3.106256    0.509683
     28          9           0       -8.853413   -0.507403    2.253702
     29          9           0      -10.158128    1.366044    2.226651
     30          9           0       -9.372666   -0.901293    0.065673
     31          9           0      -10.678818    0.971137    0.038369
     32          9           0      -10.973481   -0.603077    1.583888
 ---------------------------------------------------------------------
                    Distance matrix (angstroms):
                    1          2          3          4          5
     1  C    0.000000
     2  N    1.394695   0.000000
     3  C    2.474854   1.386979   0.000000
     4  O    2.868670   2.299862   1.232415   0.000000
     5  N    3.627628   2.298574   1.345537   2.263806   0.000000
     6  C    4.905398   3.667946   2.441858   2.773807   1.458099
     7  C    6.069886   4.723702   3.717910   4.258636   2.443393
     8  C    7.384726   6.091233   4.941771   5.208495   3.794894
     9  C    1.399682   2.390475   3.660412   4.182840   4.634115
    10  C    2.391294   3.650287   4.829953   5.124660   5.918329
    11  C    2.823357   4.216896   5.180697   5.168720   6.421185
    12  C    2.400665   3.698631   4.387907   4.151609   5.701514
    13  C    1.397865   2.451975   3.024766   2.859416   4.336808
    14  H    2.047010   1.013154   2.053161   3.165039   2.434126
    15  H    3.854732   2.461771   2.050371   3.163492   1.011118
    16  H    5.115695   4.017082   2.734401   2.760420   2.092471
    17  H    5.146883   4.019236   2.737253   2.766052   2.093251
    18  H    6.163100   4.789592   3.959664   4.645995   2.672263
    19  H    6.140286   4.791286   3.959944   4.643368   2.674587
    20  H    7.588471   6.347613   5.133835   5.246787   4.115394
    21  H    8.231640   6.892924   5.840654   6.218993   4.605249
    22  H    7.569248   6.348396   5.133315   5.243329   4.116451
    23  H    2.151952   2.598541   3.905950   4.663309   4.615384
    24  Cl   3.997883   5.146700   5.541580   4.984152   6.870042
    25  H    2.158739   2.715915   2.804135   2.313446   4.095241
    26  S    4.049167   5.128585   6.389102   6.808192   7.336592
    27  H    3.905002   5.298571   6.243079   6.162090   7.496292
    28  F    4.099995   4.899906   6.074487   6.590894   6.865084
    29  F    4.731455   5.936880   7.025809   7.204356   8.093336
    30  F    4.116619   4.910806   6.281892   6.944654   7.032383
    31  F    4.747122   5.947052   7.207188   7.530798   8.236928
    32  F    5.612707   6.593562   7.876327   8.359911   8.730302
                    6          7          8          9         10
     6  C    0.000000
     7  C    1.519319   0.000000
     8  C    2.509295   1.523658   0.000000
     9  C    5.998984   7.016276   8.407257   0.000000
    10  C    7.233804   8.331319   9.686182   1.381287   0.000000
    11  C    7.613368   8.860703  10.118325   2.441356   1.386563
    12  C    6.755519   8.099656   9.258279   2.762723   2.351043
    13  C    5.388583   6.724648   7.890413   2.416856   2.749774
    14  H    3.888782   4.658872   6.126118   2.511276   3.881582
    15  H    2.135764   2.527357   4.031901   4.634486   5.989280
    16  H    1.093598   2.156533   2.750528   6.187258   7.357833
    17  H    1.093830   2.156765   2.747640   6.376439   7.532388
    18  H    2.145354   1.094488   2.159467   7.079993   8.410187
    19  H    2.145201   1.094423   2.159526   6.914271   8.258076
    20  H    2.770020   2.170747   1.093015   8.720424   9.952741
    21  H    3.464266   2.170123   1.091500   9.178011  10.494577
    22  H    2.769096   2.170805   1.093023   8.585436   9.823480
    23  H    6.029018   6.852155   8.302063   1.083199   2.158067
    24  Cl   7.709011   9.143718  10.141219   4.506230   3.962897
    25  H    4.927016   6.336927   7.372535   3.400950   3.828668
    26  S    8.704700   9.664611  11.075107   2.743566   1.806994
    27  H    8.668074   9.933539  11.175244   3.426916   2.172173
    28  F    8.190627   9.040493  10.434580   2.779305   2.489432
    29  F    9.352878  10.439003  11.761005   3.641702   2.486040
    30  F    8.474074   9.253667  10.735190   2.803083   2.488750
    31  F    9.603368  10.625328  12.029764   3.660892   2.486415
    32  F   10.115600  10.975357  12.411664   4.255012   3.424812
                   11         12         13         14         15
    11  C    0.000000
    12  C    1.386863   0.000000
    13  C    2.437331   1.386335   0.000000
    14  H    4.716283   4.439508   3.316772   0.000000
    15  H    6.672891   6.117132   4.793314   2.173008   0.000000
    16  H    7.686832   6.827484   5.523558   4.325265   2.856565
    17  H    7.746723   6.745261   5.386904   4.407379   2.842043
    18  H    8.972559   8.234168   6.854661   4.629165   2.491233
    19  H    8.923856   8.303747   6.964562   4.555768   2.512769
    20  H   10.262791   9.295221   7.932871   6.502540   4.474845
    21  H   11.008443  10.203212   8.827855   6.804549   4.648991
    22  H   10.219302   9.356230   8.027502   6.450071   4.486875
    23  H    3.422186   3.845914   3.397241   2.283638   4.402871
    24  Cl   2.696433   1.743590   2.695835   5.995529   7.429636
    25  H    3.405488   2.142365   1.079340   3.695837   4.716371
    26  S    2.747145   4.019967   4.556731   5.087997   7.243104
    27  H    1.081690   2.156426   3.415420   5.779848   7.753986
    28  F    3.665004   4.710102   4.915667   4.701876   6.713834
    29  F    2.797163   4.099162   4.920280   6.081627   8.159201
    30  F    3.651901   4.696388   4.909060   4.619888   6.741631
    31  F    2.781295   4.084843   4.915116   6.019439   8.183142
    32  F    4.256361   5.586979   6.174541   6.413545   8.537092
                   16         17         18         19         20
    16  H    0.000000
    17  H    1.762943   0.000000
    18  H    3.055829   2.498568   0.000000
    19  H    2.495737   3.055975   1.760000   0.000000
    20  H    3.110708   2.556788   2.516744   3.073403   0.000000
    21  H    3.753906   3.752380   2.503058   2.502373   1.765505
    22  H    2.559014   3.104631   3.073441   2.517674   1.766809
    23  H    6.256976   6.550560   6.881204   6.607384   8.725030
    24  Cl   7.720739   7.498430   9.305405   9.486515  10.027328
    25  H    5.066578   4.740019   6.483974   6.727407   7.292788
    26  S    8.821932   9.115646   9.716450   9.446070  11.440961
    27  H    8.710397   8.776155  10.050338   9.995854  11.303629
    28  F    8.205544   8.771414   9.196917   8.664150  10.934165
    29  F    9.301898   9.742594  10.627916  10.229667  12.115170
    30  F    8.768873   8.904479   9.144968   9.018008  11.115166
    31  F    9.803778   9.863914  10.584086  10.532148  12.280078
    32  F   10.227318  10.595045  11.008257  10.659892  12.844172
                   21         22         23         24         25
    21  H    0.000000
    22  H    1.765449   0.000000
    23  H    8.976761   8.509648   0.000000
    24  Cl  11.147268  10.195136   5.589420   0.000000
    25  H    8.355283   7.509841   4.296931   2.824216   0.000000
    26  S   11.805271  11.210954   2.883422   5.435937   5.635567
    27  H   12.076414  11.254219   4.323805   2.845599   4.293202
    28  F   11.110224  10.487947   2.492999   6.266596   5.954739
    29  F   12.561907  11.765414   4.004450   5.199464   5.952849
    30  F   11.367203  11.010366   2.544026   6.237546   5.935545
    31  F   12.790934  12.234710   4.037117   5.165831   5.935128
    32  F   13.081007  12.545444   4.140056   6.889969   7.253340
                   26         27         28         29         30
    26  S    0.000000
    27  H    2.905426   0.000000
    28  F    1.616769   4.053302   0.000000
    29  F    1.616712   2.551609   2.283159   0.000000
    30  F    1.616955   4.032438   2.283033   3.229178   0.000000
    31  F    1.616719   2.519454   3.228914   2.283780   2.283150
    32  F    1.617818   4.159847   2.225419   2.226068   2.226324
                   31         32
    31  F    0.000000
    32  F    2.225670   0.000000
 Stoichiometry    C10H12ClF5N2OS
 Framework group  C1[X(C10H12ClF5N2OS)]
 Deg. of freedom    90
 Full point group                 C1      NOp   1
 Largest Abelian subgroup         C1      NOp   1
 Largest concise Abelian subgroup C1      NOp   1
                         Standard orientation:                         
 ---------------------------------------------------------------------
 Center     Atomic      Atomic             Coordinates (Angstroms)
 Number     Number       Type             X           Y           Z
 ---------------------------------------------------------------------
      1          6           0        0.575761    0.245018   -0.267532
      2          7           0        1.814740   -0.371207   -0.441813
      3          6           0        3.034380    0.128280   -0.009723
      4          8           0        3.149966    1.233168    0.523858
      5          7           0        4.079773   -0.692645   -0.218785
      6          6           0        5.428998   -0.310239    0.180478
      7          6           0        6.413467   -1.414579   -0.165330
      8          6           0        7.831389   -1.032350    0.240787
      9          6           0       -0.552819   -0.578756   -0.184992
     10          6           0       -1.794013    0.011766   -0.048326
     11          6           0       -1.992154    1.382304    0.021836
     12          6           0       -0.851453    2.165464   -0.072238
     13          6           0        0.419585    1.633485   -0.225159
     14          1           0        1.783474   -1.355497   -0.679881
     15          1           0        3.944559   -1.582812   -0.678873
     16          1           0        5.446232   -0.112620    1.255934
     17          1           0        5.708810    0.617394   -0.327133
     18          1           0        6.371348   -1.611626   -1.241110
     19          1           0        6.113412   -2.336936    0.341608
     20          1           0        8.155273   -0.123583   -0.272947
     21          1           0        8.538252   -1.826363   -0.006723
     22          1           0        7.895933   -0.850077    1.316570
     23          1           0       -0.434223   -1.654715   -0.224588
     24         17           0       -1.026097    3.899429   -0.017736
     25          1           0        1.272728    2.287406   -0.322661
     26         16           0       -3.242176   -1.063693    0.058634
     27          1           0       -2.971085    1.828018    0.136239
     28          9           0       -2.515907   -2.088279    1.076818
     29          9           0       -3.854386   -0.254284    1.317131
     30          9           0       -2.766265   -1.974711   -1.189603
     31          9           0       -4.106117   -0.141646   -0.949936
     32          9           0       -4.540259   -2.024473    0.154639
 ---------------------------------------------------------------------
 Rotational constants (GHZ):      0.4452144      0.1162451      0.0962893
 Standard basis: 6-311+G(d) (5D, 7F)
 There are   512 symmetry adapted cartesian basis functions of A   symmetry.
 There are   492 symmetry adapted basis functions of A   symmetry.
   492 basis functions,   811 primitive gaussians,   512 cartesian basis functions
    86 alpha electrons       86 beta electrons
       nuclear repulsion energy      2001.7138715715 Hartrees.
 NAtoms=   32 NActive=   32 NUniq=   32 SFac= 1.00D+00 NAtFMM=   60 NAOKFM=F Big=F
 Integral buffers will be    131072 words long.
 Raffenetti 2 integral format.
 Two-electron integral symmetry is turned on.
 Nuclear repulsion after empirical dispersion term =     2001.7122638074 Hartrees.
 ------------------------------------------------------------------------------
 Polarizable Continuum Model (PCM)
 =================================
 Model                : PCM (using non-symmetric T matrix).
 Atomic radii         : SMD-Coulomb.
 Polarization charges : Total charges.
 Charge compensation  : None.
 Solution method      : On-the-fly selection.
 Cavity type          : VdW (van der Waals Surface) (Alpha=1.000).
 Cavity algorithm     : GePol (No added spheres)
                        Default sphere list used, NSphG=   32.
                        Lebedev-Laikov grids with approx.  5.0 points / Ang**2.
                        Smoothing algorithm: York/Karplus (Gamma=1.0000).
                        Polarization charges: spherical gaussians, with
                                              point-specific exponents (IZeta= 3).
                        Self-potential: point-specific (ISelfS= 7).
                        Self-field    : sphere-specific E.n sum rule (ISelfD= 2).
 1st derivatives      : Analytical E(r).r(x)/FMM algorithm (CHGder, D1EAlg=3).
                        Cavity 1st derivative terms included.
 Solvent              : Water, Eps=  78.355300 Eps(inf)=   1.777849
 ------------------------------------------------------------------------------
 ------------------------------------------------------------------------------
 Atomic radii for non-electrostatic terms: SMD-CDS.
 ------------------------------------------------------------------------------
 Nuclear repulsion after PCM non-electrostatic terms =     2001.7248263127 Hartrees.
 One-electron integrals computed using PRISM.
 NBasis=   492 RedAO= T EigKep=  1.64D-06  NBF=   492
 NBsUse=   490 1.00D-06 EigRej=  8.66D-07 NBFU=   490
 ExpMin= 4.05D-02 ExpMax= 1.06D+05 ExpMxC= 3.62D+03 IAcc=3 IRadAn=         5 AccDes= 0.00D+00
 Harris functional with IExCor= 1009 and IRadAn=       5 diagonalized for initial guess.
 HarFok:  IExCor= 1009 AccDes= 0.00D+00 IRadAn=         5 IDoV= 1 UseB2=F ITyADJ=14
 ICtDFT=  3500011 ScaDFX=  1.000000  1.000000  1.000000  1.000000
 FoFCou: FMM=F IPFlag=           0 FMFlag=      100000 FMFlg1=           0
         NFxFlg=           0 DoJE=T BraDBF=F KetDBF=T FulRan=T
         wScrn=  0.000000 ICntrl=     500 IOpCl=  0 I1Cent=   200000004 NGrid=           0
         NMat0=    1 NMatS0=      1 NMatT0=    0 NMatD0=    1 NMtDS0=    0 NMtDT0=    0
 Petite list used in FoFCou.
 Requested convergence on RMS density matrix=1.00D-08 within 128 cycles.
 Requested convergence on MAX density matrix=1.00D-06.
 Requested convergence on             energy=1.00D-06.
 No special actions if energy rises.
 Inv3:  Mode=1 IEnd=    20546067.
 Iteration    1 A*A^-1 deviation from unit magnitude is 6.66D-15 for   2616.
 Iteration    1 A*A^-1 deviation from orthogonality  is 5.12D-15 for   2609    778.
 Iteration    1 A^-1*A deviation from unit magnitude is 6.77D-15 for   2616.
 Iteration    1 A^-1*A deviation from orthogonality  is 3.80D-12 for   2001   1974.
 Error on total polarization charges =  0.04033
 SCF Done:  E(RM062X) =  -1930.43523837     A.U. after   15 cycles
            NFock= 15  Conv=0.54D-08     -V/T= 2.0024
 SMD-CDS (non-electrostatic) energy       (kcal/mol) =       7.88
 (included in total energy above)

 **********************************************************************

            Population analysis using the SCF density.

 **********************************************************************

 Orbital symmetries:
       Occupied  (A) (A) (A) (A) (A) (A) (A) (A) (A) (A) (A) (A)
                 (A) (A) (A) (A) (A) (A) (A) (A) (A) (A) (A) (A)
                 (A) (A) (A) (A) (A) (A) (A) (A) (A) (A) (A) (A)
                 (A) (A) (A) (A) (A) (A) (A) (A) (A) (A) (A) (A)
                 (A) (A) (A) (A) (A) (A) (A) (A) (A) (A) (A) (A)
                 (A) (A) (A) (A) (A) (A) (A) (A) (A) (A) (A) (A)
                 (A) (A) (A) (A) (A) (A) (A) (A) (A) (A) (A) (A)
                 (A) (A)
       Virtual   (A) (A) (A) (A) (A) (A) (A) (A) (A) (A) (A) (A)
                 (A) (A) (A) (A) (A) (A) (A) (A) (A) (A) (A) (A)
                 (A) (A) (A) (A) (A) (A) (A) (A) (A) (A) (A) (A)
                 (A) (A) (A) (A) (A) (A) (A) (A) (A) (A) (A) (A)
                 (A) (A) (A) (A) (A) (A) (A) (A) (A) (A) (A) (A)
                 (A) (A) (A) (A) (A) (A) (A) (A) (A) (A) (A) (A)
                 (A) (A) (A) (A) (A) (A) (A) (A) (A) (A) (A) (A)
                 (A) (A) (A) (A) (A) (A) (A) (A) (A) (A) (A) (A)
                 (A) (A) (A) (A) (A) (A) (A) (A) (A) (A) (A) (A)
                 (A) (A) (A) (A) (A) (A) (A) (A) (A) (A) (A) (A)
                 (A) (A) (A) (A) (A) (A) (A) (A) (A) (A) (A) (A)
                 (A) (A) (A) (A) (A) (A) (A) (A) (A) (A) (A) (A)
                 (A) (A) (A) (A) (A) (A) (A) (A) (A) (A) (A) (A)
                 (A) (A) (A) (A) (A) (A) (A) (A) (A) (A) (A) (A)
                 (A) (A) (A) (A) (A) (A) (A) (A) (A) (A) (A) (A)
                 (A) (A) (A) (A) (A) (A) (A) (A) (A) (A) (A) (A)
                 (A) (A) (A) (A) (A) (A) (A) (A) (A) (A) (A) (A)
                 (A) (A) (A) (A) (A) (A) (A) (A) (A) (A) (A) (A)
                 (A) (A) (A) (A) (A) (A) (A) (A) (A) (A) (A) (A)
                 (A) (A) (A) (A) (A) (A) (A) (A) (A) (A) (A) (A)
                 (A) (A) (A) (A) (A) (A) (A) (A) (A) (A) (A) (A)
                 (A) (A) (A) (A) (A) (A) (A) (A) (A) (A) (A) (A)
                 (A) (A) (A) (A) (A) (A) (A) (A) (A) (A) (A) (A)
                 (A) (A) (A) (A) (A) (A) (A) (A) (A) (A) (A) (A)
                 (A) (A) (A) (A) (A) (A) (A) (A) (A) (A) (A) (A)
                 (A) (A) (A) (A) (A) (A) (A) (A) (A) (A) (A) (A)
                 (A) (A) (A) (A) (A) (A) (A) (A) (A) (A) (A) (A)
                 (A) (A) (A) (A) (A) (A) (A) (A) (A) (A) (A) (A)
                 (A) (A) (A) (A) (A) (A) (A) (A) (A) (A) (A) (A)
                 (A) (A) (A) (A) (A) (A) (A) (A) (A) (A) (A) (A)
                 (A) (A) (A) (A) (A) (A) (A) (A) (A) (A) (A) (A)
                 (A) (A) (A) (A) (A) (A) (A) (A) (A) (A) (A) (A)
                 (A) (A) (A) (A) (A) (A) (A) (A) (A) (A) (A) (A)
                 (A) (A) (A) (A) (A) (A) (A) (A)
 The electronic state is 1-A.
 Alpha  occ. eigenvalues -- -102.68947 -90.29029 -25.29525 -25.29523 -25.29514
 Alpha  occ. eigenvalues --  -25.29514 -25.29401 -19.60238 -14.79216 -14.77266
 Alpha  occ. eigenvalues --  -10.68789 -10.62982 -10.62310 -10.61801 -10.58046
 Alpha  occ. eigenvalues --  -10.57915 -10.57067 -10.56714 -10.53077 -10.51762
 Alpha  occ. eigenvalues --   -9.83216  -8.61356  -7.55729  -7.55056  -7.55039
 Alpha  occ. eigenvalues --   -6.53779  -6.53768  -6.53316  -1.51306  -1.41278
 Alpha  occ. eigenvalues --   -1.41228  -1.38215  -1.36818  -1.19081  -1.07300
 Alpha  occ. eigenvalues --   -1.04083  -1.01752  -0.97965  -0.93581  -0.88763
 Alpha  occ. eigenvalues --   -0.86804  -0.85714  -0.78670  -0.76910  -0.75017
 Alpha  occ. eigenvalues --   -0.74784  -0.72509  -0.70265  -0.68781  -0.66475
 Alpha  occ. eigenvalues --   -0.65196  -0.64763  -0.63418  -0.62527  -0.61395
 Alpha  occ. eigenvalues --   -0.59408  -0.59402  -0.56846  -0.56568  -0.56394
 Alpha  occ. eigenvalues --   -0.56331  -0.56229  -0.55916  -0.54226  -0.53749
 Alpha  occ. eigenvalues --   -0.53316  -0.52680  -0.52614  -0.52041  -0.51573
 Alpha  occ. eigenvalues --   -0.50137  -0.49317  -0.47134  -0.46822  -0.46025
 Alpha  occ. eigenvalues --   -0.44923  -0.42952  -0.42153  -0.40038  -0.39589
 Alpha  occ. eigenvalues --   -0.39366  -0.38890  -0.36851  -0.33585  -0.32622
 Alpha  occ. eigenvalues --   -0.29177
 Alpha virt. eigenvalues --   -0.03000  -0.02188  -0.00466   0.00992   0.02099
 Alpha virt. eigenvalues --    0.02897   0.03171   0.03512   0.03962   0.04086
 Alpha virt. eigenvalues --    0.04312   0.04721   0.05405   0.05440   0.06059
 Alpha virt. eigenvalues --    0.06623   0.07032   0.07541   0.07860   0.08306
 Alpha virt. eigenvalues --    0.08488   0.09123   0.09306   0.09592   0.10204
 Alpha virt. eigenvalues --    0.10616   0.11075   0.11527   0.11677   0.11818
 Alpha virt. eigenvalues --    0.12616   0.12903   0.13123   0.13799   0.13964
 Alpha virt. eigenvalues --    0.14604   0.15349   0.15999   0.16490   0.17548
 Alpha virt. eigenvalues --    0.17664   0.18289   0.18541   0.18887   0.19595
 Alpha virt. eigenvalues --    0.19885   0.20166   0.20584   0.20648   0.21266
 Alpha virt. eigenvalues --    0.21592   0.21997   0.22423   0.22611   0.23184
 Alpha virt. eigenvalues --    0.23462   0.23874   0.24253   0.24832   0.25190
 Alpha virt. eigenvalues --    0.25306   0.25916   0.26158   0.26461   0.26525
 Alpha virt. eigenvalues --    0.27115   0.27369   0.27590   0.28036   0.28489
 Alpha virt. eigenvalues --    0.28658   0.29399   0.30159   0.30262   0.30496
 Alpha virt. eigenvalues --    0.30878   0.31329   0.31616   0.32276   0.32451
 Alpha virt. eigenvalues --    0.32809   0.33044   0.33353   0.34061   0.34104
 Alpha virt. eigenvalues --    0.35084   0.35623   0.36202   0.36284   0.37334
 Alpha virt. eigenvalues --    0.37812   0.38042   0.38268   0.38761   0.39413
 Alpha virt. eigenvalues --    0.40371   0.40780   0.41175   0.41943   0.42254
 Alpha virt. eigenvalues --    0.43524   0.44733   0.45651   0.45845   0.47189
 Alpha virt. eigenvalues --    0.47555   0.47927   0.48103   0.48364   0.48535
 Alpha virt. eigenvalues --    0.49138   0.49795   0.50394   0.50899   0.51140
 Alpha virt. eigenvalues --    0.53987   0.54003   0.55208   0.55616   0.56034
 Alpha virt. eigenvalues --    0.57264   0.58271   0.58524   0.59400   0.60133
 Alpha virt. eigenvalues --    0.60680   0.61815   0.62684   0.63596   0.64569
 Alpha virt. eigenvalues --    0.66074   0.66855   0.67415   0.67605   0.68524
 Alpha virt. eigenvalues --    0.68986   0.69566   0.70084   0.70230   0.70927
 Alpha virt. eigenvalues --    0.71434   0.71544   0.72786   0.73306   0.73593
 Alpha virt. eigenvalues --    0.75274   0.75582   0.76749   0.77128   0.77608
 Alpha virt. eigenvalues --    0.78927   0.79146   0.79336   0.80994   0.81578
 Alpha virt. eigenvalues --    0.84442   0.85778   0.85960   0.87959   0.88972
 Alpha virt. eigenvalues --    0.90803   0.91264   0.92157   0.93010   0.93348
 Alpha virt. eigenvalues --    0.94013   0.94714   0.95119   0.96180   0.96449
 Alpha virt. eigenvalues --    0.98667   0.98928   0.99801   1.00722   1.03287
 Alpha virt. eigenvalues --    1.03926   1.04154   1.05070   1.06516   1.07111
 Alpha virt. eigenvalues --    1.08491   1.10918   1.12646   1.13520   1.16567
 Alpha virt. eigenvalues --    1.18758   1.21000   1.21618   1.22207   1.22995
 Alpha virt. eigenvalues --    1.23382   1.25005   1.26144   1.27519   1.29596
 Alpha virt. eigenvalues --    1.30997   1.33013   1.33599   1.34174   1.34573
 Alpha virt. eigenvalues --    1.35373   1.37400   1.38425   1.38844   1.40868
 Alpha virt. eigenvalues --    1.41581   1.43211   1.45433   1.46220   1.49237
 Alpha virt. eigenvalues --    1.49728   1.50139   1.50870   1.51579   1.52855
 Alpha virt. eigenvalues --    1.53791   1.54348   1.55556   1.56594   1.58827
 Alpha virt. eigenvalues --    1.61469   1.61508   1.62590   1.62687   1.63813
 Alpha virt. eigenvalues --    1.66058   1.67675   1.68102   1.69819   1.73045
 Alpha virt. eigenvalues --    1.74674   1.75732   1.77487   1.78407   1.78986
 Alpha virt. eigenvalues --    1.81554   1.82721   1.84501   1.85413   1.87624
 Alpha virt. eigenvalues --    1.88765   1.90319   1.91511   1.93856   1.94671
 Alpha virt. eigenvalues --    1.96346   1.97217   1.97927   1.99724   2.02898
 Alpha virt. eigenvalues --    2.04993   2.06699   2.07069   2.07603   2.09976
 Alpha virt. eigenvalues --    2.13504   2.14821   2.16019   2.19251   2.24245
 Alpha virt. eigenvalues --    2.24778   2.25648   2.26282   2.30002   2.30216
 Alpha virt. eigenvalues --    2.32738   2.34678   2.36333   2.39208   2.40748
 Alpha virt. eigenvalues --    2.43171   2.47274   2.52187   2.55485   2.55700
 Alpha virt. eigenvalues --    2.56773   2.57150   2.58427   2.59292   2.60655
 Alpha virt. eigenvalues --    2.63740   2.65237   2.66166   2.69303   2.73336
 Alpha virt. eigenvalues --    2.73419   2.76475   2.78923   2.82554   2.85809
 Alpha virt. eigenvalues --    2.87256   2.89065   2.93498   2.94835   2.96328
 Alpha virt. eigenvalues --    3.00032   3.00051   3.02759   3.07116   3.11456
 Alpha virt. eigenvalues --    3.13399   3.16058   3.18322   3.24758   3.24872
 Alpha virt. eigenvalues --    3.25815   3.27423   3.29890   3.30469   3.34721
 Alpha virt. eigenvalues --    3.36813   3.38478   3.40765   3.41266   3.45802
 Alpha virt. eigenvalues --    3.56297   3.61002   3.65371   3.67720   3.70587
 Alpha virt. eigenvalues --    3.78514   3.78990   3.79426   3.79508   3.80085
 Alpha virt. eigenvalues --    3.81808   3.82171   3.82697   3.82835   3.83289
 Alpha virt. eigenvalues --    3.83764   3.84873   3.85721   3.87628   3.87884
 Alpha virt. eigenvalues --    3.88443   3.90127   3.90535   3.90928   3.93250
 Alpha virt. eigenvalues --    3.96851   3.98965   4.00088   4.01998   4.03651
 Alpha virt. eigenvalues --    4.06582   4.06995   4.09692   4.26375   4.28804
 Alpha virt. eigenvalues --    4.29451   4.31927   4.37451   4.54578   4.58503
 Alpha virt. eigenvalues --    4.77118   4.89577   5.19002   5.19944   5.39654
 Alpha virt. eigenvalues --    5.87487   6.34944   6.36056   6.37137   6.40851
 Alpha virt. eigenvalues --    6.41475   6.43088   6.46556   6.51789   6.52112
 Alpha virt. eigenvalues --    6.54231   6.55061   6.62983   6.63859   6.64277
 Alpha virt. eigenvalues --    6.69626   8.21530   9.96206  17.50685  17.54979
 Alpha virt. eigenvalues --   17.60393  23.45924  23.59473  23.74464  23.82274
 Alpha virt. eigenvalues --   23.91377  23.92793  23.96691  24.08405  24.10786
 Alpha virt. eigenvalues --   24.19447  25.93341  26.22788  26.70125  35.60106
 Alpha virt. eigenvalues --   35.69793  50.12622  66.88747  66.90331  66.95726
 Alpha virt. eigenvalues --   66.97668  67.06171 189.45707 216.06280
          Condensed to atoms (all electrons):
               1          2          3          4          5          6
     1  C   30.026373  -0.263694  -1.080340   0.015584  -0.256395  -0.634980
     2  N   -0.263694   7.662477   0.349165  -0.135018  -0.459766  -0.420123
     3  C   -1.080340   0.349165   8.168017   0.593442   0.273041  -1.116654
     4  O    0.015584  -0.135018   0.593442   8.325441  -0.193994  -0.114280
     5  N   -0.256395  -0.459766   0.273041  -0.193994   7.573004   0.515304
     6  C   -0.634980  -0.420123  -1.116654  -0.114280   0.515304   8.485512
     7  C   -0.012770   0.028546   0.217766   0.016189  -0.117677  -0.933439
     8  C   -0.021271  -0.015278  -0.274504  -0.003155   0.003715   0.429704
     9  C   -7.196594   0.215316  -0.401439  -0.014993  -0.348436  -0.155715
    10  C   -3.635230   0.210368  -0.731666  -0.001674   0.028195  -0.017023
    11  C   -8.423146   0.058476   0.012696  -0.017887  -0.033201  -0.019310
    12  C   -3.773792   0.031615  -0.128584   0.019034   0.093046   0.029642
    13  C    2.579521  -0.233588   0.051013   0.042528   0.112958  -0.056690
    14  H    0.084507   0.248492  -0.041987  -0.001019   0.052267   0.011811
    15  H   -0.011344   0.053709   0.018776  -0.002079   0.268072  -0.052963
    16  H    0.004911   0.010843   0.076682   0.001754  -0.054256   0.311630
    17  H    0.005641   0.001792   0.026593   0.000695  -0.061196   0.397394
    18  H    0.000636  -0.000996   0.006193  -0.000075   0.006826  -0.069721
    19  H   -0.000571  -0.001257  -0.003401  -0.000142   0.007516  -0.068062
    20  H   -0.000113  -0.000011  -0.000982  -0.000048   0.000427  -0.051509
    21  H    0.000116   0.000010   0.006039   0.000019  -0.001289   0.083966
    22  H   -0.000027  -0.000081  -0.002110  -0.000038  -0.000543  -0.043364
    23  H    0.130346  -0.017643   0.003760  -0.000175  -0.000435  -0.000141
    24  Cl  -0.004261   0.000351   0.018204  -0.000773   0.003040   0.003472
    25  H   -0.102436  -0.008659   0.056607  -0.010753  -0.000041   0.005127
    26  S   -0.302922   0.007116  -0.082284  -0.001066  -0.000046  -0.002519
    27  H   -0.000104   0.000777  -0.000028   0.000013   0.000011   0.000010
    28  F   -0.244936   0.001518  -0.001612   0.000001   0.000082   0.000023
    29  F    0.144951   0.000483   0.001041  -0.000006   0.000011   0.000002
    30  F   -0.285541  -0.000137  -0.005666   0.000002  -0.000011  -0.000026
    31  F    0.130259  -0.000206   0.000155  -0.000000  -0.000000   0.000003
    32  F   -0.037845  -0.000112  -0.000076   0.000000  -0.000003  -0.000001
               7          8          9         10         11         12
     1  C   -0.012770  -0.021271  -7.196594  -3.635230  -8.423146  -3.773792
     2  N    0.028546  -0.015278   0.215316   0.210368   0.058476   0.031615
     3  C    0.217766  -0.274504  -0.401439  -0.731666   0.012696  -0.128584
     4  O    0.016189  -0.003155  -0.014993  -0.001674  -0.017887   0.019034
     5  N   -0.117677   0.003715  -0.348436   0.028195  -0.033201   0.093046
     6  C   -0.933439   0.429704  -0.155715  -0.017023  -0.019310   0.029642
     7  C    6.425373  -0.238584   0.038316  -0.001394   0.001191  -0.010440
     8  C   -0.238584   6.156945  -0.001064  -0.000213  -0.000127   0.000103
     9  C    0.038316  -0.001064  32.473448 -10.599835   6.238576  -9.414641
    10  C   -0.001394  -0.000213 -10.599835  38.404755  -8.833531   0.129697
    11  C    0.001191  -0.000127   6.238576  -8.833531  24.449788  -6.163358
    12  C   -0.010440   0.000103  -9.414641   0.129697  -6.163358  23.476841
    13  C   -0.022814  -0.004806  -5.991191  -5.555441  -2.161355   2.564546
    14  H   -0.002500   0.000007  -0.167795  -0.020082  -0.013890   0.030820
    15  H   -0.013499   0.003060   0.006009  -0.001567   0.000202  -0.001514
    16  H   -0.006505  -0.025899  -0.001508   0.000283  -0.000006   0.000964
    17  H   -0.029223  -0.013973   0.001181  -0.000386   0.000166  -0.000524
    18  H    0.453238  -0.050323  -0.000871   0.000007  -0.000007   0.000108
    19  H    0.459430  -0.046631   0.000414  -0.000016   0.000005  -0.000038
    20  H    0.020499   0.377088   0.000010  -0.000001   0.000000  -0.000001
    21  H   -0.120994   0.381905  -0.000003   0.000001  -0.000000   0.000000
    22  H    0.009590   0.381324  -0.000010   0.000000  -0.000000   0.000000
    23  H    0.000017   0.000000   0.218347   0.018904  -0.065134  -0.005210
    24  Cl  -0.000204   0.000026   0.188051  -0.268800   0.151324  -1.111230
    25  H   -0.000246   0.000022  -0.035234   0.028822   0.017468  -0.015170
    26  S   -0.000020  -0.000020   0.467003  -2.175022   0.419636   0.007792
    27  H   -0.000000   0.000000  -0.101606   0.035764   0.200331   0.142124
    28  F   -0.000002   0.000000  -0.230717   0.152774   0.254905   0.111066
    29  F   -0.000000   0.000000   0.314220   0.076698  -0.257209  -0.242994
    30  F    0.000001   0.000000  -0.233245   0.183717   0.272400   0.122237
    31  F    0.000000   0.000000   0.291519   0.090975  -0.249081  -0.218511
    32  F    0.000000  -0.000000   0.077763  -0.009870   0.067571  -0.035883
              13         14         15         16         17         18
     1  C    2.579521   0.084507  -0.011344   0.004911   0.005641   0.000636
     2  N   -0.233588   0.248492   0.053709   0.010843   0.001792  -0.000996
     3  C    0.051013  -0.041987   0.018776   0.076682   0.026593   0.006193
     4  O    0.042528  -0.001019  -0.002079   0.001754   0.000695  -0.000075
     5  N    0.112958   0.052267   0.268072  -0.054256  -0.061196   0.006826
     6  C   -0.056690   0.011811  -0.052963   0.311630   0.397394  -0.069721
     7  C   -0.022814  -0.002500  -0.013499  -0.006505  -0.029223   0.453238
     8  C   -0.004806   0.000007   0.003060  -0.025899  -0.013973  -0.050323
     9  C   -5.991191  -0.167795   0.006009  -0.001508   0.001181  -0.000871
    10  C   -5.555441  -0.020082  -0.001567   0.000283  -0.000386   0.000007
    11  C   -2.161355  -0.013890   0.000202  -0.000006   0.000166  -0.000007
    12  C    2.564546   0.030820  -0.001514   0.000964  -0.000524   0.000108
    13  C   14.382209   0.103875   0.000173   0.008587  -0.006704   0.001204
    14  H    0.103875   0.275326   0.001726  -0.000015   0.000105   0.000040
    15  H    0.000173   0.001726   0.275507   0.002121   0.001668  -0.000990
    16  H    0.008587  -0.000015   0.002121   0.435885  -0.043521   0.005366
    17  H   -0.006704   0.000105   0.001668  -0.043521   0.441708  -0.007955
    18  H    0.001204   0.000040  -0.000990   0.005366  -0.007955   0.436112
    19  H   -0.000556   0.000012  -0.001064  -0.008296   0.005544  -0.041123
    20  H    0.000013  -0.000000  -0.000006  -0.000492   0.003268  -0.008326
    21  H    0.000007   0.000000  -0.000032  -0.000060  -0.000034  -0.003209
    22  H   -0.000004   0.000000  -0.000041   0.003579  -0.000457   0.005907
    23  H    0.006101   0.004376   0.000018   0.000001  -0.000000  -0.000000
    24  Cl   0.164897   0.000437  -0.000013   0.000010  -0.000001   0.000000
    25  H    0.387151   0.000158   0.000003  -0.000008   0.000022  -0.000000
    26  S    0.108234   0.001629  -0.000043   0.000010  -0.000004   0.000001
    27  H   -0.006326  -0.000005   0.000000   0.000000  -0.000000   0.000000
    28  F   -0.032836  -0.000181   0.000001  -0.000000  -0.000000   0.000000
    29  F   -0.002879   0.000011   0.000000  -0.000000  -0.000000   0.000000
    30  F   -0.033093  -0.000201   0.000001   0.000000  -0.000000   0.000000
    31  F    0.003418   0.000010   0.000000  -0.000000  -0.000000  -0.000000
    32  F   -0.002527  -0.000004   0.000000  -0.000000  -0.000000  -0.000000
              19         20         21         22         23         24
     1  C   -0.000571  -0.000113   0.000116  -0.000027   0.130346  -0.004261
     2  N   -0.001257  -0.000011   0.000010  -0.000081  -0.017643   0.000351
     3  C   -0.003401  -0.000982   0.006039  -0.002110   0.003760   0.018204
     4  O   -0.000142  -0.000048   0.000019  -0.000038  -0.000175  -0.000773
     5  N    0.007516   0.000427  -0.001289  -0.000543  -0.000435   0.003040
     6  C   -0.068062  -0.051509   0.083966  -0.043364  -0.000141   0.003472
     7  C    0.459430   0.020499  -0.120994   0.009590   0.000017  -0.000204
     8  C   -0.046631   0.377088   0.381905   0.381324   0.000000   0.000026
     9  C    0.000414   0.000010  -0.000003  -0.000010   0.218347   0.188051
    10  C   -0.000016  -0.000001   0.000001   0.000000   0.018904  -0.268800
    11  C    0.000005   0.000000  -0.000000  -0.000000  -0.065134   0.151324
    12  C   -0.000038  -0.000001   0.000000   0.000000  -0.005210  -1.111230
    13  C   -0.000556   0.000013   0.000007  -0.000004   0.006101   0.164897
    14  H    0.000012  -0.000000   0.000000   0.000000   0.004376   0.000437
    15  H   -0.001064  -0.000006  -0.000032  -0.000041   0.000018  -0.000013
    16  H   -0.008296  -0.000492  -0.000060   0.003579   0.000001   0.000010
    17  H    0.005544   0.003268  -0.000034  -0.000457  -0.000000  -0.000001
    18  H   -0.041123  -0.008326  -0.003209   0.005907  -0.000000   0.000000
    19  H    0.435425   0.005870  -0.003160  -0.008178  -0.000000   0.000000
    20  H    0.005870   0.445779  -0.024313  -0.036539   0.000000  -0.000000
    21  H   -0.003160  -0.024313   0.424991  -0.024320   0.000000  -0.000000
    22  H   -0.008178  -0.036539  -0.024320   0.445295  -0.000000  -0.000000
    23  H   -0.000000   0.000000   0.000000  -0.000000   0.347402   0.000336
    24  Cl   0.000000  -0.000000  -0.000000  -0.000000   0.000336  17.476144
    25  H    0.000000  -0.000000   0.000000  -0.000000   0.000022  -0.011783
    26  S   -0.000001   0.000000   0.000000  -0.000000   0.028957  -0.003546
    27  H    0.000000  -0.000000   0.000000   0.000000  -0.000016  -0.011654
    28  F    0.000000   0.000000   0.000000   0.000000  -0.001404  -0.000069
    29  F   -0.000000  -0.000000   0.000000   0.000000  -0.000377  -0.000134
    30  F    0.000000   0.000000   0.000000   0.000000  -0.001009  -0.000156
    31  F   -0.000000   0.000000  -0.000000  -0.000000  -0.000137  -0.000440
    32  F   -0.000000   0.000000  -0.000000   0.000000  -0.000912   0.000201
              25         26         27         28         29         30
     1  C   -0.102436  -0.302922  -0.000104  -0.244936   0.144951  -0.285541
     2  N   -0.008659   0.007116   0.000777   0.001518   0.000483  -0.000137
     3  C    0.056607  -0.082284  -0.000028  -0.001612   0.001041  -0.005666
     4  O   -0.010753  -0.001066   0.000013   0.000001  -0.000006   0.000002
     5  N   -0.000041  -0.000046   0.000011   0.000082   0.000011  -0.000011
     6  C    0.005127  -0.002519   0.000010   0.000023   0.000002  -0.000026
     7  C   -0.000246  -0.000020  -0.000000  -0.000002  -0.000000   0.000001
     8  C    0.000022  -0.000020   0.000000   0.000000   0.000000   0.000000
     9  C   -0.035234   0.467003  -0.101606  -0.230717   0.314220  -0.233245
    10  C    0.028822  -2.175022   0.035764   0.152774   0.076698   0.183717
    11  C    0.017468   0.419636   0.200331   0.254905  -0.257209   0.272400
    12  C   -0.015170   0.007792   0.142124   0.111066  -0.242994   0.122237
    13  C    0.387151   0.108234  -0.006326  -0.032836  -0.002879  -0.033093
    14  H    0.000158   0.001629  -0.000005  -0.000181   0.000011  -0.000201
    15  H    0.000003  -0.000043   0.000000   0.000001   0.000000   0.000001
    16  H   -0.000008   0.000010   0.000000  -0.000000  -0.000000   0.000000
    17  H    0.000022  -0.000004  -0.000000  -0.000000  -0.000000  -0.000000
    18  H   -0.000000   0.000001   0.000000   0.000000   0.000000   0.000000
    19  H    0.000000  -0.000001   0.000000   0.000000  -0.000000   0.000000
    20  H   -0.000000   0.000000  -0.000000   0.000000  -0.000000   0.000000
    21  H    0.000000   0.000000   0.000000   0.000000   0.000000   0.000000
    22  H   -0.000000  -0.000000   0.000000   0.000000   0.000000   0.000000
    23  H    0.000022   0.028957  -0.000016  -0.001404  -0.000377  -0.001009
    24  Cl  -0.011783  -0.003546  -0.011654  -0.000069  -0.000134  -0.000156
    25  H    0.350454   0.001053  -0.000249  -0.000006   0.000004  -0.000007
    26  S    0.001053  17.085357   0.044352   0.051204   0.025665   0.047765
    27  H   -0.000249   0.044352   0.342581  -0.000013  -0.001564   0.000100
    28  F   -0.000006   0.051204  -0.000013   8.973377  -0.029595  -0.005443
    29  F    0.000004   0.025665  -0.001564  -0.029595   8.978011  -0.053250
    30  F   -0.000007   0.047765   0.000100  -0.005443  -0.053250   8.965929
    31  F    0.000003   0.008701  -0.000643  -0.051614  -0.005266  -0.027792
    32  F    0.000000  -0.250804  -0.000952   0.010814   0.013378   0.009734
              31         32
     1  C    0.130259  -0.037845
     2  N   -0.000206  -0.000112
     3  C    0.000155  -0.000076
     4  O   -0.000000   0.000000
     5  N   -0.000000  -0.000003
     6  C    0.000003  -0.000001
     7  C    0.000000   0.000000
     8  C    0.000000  -0.000000
     9  C    0.291519   0.077763
    10  C    0.090975  -0.009870
    11  C   -0.249081   0.067571
    12  C   -0.218511  -0.035883
    13  C    0.003418  -0.002527
    14  H    0.000010  -0.000004
    15  H    0.000000   0.000000
    16  H   -0.000000  -0.000000
    17  H   -0.000000  -0.000000
    18  H   -0.000000  -0.000000
    19  H   -0.000000  -0.000000
    20  H    0.000000   0.000000
    21  H   -0.000000  -0.000000
    22  H   -0.000000   0.000000
    23  H   -0.000137  -0.000912
    24  Cl  -0.000440   0.000201
    25  H    0.000003   0.000000
    26  S    0.008701  -0.250804
    27  H   -0.000643  -0.000952
    28  F   -0.051614   0.010814
    29  F   -0.005266   0.013378
    30  F   -0.027792   0.009734
    31  F    8.975359   0.014285
    32  F    0.014285   9.151956
 Mulliken charges:
               1
     1  C   -0.834533
     2  N   -0.324486
     3  C   -0.007860
     4  O   -0.517527
     5  N   -0.410225
     6  C   -0.517077
     7  C   -0.159845
     8  C   -1.038051
     9  C    0.364724
    10  C   -1.509208
    11  C    0.092509
    12  C    0.362256
    13  C   -0.405628
    14  H    0.432073
    15  H    0.454111
    16  H    0.277942
    17  H    0.278203
    18  H    0.267959
    19  H    0.268280
    20  H    0.269387
    21  H    0.280360
    22  H    0.270018
    23  H    0.334007
    24  Cl   0.406573
    25  H    0.337675
    26  S    0.513823
    27  H    0.357099
    28  F    0.042662
    29  F    0.038799
    30  F    0.043690
    31  F    0.039002
    32  F   -0.006712
 Sum of Mulliken charges =  -0.00000
 Mulliken charges with hydrogens summed into heavy atoms:
               1
     1  C   -0.834533
     2  N    0.107588
     3  C   -0.007860
     4  O   -0.517527
     5  N    0.043886
     6  C    0.039069
     7  C    0.376394
     8  C   -0.218287
     9  C    0.698731
    10  C   -1.509208
    11  C    0.449607
    12  C    0.362256
    13  C   -0.067953
    24  Cl   0.406573
    26  S    0.513823
    28  F    0.042662
    29  F    0.038799
    30  F    0.043690
    31  F    0.039002
    32  F   -0.006712
 Electronic spatial extent (au):  <R**2>=          10440.4596
 Charge=              0.0000 electrons
 Dipole moment (field-independent basis, Debye):
    X=              6.9060    Y=             -5.2656    Z=             -2.8109  Tot=              9.1280
 Quadrupole moment (field-independent basis, Debye-Ang):
   XX=           -125.3308   YY=           -133.2102   ZZ=           -134.7310
   XY=            -27.2024   XZ=             -7.6648   YZ=              0.5714
 Traceless Quadrupole moment (field-independent basis, Debye-Ang):
   XX=              5.7599   YY=             -2.1195   ZZ=             -3.6404
   XY=            -27.2024   XZ=             -7.6648   YZ=              0.5714
 Octapole moment (field-independent basis, Debye-Ang**2):
  XXX=            110.7218  YYY=            -57.1354  ZZZ=              3.3081  XYY=             -9.0889
  XXY=            -53.6812  XXZ=            -23.8388  XZZ=            -22.8000  YZZ=            -15.0582
  YYZ=             -8.8518  XYZ=             -2.1733
 Hexadecapole moment (field-independent basis, Debye-Ang**3):
 XXXX=          -9802.8105 YYYY=          -2381.3629 ZZZZ=           -346.9199 XXXY=           -328.2795
 XXXZ=           -104.0871 YYYX=             47.1794 YYYZ=              7.1222 ZZZX=             -4.9563
 ZZZY=              0.7105 XXYY=          -2119.5662 XXZZ=          -1807.8730 YYZZ=           -464.2958
 XXYZ=              2.6094 YYXZ=            -35.2514 ZZXY=             28.3460
 N-N= 2.001724826313D+03 E-N=-8.565415050910D+03  KE= 1.925747213869D+03
 D1PCM: PCM CHGder 1st derivatives, ID1Alg=3 FixD1E=F DoIter=F DoCFld=F I1PDM=0.
 Calling FoFJK, ICntrl=      2127 FMM=F ISym2X=0 I1Cent= 0 IOpClX= 0 NMat=1 NMatS=1 NMatT=0.
 ***** Axes restored to original set *****
 -------------------------------------------------------------------
 Center     Atomic                   Forces (Hartrees/Bohr)
 Number     Number              X              Y              Z
 -------------------------------------------------------------------
      1        6           0.000011962    0.000016162   -0.000011187
      2        7           0.000022887   -0.000000155    0.000021352
      3        6          -0.000037840   -0.000023422   -0.000003926
      4        8           0.000009417    0.000014229    0.000002899
      5        7           0.000006402   -0.000005095   -0.000009028
      6        6          -0.000002182    0.000000312    0.000001631
      7        6          -0.000001595    0.000004103    0.000002557
      8        6           0.000001164    0.000004425   -0.000004694
      9        6          -0.000013028   -0.000001437    0.000002244
     10        6           0.000011077   -0.000006051   -0.000000056
     11        6          -0.000002947    0.000013846   -0.000002467
     12        6          -0.000008585   -0.000015270    0.000002872
     13        6           0.000001042   -0.000006345   -0.000004349
     14        1          -0.000006267    0.000006562   -0.000005044
     15        1           0.000001400    0.000004961   -0.000001728
     16        1           0.000000013    0.000004634   -0.000002388
     17        1           0.000000960    0.000002689    0.000001171
     18        1           0.000000945    0.000002230    0.000000121
     19        1           0.000002535    0.000002591   -0.000003269
     20        1          -0.000000714    0.000003420   -0.000000845
     21        1           0.000000531    0.000006081    0.000000178
     22        1           0.000000838    0.000004921   -0.000002729
     23        1           0.000007078   -0.000003559    0.000002426
     24       17          -0.000002333    0.000003266   -0.000000917
     25        1          -0.000007217    0.000002151    0.000003360
     26       16           0.000019253   -0.000006354   -0.000000592
     27        1           0.000000471   -0.000004851    0.000002632
     28        9           0.000004514   -0.000003679    0.000008935
     29        9          -0.000009932   -0.000010673   -0.000001508
     30        9          -0.000008480   -0.000010581   -0.000004264
     31        9          -0.000002185   -0.000005712    0.000007360
     32        9           0.000000815    0.000006603   -0.000000748
 -------------------------------------------------------------------
 Cartesian Forces:  Max     0.000037840 RMS     0.000008226

 GradGradGradGradGradGradGradGradGradGradGradGradGradGradGradGradGradGrad
 Berny optimization.
 FormGI is forming the generalized inverse of G from B-inverse, IUseBI=4.
 Internal  Forces:  Max     0.000027315 RMS     0.000005576
 Search for a local minimum.
 Step number   1 out of a maximum of  173
 All quantities printed in internal units (Hartrees-Bohrs-Radians)
 Mixed Optimization -- En-DIIS/RFO-DIIS
 Second derivative matrix not updated -- first step.
 ITU=  0
     Eigenvalues ---    0.00278   0.00453   0.00510   0.00923   0.01398
     Eigenvalues ---    0.01531   0.01762   0.01864   0.01971   0.02012
     Eigenvalues ---    0.02129   0.02138   0.02189   0.02218   0.02253
     Eigenvalues ---    0.02264   0.02267   0.02293   0.02412   0.03779
     Eigenvalues ---    0.04496   0.04959   0.05558   0.05569   0.05573
     Eigenvalues ---    0.08132   0.09066   0.09066   0.09162   0.12036
     Eigenvalues ---    0.12639   0.13566   0.13573   0.13588   0.13598
     Eigenvalues ---    0.15691   0.15997   0.15998   0.16000   0.16000
     Eigenvalues ---    0.16000   0.16000   0.16000   0.16728   0.21889
     Eigenvalues ---    0.21917   0.22001   0.22113   0.23479   0.23512
     Eigenvalues ---    0.23521   0.24975   0.24997   0.24999   0.25000
     Eigenvalues ---    0.25000   0.25000   0.25000   0.25573   0.30017
     Eigenvalues ---    0.30432   0.31116   0.34299   0.34306   0.34374
     Eigenvalues ---    0.34400   0.34466   0.34467   0.34640   0.35611
     Eigenvalues ---    0.35791   0.36074   0.37203   0.42609   0.43157
     Eigenvalues ---    0.45449   0.45786   0.46417   0.46511   0.47095
     Eigenvalues ---    0.47848   0.47919   0.47921   0.48074   0.48107
     Eigenvalues ---    0.48116   0.48117   0.48560   0.55982   0.90087
 RFO step:  Lambda=-3.06244389D-08 EMin= 2.77781000D-03
 Linear search not attempted -- first point.
 Iteration  1 RMS(Cart)=  0.00019700 RMS(Int)=  0.00000001
 Iteration  2 RMS(Cart)=  0.00000003 RMS(Int)=  0.00000000
 Variable       Old X    -DE/DX   Delta X   Delta X   Delta X     New X
                                 (Linear)    (Quad)   (Total)
    R1        2.63559  -0.00000   0.00000  -0.00001  -0.00001   2.63558
    R2        2.64502   0.00000   0.00000   0.00001   0.00001   2.64502
    R3        2.64158  -0.00000   0.00000  -0.00001  -0.00001   2.64157
    R4        2.62101  -0.00003   0.00000  -0.00005  -0.00005   2.62096
    R5        1.91458  -0.00001   0.00000  -0.00001  -0.00001   1.91457
    R6        2.32893   0.00002   0.00000   0.00002   0.00002   2.32894
    R7        2.54270   0.00001   0.00000   0.00001   0.00001   2.54271
    R8        2.75541  -0.00000   0.00000  -0.00000  -0.00000   2.75541
    R9        1.91074  -0.00000   0.00000  -0.00001  -0.00001   1.91073
   R10        2.87110  -0.00000   0.00000  -0.00001  -0.00001   2.87109
   R11        2.06660  -0.00000   0.00000  -0.00000  -0.00000   2.06660
   R12        2.06704  -0.00000   0.00000  -0.00000  -0.00000   2.06704
   R13        2.87930   0.00000   0.00000   0.00000   0.00000   2.87930
   R14        2.06828  -0.00000   0.00000  -0.00000  -0.00000   2.06828
   R15        2.06816  -0.00000   0.00000  -0.00000  -0.00000   2.06816
   R16        2.06550  -0.00000   0.00000  -0.00000  -0.00000   2.06549
   R17        2.06264  -0.00000   0.00000  -0.00000  -0.00000   2.06263
   R18        2.06551  -0.00000   0.00000  -0.00000  -0.00000   2.06551
   R19        2.61025  -0.00001   0.00000  -0.00002  -0.00002   2.61023
   R20        2.04695   0.00000   0.00000   0.00001   0.00001   2.04696
   R21        2.62022   0.00001   0.00000   0.00002   0.00002   2.62024
   R22        3.41472   0.00001   0.00000   0.00002   0.00002   3.41475
   R23        2.62079  -0.00000   0.00000  -0.00001  -0.00001   2.62078
   R24        2.04410  -0.00000   0.00000  -0.00001  -0.00001   2.04409
   R25        2.61979   0.00000   0.00000   0.00001   0.00001   2.61980
   R26        3.29491   0.00001   0.00000   0.00002   0.00002   3.29492
   R27        2.03966  -0.00000   0.00000  -0.00001  -0.00001   2.03965
   R28        3.05525   0.00001   0.00000   0.00002   0.00002   3.05527
   R29        3.05514  -0.00000   0.00000  -0.00001  -0.00001   3.05513
   R30        3.05560   0.00001   0.00000   0.00001   0.00001   3.05562
   R31        3.05516  -0.00000   0.00000  -0.00001  -0.00001   3.05515
   R32        3.05723  -0.00001   0.00000  -0.00001  -0.00001   3.05722
    A1        2.05287  -0.00003   0.00000  -0.00011  -0.00011   2.05276
    A2        2.14350   0.00003   0.00000   0.00011   0.00011   2.14361
    A3        2.08600  -0.00000   0.00000  -0.00000  -0.00000   2.08600
    A4        2.19337   0.00002   0.00000   0.00009   0.00009   2.19345
    A5        2.01661  -0.00001   0.00000  -0.00006  -0.00006   2.01655
    A6        2.03779  -0.00000   0.00000   0.00002   0.00002   2.03781
    A7        2.14149   0.00001   0.00000   0.00004   0.00004   2.14152
    A8        1.99882   0.00000   0.00000   0.00000   0.00000   1.99883
    A9        2.14287  -0.00001   0.00000  -0.00004  -0.00004   2.14283
   A10        2.11340  -0.00001   0.00000  -0.00003  -0.00003   2.11337
   A11        2.09894   0.00000   0.00000   0.00001   0.00001   2.09895
   A12        2.07057   0.00000   0.00000   0.00002   0.00002   2.07059
   A13        1.92477   0.00000   0.00000   0.00002   0.00002   1.92479
   A14        1.90843  -0.00000   0.00000   0.00001   0.00001   1.90844
   A15        1.90927  -0.00000   0.00000   0.00000   0.00000   1.90927
   A16        1.92300  -0.00000   0.00000  -0.00000  -0.00000   1.92300
   A17        1.92308  -0.00000   0.00000  -0.00000  -0.00000   1.92308
   A18        1.87453  -0.00000   0.00000  -0.00002  -0.00002   1.87451
   A19        1.93905  -0.00000   0.00000  -0.00002  -0.00002   1.93904
   A20        1.90672   0.00000   0.00000   0.00001   0.00001   1.90673
   A21        1.90658   0.00000   0.00000   0.00002   0.00002   1.90660
   A22        1.92086   0.00000   0.00000  -0.00001  -0.00001   1.92085
   A23        1.92101   0.00000   0.00000   0.00001   0.00001   1.92103
   A24        1.86816  -0.00000   0.00000  -0.00001  -0.00001   1.86815
   A25        1.93805  -0.00000   0.00000  -0.00000  -0.00000   1.93805
   A26        1.93878   0.00000   0.00000   0.00001   0.00001   1.93879
   A27        1.93813   0.00000   0.00000   0.00000   0.00000   1.93813
   A28        1.88215   0.00000   0.00000   0.00000   0.00000   1.88215
   A29        1.88226  -0.00000   0.00000  -0.00001  -0.00001   1.88226
   A30        1.88205  -0.00000   0.00000  -0.00001  -0.00001   1.88204
   A31        2.07003   0.00000   0.00000   0.00001   0.00001   2.07005
   A32        2.08768  -0.00001   0.00000  -0.00004  -0.00004   2.08764
   A33        2.12546   0.00000   0.00000   0.00003   0.00003   2.12549
   A34        2.16035  -0.00000   0.00000  -0.00000  -0.00000   2.16035
   A35        2.06185  -0.00000   0.00000  -0.00001  -0.00001   2.06184
   A36        2.06096   0.00000   0.00000   0.00001   0.00001   2.06097
   A37        2.02328  -0.00000   0.00000  -0.00002  -0.00002   2.02327
   A38        2.14357   0.00000   0.00000   0.00000   0.00000   2.14357
   A39        2.11631   0.00000   0.00000   0.00001   0.00001   2.11632
   A40        2.14705   0.00000   0.00000   0.00002   0.00002   2.14708
   A41        2.06812  -0.00000   0.00000  -0.00000  -0.00000   2.06812
   A42        2.06791  -0.00000   0.00000  -0.00002  -0.00002   2.06789
   A43        2.07936  -0.00000   0.00000  -0.00001  -0.00001   2.07935
   A44        2.10683   0.00001   0.00000   0.00004   0.00004   2.10687
   A45        2.09691  -0.00000   0.00000  -0.00003  -0.00003   2.09688
   A46        1.62526   0.00000   0.00000   0.00003   0.00003   1.62529
   A47        1.62241   0.00000   0.00000   0.00003   0.00003   1.62244
   A48        1.62457   0.00001   0.00000   0.00009   0.00009   1.62466
   A49        1.62272   0.00000   0.00000  -0.00000  -0.00000   1.62272
   A50        1.56795  -0.00000   0.00000   0.00000   0.00000   1.56795
   A51        1.56769   0.00000   0.00000   0.00005   0.00005   1.56774
   A52        1.51748   0.00001   0.00000   0.00003   0.00003   1.51751
   A53        1.56852  -0.00000   0.00000  -0.00005  -0.00005   1.56847
   A54        1.51807  -0.00001   0.00000  -0.00009  -0.00009   1.51797
   A55        1.56782  -0.00000   0.00000  -0.00002  -0.00002   1.56781
   A56        1.51814  -0.00000   0.00000  -0.00002  -0.00002   1.51812
   A57        1.51772  -0.00001   0.00000  -0.00005  -0.00005   1.51767
   A58        3.14274   0.00001   0.00000   0.00006   0.00006   3.14280
   A59        3.24799   0.00000   0.00000   0.00002   0.00002   3.24801
   A60        3.24698   0.00002   0.00000   0.00012   0.00012   3.24710
   A61        3.14047  -0.00001   0.00000  -0.00006  -0.00006   3.14041
   A62        3.14123   0.00000   0.00000   0.00004   0.00004   3.14127
   A63        3.14137   0.00001   0.00000   0.00006   0.00006   3.14143
    D1       -2.64327   0.00000   0.00000   0.00010   0.00010  -2.64317
    D2        0.20488   0.00001   0.00000   0.00029   0.00029   0.20517
    D3        0.54201   0.00000   0.00000   0.00012   0.00012   0.54213
    D4       -2.89302   0.00001   0.00000   0.00031   0.00031  -2.89271
    D5       -3.11176  -0.00000   0.00000  -0.00001  -0.00001  -3.11178
    D6        0.03482   0.00000   0.00000   0.00007   0.00007   0.03489
    D7       -0.01237  -0.00000   0.00000  -0.00003  -0.00003  -0.01240
    D8        3.13422   0.00000   0.00000   0.00005   0.00005   3.13427
    D9        3.12169  -0.00000   0.00000  -0.00002  -0.00002   3.12168
   D10       -0.00611  -0.00000   0.00000  -0.00006  -0.00006  -0.00617
   D11        0.02459   0.00000   0.00000   0.00001   0.00001   0.02459
   D12       -3.10322  -0.00000   0.00000  -0.00004  -0.00004  -3.10325
   D13       -0.07114   0.00000   0.00000   0.00019   0.00019  -0.07095
   D14        3.06869   0.00000   0.00000   0.00020   0.00020   3.06889
   D15       -2.91613   0.00000   0.00000   0.00001   0.00001  -2.91612
   D16        0.22369   0.00000   0.00000   0.00002   0.00002   0.22372
   D17       -3.14145   0.00000   0.00000   0.00009   0.00009  -3.14136
   D18        0.02562   0.00000   0.00000   0.00001   0.00001   0.02563
   D19       -0.00163   0.00000   0.00000   0.00011   0.00011  -0.00153
   D20       -3.11774   0.00000   0.00000   0.00003   0.00003  -3.11771
   D21        3.13858  -0.00000   0.00000  -0.00016  -0.00016   3.13842
   D22        1.02150  -0.00000   0.00000  -0.00017  -0.00017   1.02133
   D23       -1.02688  -0.00000   0.00000  -0.00015  -0.00015  -1.02703
   D24       -0.02809  -0.00000   0.00000  -0.00008  -0.00008  -0.02817
   D25       -2.14516  -0.00000   0.00000  -0.00010  -0.00010  -2.14526
   D26        2.08964   0.00000   0.00000  -0.00008  -0.00008   2.08956
   D27        3.13880  -0.00000   0.00000  -0.00018  -0.00018   3.13862
   D28        1.01634  -0.00000   0.00000  -0.00016  -0.00016   1.01618
   D29       -1.02185  -0.00000   0.00000  -0.00016  -0.00016  -1.02201
   D30       -1.03601  -0.00000   0.00000  -0.00016  -0.00016  -1.03617
   D31        3.12473   0.00000   0.00000  -0.00014  -0.00014   3.12459
   D32        1.08653   0.00000   0.00000  -0.00014  -0.00014   1.08640
   D33        1.02931  -0.00000   0.00000  -0.00019  -0.00019   1.02912
   D34       -1.09314  -0.00000   0.00000  -0.00017  -0.00017  -1.09331
   D35       -3.13133  -0.00000   0.00000  -0.00017  -0.00017  -3.13150
   D36       -1.04821   0.00000   0.00000  -0.00010  -0.00010  -1.04830
   D37        3.14046  -0.00000   0.00000  -0.00010  -0.00010   3.14036
   D38        1.04602  -0.00000   0.00000  -0.00010  -0.00010   1.04591
   D39        1.06596   0.00000   0.00000  -0.00010  -0.00010   1.06586
   D40       -1.02856  -0.00000   0.00000  -0.00011  -0.00011  -1.02867
   D41       -3.12300  -0.00000   0.00000  -0.00011  -0.00011  -3.12311
[...]
 8,0.00000600,0.00000116,0.00000081,-0.00000275,-0.00000046,0.00178546,
 -0.00065258,0.00105838,0.00294988,0.00014372,-0.00048903,-0.29185313,0
 .12056244,0.03519056,-0.01581031,0.01104438,0.00204440,-0.00123643,-0.
 00277617,0.00216295,-0.00000920,0.00002924,-0.00002647,-0.00000353,0.0
 0000863,0.00000558,0.00000684,-0.00000084,-0.00000034,0.00000637,0.000
 00099,-0.00000086,-0.00000035,-0.00000035,-0.00000038,-0.00000020,-0.0
 0000033,0.00000013,0.00000012,0.00000011,-0.00000004,0.00000137,0.0000
 0013,0.00000013,0.00000001,0.00000006,0.00000005,0.00027728,-0.0001296
 3,0.00017480,0.00084827,0.00098669,-0.00106441,-0.00046314,0.00056002,
 0.00005265,-0.00036560,-0.00021917,-0.00019261,0.30591285,-0.00031451,
 -0.00080223,-0.00004142,-0.00025028,0.00031559,-0.00006844,0.00020437,
 -0.00001121,-0.00005387,-0.00011047,0.00003238,-0.00004524,-0.00007757
 ,0.00005586,0.00002340,0.00002065,0.00000718,0.00000313,-0.00000141,-0
 .00000548,-0.00000081,-0.00000073,0.00000255,0.00000059,-0.00122142,-0
 .00462923,0.00222220,0.02477709,-0.00779258,-0.00391437,0.12109450,-0.
 11599861,-0.01085014,-0.01621154,0.01056063,0.00212141,-0.00272029,-0.
 00187203,0.00223500,-0.00008695,-0.00000972,0.00004645,-0.00000319,-0.
 00000839,0.00000192,-0.00000472,-0.00000183,-0.00000201,-0.00000679,-0
 .00000047,-0.00000062,-0.00000004,0.00000029,0.00000013,-0.00000001,0.
 00000066,-0.00000016,-0.00000003,-0.00000010,0.00000002,-0.00000137,-0
 .00000019,-0.00000011,-0.00000016,-0.00000016,-0.00000014,0.00120785,-
 0.00013732,-0.00006559,-0.00083095,0.00122907,-0.00039619,-0.00065777,
 0.00067977,0.00009444,0.00226570,-0.00446575,-0.00007958,-0.12569578,0
 .11993949,-0.00015876,0.00010446,-0.00134900,-0.00016208,0.00018741,-0
 .00046173,0.00004254,0.00015367,-0.00003033,0.00019834,-0.00011462,0.0
 0003361,-0.00004139,0.00000469,0.00004829,0.00000483,-0.00000260,0.000
 01826,-0.00000162,-0.00000098,-0.00000052,-0.00000060,0.00000108,-0.00
 000125,0.00067582,0.00224571,0.00505822,-0.00519252,0.00150217,0.00195
 380,0.03495570,-0.01053715,-0.03775206,0.00730973,-0.00388273,0.002127
 89,0.00250141,0.00181472,0.00451852,0.00002098,-0.00004654,0.00003881,
 -0.00000299,-0.00001049,0.00001495,0.00000272,-0.00000550,-0.00000627,
 -0.00000485,0.00000382,-0.00000157,0.00000036,-0.00000073,-0.00000042,
 0.00000031,0.00000036,-0.00000013,-0.00000003,0.00000018,-0.00000004,-
 0.00000014,0.,0.,-0.00000028,-0.00000009,-0.00000017,-0.00008533,0.000
 27747,0.00083895,-0.00062785,-0.00097700,-0.00236486,0.00022616,-0.000
 18901,0.00011665,-0.00067921,0.00078550,-0.00138173,-0.03955636,0.0088
 2562,0.03052672,0.00186789,-0.00012245,0.00040956,-0.00044447,0.000120
 74,0.00007069,0.00042941,0.00020449,-0.00005985,-0.00009960,-0.0001207
 0,-0.00003747,-0.00014432,0.00005157,0.00001323,0.00003103,0.00001397,
 0.00001748,-0.00000424,-0.00001032,-0.00000302,-0.00000148,0.00000567,
 0.00000044,-0.00258123,0.00015006,0.00279892,-0.00154510,-0.01007344,0
 .00715466,0.00073708,0.00150341,0.00042563,-0.00130198,-0.00011743,0.0
 0001490,0.00030460,-0.00092527,0.00006095,0.00002638,-0.00003585,0.000
 00700,0.00000078,-0.00001534,-0.00000501,-0.00000875,-0.00000170,-0.00
 000259,-0.00001157,-0.00000186,0.00000073,0.00000031,0.00000116,0.0000
 0108,-0.00000009,0.00000080,0.00000024,-0.00000077,-0.00000065,0.00000
 042,-0.00000295,0.00000008,-0.00000037,0.,0.00000003,-0.00000019,0.000
 01376,-0.00195842,0.00049458,0.00006712,-0.00024481,0.00000475,0.00004
 229,-0.00010525,-0.00008780,-0.07673850,0.02565121,-0.03436422,-0.0000
 3270,-0.00030124,0.00014200,0.14436640,0.00141058,0.00025148,-0.001099
 42,-0.00184125,-0.00002170,0.00016268,0.00127968,0.00062172,0.00012464
 ,-0.00044847,-0.00030764,-0.00010432,-0.00054282,0.00017151,-0.0000084
 7,0.00010332,0.00006926,0.00002728,-0.00001866,-0.00004067,-0.00000527
 ,-0.00000593,0.00002128,0.00000205,-0.00122274,-0.00322464,0.00203477,
 0.01463639,-0.01090183,0.01691259,-0.00515080,0.00164176,0.00314351,-0
 .00074464,-0.00026564,-0.00108446,0.00000384,-0.00093144,0.00048952,-0
 .00004234,-0.00013482,0.00000334,0.00000153,-0.00005605,-0.00000045,-0
 .00003354,-0.00000825,-0.00000728,-0.00003473,-0.00000586,0.00000040,0
 .00000051,0.00000239,0.00000246,-0.00000123,0.00000568,-0.00000210,-0.
 00000048,-0.00000052,-0.00000008,-0.00001031,-0.00000108,-0.00000046,-
 0.00000077,-0.00000115,-0.00000074,-0.00071456,0.00028769,0.00042138,-
 0.00026367,-0.00132355,0.00018099,0.00007744,0.00002169,0.00003183,0.0
 2286124,-0.09004836,0.04861673,0.00021556,0.00055370,0.00018898,-0.045
 67761,0.12005229,-0.00158845,0.00024959,0.00075182,0.00181216,0.000023
 09,-0.00015403,-0.00133020,-0.00068780,-0.00012411,0.00043098,0.000348
 09,0.00010362,0.00055144,-0.00015535,-0.00000833,-0.00010825,-0.000073
 77,-0.00002744,0.00001942,0.00004004,0.00000692,0.00000567,-0.00002039
 ,-0.00000395,0.00289452,0.00241070,-0.00207205,-0.01876028,0.01184760,
 -0.00853408,0.00698102,-0.00033870,-0.00344034,-0.00042251,0.00058243,
 0.00085870,0.00036970,0.00049987,-0.00042674,0.00002111,0.00012327,-0.
 00001481,-0.00000515,0.00005499,-0.00000344,0.00003534,0.00000903,0.00
 000923,0.00003466,0.00000711,-0.00000108,-0.00000071,-0.00000235,-0.00
 000130,-0.00000158,-0.00000518,0.00000152,0.00000030,0.00000031,-0.000
 00001,0.00001020,0.00000129,0.00000031,0.00000139,0.00000138,0.0000012
 5,0.00062960,0.00086061,-0.00088633,0.00035129,0.00146689,-0.00024109,
 -0.00006422,0.00002293,-0.00001419,-0.03152194,0.04939832,-0.11609942,
 -0.00018137,-0.00039953,-0.00013937,0.06929951,-0.06340643,0.16896478,
 -0.00026289,-0.00120388,-0.00114756,-0.00200473,-0.00029595,-0.0000350
 0,0.00136732,0.00076027,0.00017917,-0.00049417,-0.00034907,-0.00009905
 ,-0.00062898,0.00015660,0.00000720,0.00012648,0.00009365,0.00002320,-0
 .00002363,-0.00004618,-0.00000873,-0.00000607,0.00002397,0.00000463,0.
 00051615,-0.00493890,0.00324967,-0.00905994,0.01809398,0.01844201,-0.0
 0354240,-0.00074875,0.00275832,0.00096668,0.00122755,-0.00083568,-0.00
 131991,0.00060543,0.00040338,-0.00002119,-0.00014365,-0.00001384,0.000
 00672,-0.00005923,-0.00001016,-0.00003782,-0.00000830,-0.00000911,-0.0
 0003895,-0.00001019,0.00000236,0.00000101,0.00000317,0.00000247,0.0000
 0125,0.00000430,-0.00000079,-0.00000110,-0.00000135,0.00000071,-0.0000
 1219,-0.00000129,-0.00000078,-0.00000087,-0.00000107,-0.00000121,0.000
 50942,0.00013951,0.00038652,-0.00005964,-0.00097907,0.00019060,0.00010
 563,-0.00002254,0.00001265,-0.07399440,0.02317202,0.03425479,-0.000784
 72,-0.00052774,0.00085422,-0.01095294,0.02416936,0.00637171,0.09499712
 ,-0.00032421,-0.00118755,0.00049941,0.00035261,0.00034325,-0.00001773,
 -0.00021301,-0.00022264,-0.00010362,0.00006846,0.00009709,0.00003945,0
 .00011951,0.00000073,0.00002014,-0.00001942,-0.00001856,-0.00001548,0.
 00000662,0.00000870,0.00000225,0.00000142,-0.00000640,0.00000093,0.001
 75358,0.00212385,-0.00077975,-0.00763619,-0.00456652,0.00079154,0.0005
 4899,-0.00167251,0.00188774,0.00062596,0.00109877,0.00042468,-0.000549
 39,0.00067983,-0.00006532,-0.00003756,0.00002610,0.00004333,-0.0000036
 4,0.00001237,-0.00000230,0.00000703,0.00000228,0.00000245,0.00000532,0
 .00000175,-0.00000022,-0.00000028,-0.00000051,0.00000020,-0.00000053,-
 0.00000037,-0.00000048,0.00000055,0.00000012,-0.00000043,0.00000220,0.
 00000043,0.00000012,0.00000028,0.00000024,0.00000062,-0.00052971,0.000
 03326,-0.00004756,0.00010352,0.00030508,-0.00005294,-0.00008904,0.0000
 4901,-0.00012309,0.02567264,-0.09642811,-0.04969239,-0.00145904,0.0003
 9192,0.00003439,0.02457277,-0.02909184,-0.00855449,-0.02908786,0.17521
 232,0.00010767,-0.00029084,0.00104161,0.00213224,0.00046849,-0.0000205
 0,-0.00134183,-0.00087113,-0.00022785,0.00044617,0.00039219,0.00012192
 ,0.00062710,-0.00012562,-0.00000692,-0.00012548,-0.00009938,-0.0000188
 1,0.00002543,0.00004732,0.00001052,0.00000634,-0.00002344,-0.00000600,
 0.00193024,0.00637065,-0.00356611,0.00538059,-0.02188026,-0.00799161,0
 .00334346,0.00166667,-0.00206314,-0.00059791,-0.00098047,0.00051333,0.
 00081275,-0.00011408,-0.00035024,-0.00000275,0.00014439,0.00002681,-0.
 00000953,0.00005882,0.00000487,0.00003847,0.00000930,0.00001000,0.0000
 3677,0.00000954,-0.00000218,-0.00000108,-0.00000257,-0.00000166,-0.000
 00117,-0.00000496,0.00000114,0.00000060,0.00000111,-0.00000055,0.00001
 179,0.00000149,0.00000056,0.00000113,0.00000135,0.00000166,-0.00048456
 ,-0.00013454,-0.00029149,0.00008150,0.00095742,-0.00020780,-0.00007738
 ,0.00003653,-0.00002162,0.03574479,-0.04784385,-0.11393417,0.00122345,
 0.00051905,-0.00127859,-0.00657154,0.00998616,0.00593101,-0.03678624,0
 .08743516,0.16580734,0.00208593,-0.00023465,-0.00094237,-0.00104943,0.
 00019130,0.00010850,0.00081665,0.00039573,0.00008164,-0.00025107,-0.00
 022492,-0.00004909,-0.00030410,0.00007838,-0.00000392,0.00006613,0.000
 04065,-0.00001055,-0.00000827,-0.00002215,-0.00000761,-0.00000205,0.00
 001075,0.00000565,-0.00392202,-0.00184670,-0.00121579,0.00211064,-0.01
 612140,-0.00542973,-0.00251511,0.00089803,-0.00106031,-0.00071723,-0.0
 0011567,0.00084208,0.00015879,-0.00098681,0.00015247,0.00000802,-0.000
 07481,0.00001044,0.00000563,-0.00002896,-0.00000109,-0.00002050,-0.000
 00375,-0.00000488,-0.00002113,-0.00000401,0.00000046,0.00000105,0.0000
 0175,0.00000101,0.00000129,0.00000171,-0.00000013,-0.00000030,-0.00000
 086,0.00000038,-0.00000600,-0.00000064,-0.00000015,-0.00000082,-0.0000
 0037,-0.00000065,-0.00032166,-0.00191087,0.00040641,-0.00003993,-0.000
 68689,0.00022496,0.00008527,-0.00005791,0.00006720,-0.05830525,0.00725
 476,0.00870879,-0.00002349,-0.00019241,-0.00009666,0.00362412,-0.00394
 155,-0.01509182,0.00499989,0.00179346,-0.00014740,0.09569535,0.0020038
 1,0.00048394,0.00026242,-0.00227865,0.00000868,0.00028457,0.00163257,0
 .00080009,0.00019240,-0.00055818,-0.00039314,-0.00011449,-0.00068573,0
 .00021471,-0.00000332,0.00013655,0.00009330,0.00000345,-0.00002247,-0.
 00005025,-0.00001006,-0.00000673,0.00002534,0.00000548,-0.00234942,-0.
 00428136,0.00021874,0.01097020,-0.02023730,-0.01965642,-0.00819231,0.0
 0048246,-0.00089883,0.00030191,0.00030189,0.00171847,-0.00027340,-0.00
 113462,-0.00002554,-0.00005739,-0.00016669,-0.00001175,0.00000022,-0.0
 0006898,-0.00000717,-0.00004264,-0.00000876,-0.00000778,-0.00004357,-0
 .00000933,0.00000053,-0.00000003,0.00000409,0.00000442,0.00000071,0.00
 000464,-0.00000246,-0.00000052,-0.00000136,0.00000007,-0.00001316,-0.0
 0000132,-0.00000057,-0.00000063,-0.00000085,-0.00000036,-0.00131408,-0
 .00027392,-0.00044858,-0.00029704,-0.00164464,0.00058772,0.00005952,-0
 .00000725,-0.00011299,0.00488964,-0.12965108,-0.05573565,0.00007507,0.
 00052853,-0.00066069,0.00167850,0.00429718,0.00045299,0.00531571,-0.00
 124583,-0.00744438,-0.02748111,0.17636456,0.00015945,-0.00004490,0.000
 24334,-0.00068498,-0.00009627,0.00007786,0.00047492,0.00028184,0.00002
 442,-0.00015539,-0.00011972,-0.00002390,-0.00021464,0.00005471,0.00001
 966,0.00004063,0.00002818,0.00001430,-0.00000695,-0.00001561,-0.000005
 70,-0.00000222,0.00000885,0.00000122,-0.00073003,-0.00080219,0.0008914
 8,0.01118190,-0.00227708,-0.00291497,-0.00462379,-0.00107574,0.0008232
 5,0.00122537,-0.00025462,0.00003447,-0.00044201,0.00021970,-0.00000847
 ,-0.00002107,-0.00004586,-0.00002061,0.00000112,-0.00002133,-0.0000078
 4,-0.00001210,-0.00000228,-0.00000217,-0.00001327,-0.00000408,0.000000
 70,-0.00000072,0.00000182,0.00000197,0.00000164,-0.00000006,-0.0000004
 0,-0.00000058,-0.00000061,0.00000008,-0.00000415,-0.00000047,-0.000000
 45,0.00000031,-0.00000008,0.00000039,-0.00050180,-0.00031107,-0.000311
 67,-0.00021395,-0.00066995,0.00023944,-0.00000950,-0.00000077,-0.00004
 775,0.00730099,-0.05771957,-0.09596464,0.00005903,0.00024510,-0.000194
 71,-0.00806343,-0.01811297,-0.04197639,0.00174084,-0.00488599,-0.00239
 980,-0.03220078,0.09004951,0.16153345,0.00057219,-0.00019619,0.0013297
 4,-0.00291850,-0.00024209,0.00045174,0.00202928,0.00114967,0.00043188,
 -0.00063899,-0.00056177,-0.00014598,-0.00087862,0.00023305,-0.00001884
 ,0.00018264,0.00013385,-0.00000170,-0.00003194,-0.00006333,-0.00001448
 ,-0.00000773,0.00003255,0.00000731,-0.00213615,-0.00857870,-0.00052649
 ,-0.01922703,0.01889718,-0.02124681,-0.00551519,-0.00238399,-0.0000984
 9,0.00140015,0.00179347,-0.00003112,-0.00155466,0.00036381,0.00011095,
 -0.00002364,-0.00019865,-0.00008364,0.00000683,-0.00008453,-0.00001117
 ,-0.00005673,-0.00001141,-0.00001061,-0.00005213,-0.00001574,0.0000032
 9,0.00000101,0.00000481,0.00000358,0.00000301,0.00000392,-0.00000091,-
 0.00000158,-0.00000229,0.00000088,-0.00001672,-0.00000187,-0.00000083,
 -0.00000090,-0.00000119,-0.00000139,0.00050526,-0.00003102,-0.00057364
 ,-0.00008330,-0.00131780,0.00031533,0.00010836,-0.00006294,-0.00010257
 ,-0.11601580,0.02456124,-0.05011594,-0.00105283,-0.00051515,-0.0002711
 4,0.00206533,0.00650727,-0.00730925,0.00371608,0.00164577,-0.00420716,
 -0.01115925,0.01781667,-0.00570882,0.14685249,-0.00025816,-0.00088009,
 0.00024907,-0.00025892,0.00020477,0.00002116,0.00018367,0.00006843,-0.
 00002088,-0.00002643,-0.00003592,-0.00001143,-0.00005540,0.00002820,0.
 00001275,0.00001310,0.00000342,-0.00000251,0.00000041,-0.00000517,-0.0
 0000259,-0.00000061,0.00000231,0.00000161,0.00074986,0.00009129,-0.000
 62575,-0.00828245,0.00144508,0.00142021,-0.00121175,-0.00303737,-0.000
 97820,0.00021978,0.00103039,-0.00106247,-0.00063827,0.00056823,0.00014
 240,-0.00003199,-0.00001589,0.00002442,-0.00000065,-0.00000593,-0.0000
 0172,-0.00000442,0.00000009,-0.00000087,-0.00000421,-0.00000073,-0.000
 00069,0.00000036,-0.00000011,0.00000009,-0.00000003,0.00000048,-0.0000
 0056,0.00000032,0.00000007,-0.00000020,-0.00000098,-0.00000009,0.00000
 005,0.,-0.00000023,0.00000001,-0.00037930,0.00006658,0.00005189,0.0000
 6317,0.00002854,-0.00007104,-0.00002828,0.00008938,0.00011592,0.027829
 73,-0.06952959,0.02737026,-0.00175633,0.00103464,0.00039128,0.00282061
 ,0.00204324,0.00243265,-0.00422764,0.00406532,-0.01536784,0.03054319,-
 0.02907890,0.00816407,-0.04454235,0.12077776,0.00027236,0.00124998,-0.
 00019347,-0.00105121,-0.00030355,0.00017601,0.00062791,0.00045614,0.00
 017710,-0.00019236,-0.00020554,-0.00004828,-0.00029672,0.00004821,-0.0
 0000148,0.00005807,0.00004828,-0.00000185,-0.00001240,-0.00002285,-0.0
 0000577,-0.00000321,0.00001210,0.00000261,-0.00273846,-0.00405915,0.00
 095146,0.00171545,0.01155890,-0.00354558,-0.00114400,-0.00032517,0.000
 90953,0.00003841,0.00009502,0.00041078,0.00004023,-0.00045468,-0.00002
 958,0.00001985,-0.00006865,-0.00006116,0.00000545,-0.00002757,-0.00000
 393,-0.00001795,-0.00000425,-0.00000323,-0.00001672,-0.00000511,0.0000
 0156,0.00000031,0.00000200,0.00000192,0.00000052,0.00000095,-0.0000002
 4,-0.00000080,-0.00000103,0.00000035,-0.00000562,-0.00000057,-0.000000
 50,0.00000012,-0.00000016,-0.00000012,0.00031479,-0.00000891,-0.000126
 41,-0.00007330,-0.00048135,0.00012197,0.00003307,-0.00006166,-0.000050
 06,-0.05286179,0.02633618,-0.09835968,-0.00026880,-0.00030308,-0.00037
 645,-0.00390947,0.00336318,-0.00275375,-0.01915232,-0.00217032,-0.0419
 1031,0.00478808,-0.00730862,0.00619492,0.07424278,-0.06116393,0.166002
 63,0.00075355,-0.00028031,-0.00020089,-0.00082337,-0.00000435,0.000117
 90,0.00060011,0.00030129,0.00006319,-0.00018891,-0.00016373,-0.0000458
 4,-0.00024141,0.00007610,0.00000567,0.00005427,0.00003275,0.00000011,-
 0.00000867,-0.00001764,-0.00000501,-0.00000201,0.00000812,0.00000255,0
 .00003475,-0.00020102,0.00008800,0.00158872,-0.00094921,0.00025303,-0.
 00089832,0.00011399,0.00015607,-0.00005807,0.00023549,0.00002442,-0.00
 025307,-0.00017609,0.00011241,0.00000256,-0.00004943,-0.00001515,0.000
 00220,-0.00002328,-0.00000636,-0.00001529,-0.00000280,-0.00000268,-0.0
 0001643,-0.00000438,0.00000035,0.00000055,0.00000129,0.00000100,0.0000
 0076,0.00000156,0.,-0.00000027,-0.00000096,0.00000042,-0.00000494,-0.0
 0000033,-0.00000027,-0.00000007,-0.00000053,-0.00000052,0.00044634,-0.
 00014354,-0.00001963,-0.00002370,-0.00047788,0.00009801,0.00003111,-0.
 00002290,-0.00000403,-0.11819694,-0.04598710,0.02411937,0.00001521,0.0
 0016237,-0.00005330,-0.05970583,-0.01057064,-0.01343429,-0.00406720,-0
 .01733078,-0.00159646,-0.03099117,-0.00126402,0.03142399,0.00392905,-0
 .00071600,-0.00041227,0.20803649,0.00009944,-0.00027053,0.00016653,-0.
 00059993,0.00002711,0.00002007,0.00039986,0.00021045,0.00001329,-0.000
 12855,-0.00009998,-0.00002209,-0.00017634,0.00005284,-0.00000081,0.000
 03404,0.00002011,0.00000760,-0.00000614,-0.00001248,-0.00000203,-0.000
 00176,0.00000610,0.00000099,-0.00023646,-0.00094575,0.00020225,-0.0010
 7749,0.00243199,0.00009942,0.00018660,0.00002147,-0.00010300,0.0002391
 6,0.00055518,-0.00005750,-0.00033344,0.00004501,0.00000086,-0.00000638
 ,-0.00003762,0.00000701,0.00000201,-0.00001766,-0.00000067,-0.00001075
 ,-0.00000267,-0.00000201,-0.00001072,-0.00000255,-0.00000005,0.0000003
 7,0.00000077,0.00000113,-0.00000040,0.00000175,-0.00000070,0.00000003,
 -0.00000036,-0.00000012,-0.00000345,-0.00000020,-0.00000018,-0.0000001
 3,-0.00000029,-0.00000010,0.00002478,0.00004191,0.00000180,-0.00003055
 ,-0.00027482,0.00004420,0.00001054,0.00000663,-0.00000187,-0.04601278,
 -0.08397147,0.01679432,-0.00003441,0.00040303,-0.00009337,0.00293727,0
 .00632415,0.00281082,-0.03111286,-0.05001159,-0.01292227,0.01272672,0.
 00464614,-0.01259255,-0.01433226,-0.02895822,0.03380521,0.07745398,0.1
 4981153,-0.00017332,0.00014854,0.00022131,0.00031464,-0.00002383,-0.00
 005197,-0.00021535,-0.00011257,-0.00001087,0.00006523,0.00006605,0.000
 01730,0.00009011,-0.00003071,-0.00000187,-0.00001780,-0.00000983,-0.00
 001605,0.00000396,0.00000601,0.00000035,0.00000088,-0.00000342,0.00000
 123,0.00001980,0.00019675,-0.00023110,0.00033764,0.00016496,0.00209755
 ,0.00012081,-0.00005344,-0.00018492,0.00000495,-0.00012550,0.00016072,
 0.00007369,-0.00002045,-0.00023937,-0.00000433,0.00002135,-0.00000009,
 -0.00000066,0.00000855,-0.00000062,0.00000556,0.00000185,0.00000195,0.
 00000591,0.00000098,-0.00000081,-0.00000029,-0.00000021,0.00000009,-0.
 00000022,-0.00000154,0.00000020,0.00000028,-0.00000013,-0.00000007,0.0
 0000163,0.00000009,0.00000007,0.00000034,0.00000037,0.00000043,-0.0001
 0949,0.00001492,0.00002822,0.00000596,0.00016066,-0.00004734,-0.000008
 12,0.00000307,0.00000585,0.02427839,0.01682946,-0.05988820,0.00001697,
 -0.00011717,0.00004455,-0.02781179,-0.00186004,0.00029309,-0.01078398,
 -0.02467028,0.00082857,0.04086485,-0.00133111,-0.02622146,0.01358352,0
 .03891285,-0.02747899,-0.04066978,-0.02817621,0.11067227\\-0.00001195,
 -0.00001617,0.00001119,-0.00002290,0.00000015,-0.00002135,0.00003785,0
 .00002343,0.00000393,-0.00000942,-0.00001424,-0.00000290,-0.00000641,0
 .00000510,0.00000903,0.00000218,-0.00000031,-0.00000163,0.00000159,-0.
 00000410,-0.00000256,-0.00000117,-0.00000442,0.00000469,0.00001303,0.0
 0000144,-0.00000225,-0.00001108,0.00000605,0.00000006,0.00000294,-0.00
 001386,0.00000247,0.00000861,0.00001528,-0.00000288,-0.00000105,0.0000
 0635,0.00000435,0.00000627,-0.00000656,0.00000504,-0.00000140,-0.00000
 496,0.00000173,-0.00000001,-0.00000463,0.00000239,-0.00000096,-0.00000
 269,-0.00000117,-0.00000094,-0.00000223,-0.00000012,-0.00000253,-0.000
 00259,0.00000327,0.00000071,-0.00000342,0.00000084,-0.00000053,-0.0000
 0608,-0.00000018,-0.00000084,-0.00000492,0.00000273,-0.00000708,0.0000
 0356,-0.00000243,0.00000233,-0.00000326,0.00000092,0.00000722,-0.00000
 215,-0.00000336,-0.00001925,0.00000635,0.00000059,-0.00000047,0.000004
 85,-0.00000263,-0.00000451,0.00000368,-0.00000893,0.00000993,0.0000106
 8,0.00000151,0.00000848,0.00001058,0.00000426,0.00000218,0.00000571,-0
 .00000736,-0.00000082,-0.00000660,0.00000075\\\@


 A FOOL CAN ASK MORE QUESTIONS THAN
 A WISE MAN CAN ANSWER.
 Job cpu time:       0 days  6 hours  6 minutes 17.6 seconds.
 File lengths (MBytes):  RWF=    946 Int=      0 D2E=      0 Chk=     27 Scr=      1
 Normal termination of Gaussian 09 at Thu Nov 14 11:21:05 2019.
pbs_rusage has been removed.
Please contact help@nci.org.au if you require this functionality.
