 Entering Gaussian System, Link 0=/apps/gaussian/g09e01/g09/g09
 Initial command:
 /apps/gaussian/g09e01/g09/l1.exe "/jobfs/local/3607081.r-man2/Gau-40082.inp" -scrdir="/jobfs/local/3607081.r-man2/"
 Entering Link 1 = /apps/gaussian/g09e01/g09/l1.exe PID=     40083.
  
 Copyright (c) 1988,1990,1992,1993,1995,1998,2003,2009,2015,
            Gaussian, Inc.  All Rights Reserved.
  
 This is part of the Gaussian(R) 09 program.  It is based on
 the Gaussian(R) 03 system (copyright 2003, Gaussian, Inc.),
 the Gaussian(R) 98 system (copyright 1998, Gaussian, Inc.),
 the Gaussian(R) 94 system (copyright 1995, Gaussian, Inc.),
 the Gaussian 92(TM) system (copyright 1992, Gaussian, Inc.),
 the Gaussian 90(TM) system (copyright 1990, Gaussian, Inc.),
 the Gaussian 88(TM) system (copyright 1988, Gaussian, Inc.),
 the Gaussian 86(TM) system (copyright 1986, Carnegie Mellon
 University), and the Gaussian 82(TM) system (copyright 1983,
 Carnegie Mellon University). Gaussian is a federally registered
 trademark of Gaussian, Inc.
  
 This software contains proprietary and confidential information,
 including trade secrets, belonging to Gaussian, Inc.
  
 This software is provided under written license and may be
 used, copied, transmitted, or stored only in accord with that
 written license.
  
 The following legend is applicable only to US Government
 contracts under FAR:
  
                    RESTRICTED RIGHTS LEGEND
  
 Use, reproduction and disclosure by the US Government is
 subject to restrictions as set forth in subparagraphs (a)
 and (c) of the Commercial Computer Software - Restricted
 Rights clause in FAR 52.227-19.
  
 Gaussian, Inc.
 340 Quinnipiac St., Bldg. 40, Wallingford CT 06492
  
  
 ---------------------------------------------------------------
 Warning -- This program may not be used in any manner that
 competes with the business of Gaussian, Inc. or will provide
 assistance to any competitor of Gaussian, Inc.  The licensee
 of this program is prohibited from giving any competitor of
 Gaussian, Inc. access to this program.  By using this program,
 the user acknowledges that Gaussian, Inc. is engaged in the
 business of creating and licensing software in the field of
 computational chemistry and represents and warrants to the
 licensee that it is not a competitor of Gaussian, Inc. and that
 it will not use this program in any manner prohibited above.
 ---------------------------------------------------------------
  

 Cite this work as:
 Gaussian 09, Revision E.01,
 M. J. Frisch, G. W. Trucks, H. B. Schlegel, G. E. Scuseria, 
 M. A. Robb, J. R. Cheeseman, G. Scalmani, V. Barone, B. Mennucci, 
 G. A. Petersson, H. Nakatsuji, M. Caricato, X. Li, H. P. Hratchian, 
 A. F. Izmaylov, J. Bloino, G. Zheng, J. L. Sonnenberg, M. Hada, 
 M. Ehara, K. Toyota, R. Fukuda, J. Hasegawa, M. Ishida, T. Nakajima, 
 Y. Honda, O. Kitao, H. Nakai, T. Vreven, J. A. Montgomery, Jr., 
 J. E. Peralta, F. Ogliaro, M. Bearpark, J. J. Heyd, E. Brothers, 
 K. N. Kudin, V. N. Staroverov, T. Keith, R. Kobayashi, J. Normand, 
 K. Raghavachari, A. Rendell, J. C. Burant, S. S. Iyengar, J. Tomasi, 
 M. Cossi, N. Rega, J. M. Millam, M. Klene, J. E. Knox, J. B. Cross, 
 V. Bakken, C. Adamo, J. Jaramillo, R. Gomperts, R. E. Stratmann, 
 O. Yazyev, A. J. Austin, R. Cammi, C. Pomelli, J. W. Ochterski, 
 R. L. Martin, K. Morokuma, V. G. Zakrzewski, G. A. Voth, 
 P. Salvador, J. J. Dannenberg, S. Dapprich, A. D. Daniels, 
 O. Farkas, J. B. Foresman, J. V. Ortiz, J. Cioslowski, 
 and D. J. Fox, Gaussian, Inc., Wallingford CT, 2013.
 
 ******************************************
 Gaussian 09:  ES64L-G09RevE.01 30-Nov-2015
                15-Nov-2019 
 ******************************************
 %chk=CP22_c2.M062X_6-311pGd_opt_GD3.chk
 %mem=2684354560
 %nproc=8
 Will use up to    8 processors via shared memory.
 ----------------------------------------------------------------------
 # M062X/6-311+G* SCF=Tight INT(grid=ultrafine) OPT=CalcFC IOP(2/17=4) 
 EmpiricalDispersion=GD3 maxdisk=2684354560
 ----------------------------------------------------------------------
 1/10=4,14=-1,18=20,19=15,26=4,38=1/1,3;
 2/9=110,12=2,17=4,18=5,40=1/2;
 3/5=4,6=6,7=11,11=2,16=1,25=1,30=1,71=2,74=-55,75=-5,124=31,140=1/1,2,3;
 4//1;
 5/5=2,32=2,38=5/2;
 8/6=4,10=90,11=11/1;
 11/6=1,8=1,9=11,15=111,16=1/1,2,10;
 10/6=1,13=1/2;
 6/7=2,8=2,9=2,10=2,28=1/1;
 7/10=1,18=20,25=1/1,2,3,16;
 1/10=4,14=-1,18=20,19=15,26=4/3(2);
 2/9=110,17=4/2;
 99//99;
 2/9=110,17=4/2;
 3/5=4,6=6,7=11,11=2,16=1,25=1,30=1,71=1,74=-55,75=-5,124=31/1,2,3;
 4/5=5,16=3,69=1/1;
 5/5=2,32=2,38=5/2;
 7//1,2,3,16;
 1/14=-1,18=20,19=15,26=4/3(-5);
 2/9=110,17=4/2;
 6/7=2,8=2,9=2,10=2,19=2,28=1/1;
 99/9=1/99;
 ------------------------------
 CP22_c2.M062X_6-311pGd_opt_GD3
 ------------------------------
 Symbolic Z-matrix:
 Charge =  0 Multiplicity = 1
 C                    -5.97772   1.13138   0.22403 
 N                    -4.71245   0.45998   0.12422 
 C                    -3.47593   1.03506   0.09339 
 O                    -3.33858   2.24561   0.15764 
 N                    -2.37247   0.24861  -0.00265 
 C                    -1.04425   0.82868  -0.02894 
 C                     0.02414  -0.25745  -0.1433 
 C                     1.42106   0.35282  -0.16367 
 C                    -7.21577   0.50329   0.52587 
 C                    -8.42008   1.23562   0.61439 
 C                    -8.38273   2.60869   0.39591 
 C                    -7.17391   3.22166   0.1063 
 C                    -5.98678   2.50999   0.02043 
 H                    -4.7447   -0.5727    0.0797 
 H                    -2.48547  -0.77641  -0.05643 
 H                    -0.88286   1.4092    0.90711 
 H                    -0.96597   1.51836  -0.8989 
 H                    -0.13599  -0.83492  -1.07966 
 H                    -0.059    -0.94734   0.72417 
 H                     1.53217   1.03422  -1.03411 
 H                     2.17663  -0.45574  -0.24371 
 H                     1.6057    0.92326   0.7717 
 H                    -7.2882   -0.54082   0.71135 
 Cl                   -7.14329   4.92268  -0.13453 
 H                    -5.07157   3.05246  -0.2029 
 S                    -9.98144   0.40469   1.02732 
 H                    -9.27651   3.21972   0.45873 
 F                    -9.22163  -0.39656   2.33684 
 F                    -10.4154   1.6799    2.09568 
 F                    -9.58734  -0.87393  -0.03243 
 F                    -10.76257   1.20403  -0.27003 
 F                    -11.45571  -0.38166   1.39189 
 

 GradGradGradGradGradGradGradGradGradGradGradGradGradGradGradGradGradGrad
 Berny optimization.
 Initialization pass.
                           ----------------------------
                           !    Initial Parameters    !
                           ! (Angstroms and Degrees)  !
 --------------------------                            --------------------------
 ! Name  Definition              Value          Derivative Info.                !
 --------------------------------------------------------------------------------
 ! R1    R(1,2)                  1.4358         calculate D2E/DX2 analytically  !
 ! R2    R(1,9)                  1.4207         calculate D2E/DX2 analytically  !
 ! R3    R(1,13)                 1.3936         calculate D2E/DX2 analytically  !
 ! R4    R(2,3)                  1.3641         calculate D2E/DX2 analytically  !
 ! R5    R(2,14)                 1.0341         calculate D2E/DX2 analytically  !
 ! R6    R(3,4)                  1.22           calculate D2E/DX2 analytically  !
 ! R7    R(3,5)                  1.3584         calculate D2E/DX2 analytically  !
 ! R8    R(5,6)                  1.4496         calculate D2E/DX2 analytically  !
 ! R9    R(5,15)                 1.0326         calculate D2E/DX2 analytically  !
 ! R10   R(6,7)                  1.5278         calculate D2E/DX2 analytically  !
 ! R11   R(6,16)                 1.1132         calculate D2E/DX2 analytically  !
 ! R12   R(6,17)                 1.1129         calculate D2E/DX2 analytically  !
 ! R13   R(7,8)                  1.5245         calculate D2E/DX2 analytically  !
 ! R14   R(7,18)                 1.1117         calculate D2E/DX2 analytically  !
 ! R15   R(7,19)                 1.1115         calculate D2E/DX2 analytically  !
 ! R16   R(8,20)                 1.111          calculate D2E/DX2 analytically  !
 ! R17   R(8,21)                 1.1095         calculate D2E/DX2 analytically  !
 ! R18   R(8,22)                 1.111          calculate D2E/DX2 analytically  !
 ! R19   R(9,10)                 1.4123         calculate D2E/DX2 analytically  !
 ! R20   R(9,23)                 1.0629         calculate D2E/DX2 analytically  !
 ! R21   R(10,11)                1.3908         calculate D2E/DX2 analytically  !
 ! R22   R(10,26)                1.8163         calculate D2E/DX2 analytically  !
 ! R23   R(11,12)                1.3859         calculate D2E/DX2 analytically  !
 ! R24   R(11,27)                1.0845         calculate D2E/DX2 analytically  !
 ! R25   R(12,13)                1.3868         calculate D2E/DX2 analytically  !
 ! R26   R(12,24)                1.7183         calculate D2E/DX2 analytically  !
 ! R27   R(13,25)                1.0871         calculate D2E/DX2 analytically  !
 ! R28   R(26,28)                1.7129         calculate D2E/DX2 analytically  !
 ! R29   R(26,29)                1.7193         calculate D2E/DX2 analytically  !
 ! R30   R(26,30)                1.7068         calculate D2E/DX2 analytically  !
 ! R31   R(26,31)                1.7124         calculate D2E/DX2 analytically  !
 ! R32   R(26,32)                1.7102         calculate D2E/DX2 analytically  !
 ! A1    A(2,1,9)              125.1668         calculate D2E/DX2 analytically  !
 ! A2    A(2,1,13)             117.2675         calculate D2E/DX2 analytically  !
 ! A3    A(9,1,13)             117.5629         calculate D2E/DX2 analytically  !
 ! A4    A(1,2,3)              127.1027         calculate D2E/DX2 analytically  !
 ! A5    A(1,2,14)             116.2603         calculate D2E/DX2 analytically  !
 ! A6    A(3,2,14)             116.6344         calculate D2E/DX2 analytically  !
 ! A7    A(2,3,4)              121.278          calculate D2E/DX2 analytically  !
 ! A8    A(2,3,5)              119.5955         calculate D2E/DX2 analytically  !
 ! A9    A(4,3,5)              119.1253         calculate D2E/DX2 analytically  !
 ! A10   A(3,5,6)              120.9239         calculate D2E/DX2 analytically  !
 ! A11   A(3,5,15)             119.3053         calculate D2E/DX2 analytically  !
 ! A12   A(6,5,15)             119.7708         calculate D2E/DX2 analytically  !
 ! A13   A(5,6,7)              110.9542         calculate D2E/DX2 analytically  !
 ! A14   A(5,6,16)             109.0421         calculate D2E/DX2 analytically  !
 ! A15   A(5,6,17)             109.0626         calculate D2E/DX2 analytically  !
 ! A16   A(7,6,16)             109.4074         calculate D2E/DX2 analytically  !
 ! A17   A(7,6,17)             109.4418         calculate D2E/DX2 analytically  !
 ! A18   A(16,6,17)            108.9004         calculate D2E/DX2 analytically  !
 ! A19   A(6,7,8)              110.9272         calculate D2E/DX2 analytically  !
 ! A20   A(6,7,18)             109.3657         calculate D2E/DX2 analytically  !
 ! A21   A(6,7,19)             109.301          calculate D2E/DX2 analytically  !
 ! A22   A(8,7,18)             109.1875         calculate D2E/DX2 analytically  !
 ! A23   A(8,7,19)             109.113          calculate D2E/DX2 analytically  !
 ! A24   A(18,7,19)            108.9157         calculate D2E/DX2 analytically  !
 ! A25   A(7,8,20)             110.3416         calculate D2E/DX2 analytically  !
 ! A26   A(7,8,21)             109.4647         calculate D2E/DX2 analytically  !
 ! A27   A(7,8,22)             110.2764         calculate D2E/DX2 analytically  !
 ! A28   A(20,8,21)            108.8038         calculate D2E/DX2 analytically  !
 ! A29   A(20,8,22)            109.1523         calculate D2E/DX2 analytically  !
 ! A30   A(21,8,22)            108.7669         calculate D2E/DX2 analytically  !
 ! A31   A(1,9,10)             121.8155         calculate D2E/DX2 analytically  !
 ! A32   A(1,9,23)             122.0548         calculate D2E/DX2 analytically  !
 ! A33   A(10,9,23)            116.1245         calculate D2E/DX2 analytically  !
 ! A34   A(9,10,11)            118.6316         calculate D2E/DX2 analytically  !
 ! A35   A(9,10,26)            120.6696         calculate D2E/DX2 analytically  !
 ! A36   A(11,10,26)           120.6936         calculate D2E/DX2 analytically  !
 ! A37   A(10,11,12)           119.5294         calculate D2E/DX2 analytically  !
 ! A38   A(10,11,27)           121.6674         calculate D2E/DX2 analytically  !
 ! A39   A(12,11,27)           118.7984         calculate D2E/DX2 analytically  !
 ! A40   A(11,12,13)           122.1817         calculate D2E/DX2 analytically  !
 ! A41   A(11,12,24)           118.8599         calculate D2E/DX2 analytically  !
 ! A42   A(13,12,24)           118.9538         calculate D2E/DX2 analytically  !
 ! A43   A(1,13,12)            120.2774         calculate D2E/DX2 analytically  !
 ! A44   A(1,13,25)            121.2108         calculate D2E/DX2 analytically  !
 ! A45   A(12,13,25)           118.5111         calculate D2E/DX2 analytically  !
 ! A46   A(10,26,28)            90.3718         calculate D2E/DX2 analytically  !
 ! A47   A(10,26,29)            91.0847         calculate D2E/DX2 analytically  !
 ! A48   A(10,26,30)            90.1758         calculate D2E/DX2 analytically  !
 ! A49   A(10,26,31)            90.3632         calculate D2E/DX2 analytically  !
 ! A50   A(28,26,29)            89.0749         calculate D2E/DX2 analytically  !
 ! A51   A(28,26,30)            91.251          calculate D2E/DX2 analytically  !
 ! A52   A(28,26,32)            90.2482         calculate D2E/DX2 analytically  !
 ! A53   A(29,26,31)            90.5397         calculate D2E/DX2 analytically  !
 ! A54   A(29,26,32)            89.4835         calculate D2E/DX2 analytically  !
 ! A55   A(30,26,31)            89.1184         calculate D2E/DX2 analytically  !
 ! A56   A(30,26,32)            89.2525         calculate D2E/DX2 analytically  !
 ! A57   A(31,26,32)            89.0205         calculate D2E/DX2 analytically  !
 ! A58   L(10,26,32,28,-1)     180.62           calculate D2E/DX2 analytically  !
 ! A59   L(28,26,31,10,-1)     180.7349         calculate D2E/DX2 analytically  !
 ! A60   L(29,26,30,10,-1)     181.2605         calculate D2E/DX2 analytically  !
 ! A61   L(10,26,32,28,-2)     180.5583         calculate D2E/DX2 analytically  !
 ! A62   L(28,26,31,10,-2)     180.3716         calculate D2E/DX2 analytically  !
 ! A63   L(29,26,30,10,-2)     180.3338         calculate D2E/DX2 analytically  !
 ! D1    D(9,1,2,3)           -166.4015         calculate D2E/DX2 analytically  !
 ! D2    D(9,1,2,14)            12.9937         calculate D2E/DX2 analytically  !
 ! D3    D(13,1,2,3)            12.9687         calculate D2E/DX2 analytically  !
 ! D4    D(13,1,2,14)         -167.6361         calculate D2E/DX2 analytically  !
 ! D5    D(2,1,9,10)           179.6118         calculate D2E/DX2 analytically  !
 ! D6    D(2,1,9,23)             0.4815         calculate D2E/DX2 analytically  !
 ! D7    D(13,1,9,10)            0.2433         calculate D2E/DX2 analytically  !
 ! D8    D(13,1,9,23)         -178.887          calculate D2E/DX2 analytically  !
 ! D9    D(2,1,13,12)         -179.7952         calculate D2E/DX2 analytically  !
 ! D10   D(2,1,13,25)           -0.1065         calculate D2E/DX2 analytically  !
 ! D11   D(9,1,13,12)           -0.376          calculate D2E/DX2 analytically  !
 ! D12   D(9,1,13,25)          179.3127         calculate D2E/DX2 analytically  !
 ! D13   D(1,2,3,4)              0.3038         calculate D2E/DX2 analytically  !
 ! D14   D(1,2,3,5)            179.9085         calculate D2E/DX2 analytically  !
 ! D15   D(14,2,3,4)          -179.0893         calculate D2E/DX2 analytically  !
 ! D16   D(14,2,3,5)             0.5153         calculate D2E/DX2 analytically  !
 ! D17   D(2,3,5,6)           -179.595          calculate D2E/DX2 analytically  !
 ! D18   D(2,3,5,15)             0.3377         calculate D2E/DX2 analytically  !
 ! D19   D(4,3,5,6)              0.0182         calculate D2E/DX2 analytically  !
 ! D20   D(4,3,5,15)           179.9509         calculate D2E/DX2 analytically  !
 ! D21   D(3,5,6,7)           -179.9047         calculate D2E/DX2 analytically  !
 ! D22   D(3,5,6,16)            59.5256         calculate D2E/DX2 analytically  !
 ! D23   D(3,5,6,17)           -59.2791         calculate D2E/DX2 analytically  !
 ! D24   D(15,5,6,7)             0.1628         calculate D2E/DX2 analytically  !
 ! D25   D(15,5,6,16)         -120.4069         calculate D2E/DX2 analytically  !
 ! D26   D(15,5,6,17)          120.7885         calculate D2E/DX2 analytically  !
 ! D27   D(5,6,7,8)           -179.7084         calculate D2E/DX2 analytically  !
 ! D28   D(5,6,7,18)            59.8018         calculate D2E/DX2 analytically  !
 ! D29   D(5,6,7,19)           -59.3533         calculate D2E/DX2 analytically  !
 ! D30   D(16,6,7,8)           -59.3553         calculate D2E/DX2 analytically  !
 ! D31   D(16,6,7,18)         -179.845          calculate D2E/DX2 analytically  !
 ! D32   D(16,6,7,19)           60.9999         calculate D2E/DX2 analytically  !
 ! D33   D(17,6,7,8)            59.8907         calculate D2E/DX2 analytically  !
 ! D34   D(17,6,7,18)          -60.5991         calculate D2E/DX2 analytically  !
 ! D35   D(17,6,7,19)         -179.7542         calculate D2E/DX2 analytically  !
 ! D36   D(6,7,8,20)           -60.4746         calculate D2E/DX2 analytically  !
 ! D37   D(6,7,8,21)           179.8139         calculate D2E/DX2 analytically  !
 ! D38   D(6,7,8,22)            60.1881         calculate D2E/DX2 analytically  !
 ! D39   D(18,7,8,20)           60.1208         calculate D2E/DX2 analytically  !
 ! D40   D(18,7,8,21)          -59.5908         calculate D2E/DX2 analytically  !
 ! D41   D(18,7,8,22)         -179.2165         calculate D2E/DX2 analytically  !
 ! D42   D(19,7,8,20)          179.0587         calculate D2E/DX2 analytically  !
 ! D43   D(19,7,8,21)           59.3472         calculate D2E/DX2 analytically  !
 ! D44   D(19,7,8,22)          -60.2786         calculate D2E/DX2 analytically  !
 ! D45   D(1,9,10,11)            0.1203         calculate D2E/DX2 analytically  !
 ! D46   D(1,9,10,26)         -179.0576         calculate D2E/DX2 analytically  !
 ! D47   D(23,9,10,11)         179.2994         calculate D2E/DX2 analytically  !
 ! D48   D(23,9,10,26)           0.1214         calculate D2E/DX2 analytically  !
 ! D49   D(9,10,11,12)          -0.3519         calculate D2E/DX2 analytically  !
 ! D50   D(9,10,11,27)        -179.5423         calculate D2E/DX2 analytically  !
 ! D51   D(26,10,11,12)        178.8258         calculate D2E/DX2 analytically  !
 ! D52   D(26,10,11,27)         -0.3645         calculate D2E/DX2 analytically  !
 ! D53   D(9,10,26,28)          47.9388         calculate D2E/DX2 analytically  !
 ! D54   D(9,10,26,29)         137.0205         calculate D2E/DX2 analytically  !
 ! D55   D(9,10,26,30)         -43.3133         calculate D2E/DX2 analytically  !
 ! D56   D(9,10,26,31)        -132.4328         calculate D2E/DX2 analytically  !
 ! D57   D(11,10,26,28)       -131.2221         calculate D2E/DX2 analytically  !
 ! D58   D(11,10,26,29)        -42.1404         calculate D2E/DX2 analytically  !
 ! D59   D(11,10,26,30)        137.5257         calculate D2E/DX2 analytically  !
 ! D60   D(11,10,26,31)         48.4063         calculate D2E/DX2 analytically  !
 ! D61   D(10,11,12,13)          0.225          calculate D2E/DX2 analytically  !
 ! D62   D(10,11,12,24)       -178.9851         calculate D2E/DX2 analytically  !
 ! D63   D(27,11,12,13)        179.4387         calculate D2E/DX2 analytically  !
 ! D64   D(27,11,12,24)          0.2285         calculate D2E/DX2 analytically  !
 ! D65   D(11,12,13,1)           0.1527         calculate D2E/DX2 analytically  !
 ! D66   D(11,12,13,25)       -179.5443         calculate D2E/DX2 analytically  !
 ! D67   D(24,12,13,1)         179.3622         calculate D2E/DX2 analytically  !
 ! D68   D(24,12,13,25)         -0.3348         calculate D2E/DX2 analytically  !
 --------------------------------------------------------------------------------
 Trust Radius=3.00D-01 FncErr=1.00D-07 GrdErr=1.00D-06
 Number of steps in this run=    173 maximum allowed number of steps=    192.
 GradGradGradGradGradGradGradGradGradGradGradGradGradGradGradGradGradGrad

                          Input orientation:                          
 ---------------------------------------------------------------------
 Center     Atomic      Atomic             Coordinates (Angstroms)
 Number     Number       Type             X           Y           Z
 ---------------------------------------------------------------------
      1          6           0       -5.977720    1.131380    0.224030
      2          7           0       -4.712450    0.459980    0.124220
      3          6           0       -3.475930    1.035060    0.093390
      4          8           0       -3.338580    2.245610    0.157640
      5          7           0       -2.372470    0.248610   -0.002650
      6          6           0       -1.044250    0.828680   -0.028940
      7          6           0        0.024140   -0.257450   -0.143300
      8          6           0        1.421060    0.352820   -0.163670
      9          6           0       -7.215770    0.503290    0.525870
     10          6           0       -8.420080    1.235620    0.614390
     11          6           0       -8.382730    2.608690    0.395910
     12          6           0       -7.173910    3.221660    0.106300
     13          6           0       -5.986780    2.509990    0.020430
     14          1           0       -4.744700   -0.572700    0.079700
     15          1           0       -2.485470   -0.776410   -0.056430
     16          1           0       -0.882860    1.409200    0.907110
     17          1           0       -0.965970    1.518360   -0.898900
     18          1           0       -0.135990   -0.834920   -1.079660
     19          1           0       -0.059000   -0.947340    0.724170
     20          1           0        1.532170    1.034220   -1.034110
     21          1           0        2.176630   -0.455740   -0.243710
     22          1           0        1.605700    0.923260    0.771700
     23          1           0       -7.288200   -0.540820    0.711350
     24         17           0       -7.143290    4.922680   -0.134530
     25          1           0       -5.071570    3.052460   -0.202900
     26         16           0       -9.981440    0.404690    1.027320
     27          1           0       -9.276510    3.219720    0.458730
     28          9           0       -9.221630   -0.396560    2.336840
     29          9           0      -10.415400    1.679900    2.095680
     30          9           0       -9.587340   -0.873930   -0.032430
     31          9           0      -10.762570    1.204030   -0.270030
     32          9           0      -11.455710   -0.381660    1.391890
 ---------------------------------------------------------------------
                    Distance matrix (angstroms):
                    1          2          3          4          5
     1  C    0.000000
     2  N    1.435844   0.000000
     3  C    2.507050   1.364056   0.000000
     4  O    2.865480   2.253244   1.220010   0.000000
     5  N    3.718668   2.352930   1.358437   2.224201   0.000000
     6  C    4.949217   3.689863   2.443486   2.703045   1.449600
     7  C    6.171394   4.798079   3.738595   4.202828   2.453491
     8  C    7.449726   6.141198   4.950964   5.132257   3.798376
     9  C    1.420694   2.535707   3.802134   4.266600   4.878704
    10  C    2.475554   3.819477   4.975569   5.200994   6.158613
    11  C    2.827731   4.261658   5.161833   5.062810   6.469316
    12  C    2.411224   3.699457   4.296096   3.957912   5.648427
    13  C    1.393593   2.416036   2.912921   2.664899   4.263521
    14  H    2.108331   1.034142   2.048135   3.150574   2.511734
    15  H    3.989252   2.553573   2.069995   3.147416   1.032631
    16  H    5.147949   4.022399   2.743380   2.700342   2.096085
    17  H    5.150569   4.025302   2.741919   2.697118   2.096132
    18  H    6.300139   4.906127   4.003507   4.612717   2.708474
    19  H    6.293049   4.898478   4.000400   4.612107   2.703832
    20  H    7.615169   6.377049   5.133451   5.158676   4.114281
    21  H    8.320526   6.959407   5.855558   6.154341   4.609613
    22  H    7.606018   6.368114   5.127920   5.154763   4.108602
    23  H    2.179700   2.825033   4.171172   4.865212   5.029652
    24  Cl   3.982596   5.088381   5.349305   4.661318   6.680198
    25  H    2.166547   2.637599   2.589162   1.945315   3.897027
    26  S    4.147665   5.346111   6.602367   6.947872   7.679949
    27  H    3.911299   5.344035   6.209101   6.024828   7.530348
    28  F    4.161913   5.095297   6.332114   6.807367   7.266392
    29  F    4.847365   6.156176   7.251291   7.359172   8.434471
    30  F    4.137197   5.056521   6.403859   6.986749   7.301735
    31  F    4.810838   6.108436   7.297654   7.508889   8.448556
    32  F    5.801858   6.912807   8.207928   8.620541   9.211256
                    6          7          8          9         10
     6  C    0.000000
     7  C    1.527813   0.000000
     8  C    2.514428   1.524543   0.000000
     9  C    6.204946   7.310459   8.665618   0.000000
    10  C    7.415008   8.608612   9.911244   1.412270   0.000000
    11  C    7.563215   8.898369  10.075534   2.410683   1.390845
    12  C    6.581594   7.998652   9.065133   2.750877   2.399052
    13  C    5.220904   6.619418   7.717731   2.406809   2.810295
    14  H    3.958409   4.784448   6.239584   2.731851   4.130900
    15  H    2.157356   2.564178   4.067879   4.934819   6.302211
    16  H    1.113211   2.168809   2.751464   6.408726   7.544899
    17  H    1.112932   2.169044   2.756258   6.490018   7.611422
    18  H    2.167144   1.111703   2.161983   7.381857   8.705348
    19  H    2.166135   1.111470   2.160846   7.304999   8.642050
    20  H    2.773185   2.176260   1.110998   8.901791  10.089866
    21  H    3.474180   2.163935   1.109532   9.472548  10.765096
    22  H    2.769875   2.175462   1.111040   8.834882  10.031878
    23  H    6.435097   7.367567   8.798606   1.062927   2.108623
    24  Cl   7.346446   8.843409   9.707346   4.469048   3.973095
    25  H    4.603777   6.076621   7.031631   3.409834   3.896330
    26  S    9.009374  10.095564  11.464648   2.812491   1.816260
    27  H    8.586326   9.947625  11.092543   3.410300   2.166646
    28  F    8.600446   9.573647  10.958146   2.848301   2.504661
    29  F    9.646608  10.851283  12.123019   3.753178   2.524462
    30  F    8.711101   9.631868  11.077320   2.798710   2.496212
    31  F    9.728554  10.886005  12.213792   3.701930   2.504088
    32  F   10.577437  11.582711  12.991168   4.417037   3.526351
                   11         12         13         14         15
    11  C    0.000000
    12  C    1.385948   0.000000
    13  C    2.427201   1.386768   0.000000
    14  H    4.843190   4.505434   3.324042   0.000000
    15  H    6.814777   6.163807   4.802656   2.272476   0.000000
    16  H    7.612368   6.595727   5.296031   4.418862   2.876397
    17  H    7.607475   6.515380   5.199714   4.428204   2.878299
    18  H    9.057841   8.209425   6.828643   4.759525   2.563295
    19  H    9.057460   8.269478   6.898330   4.744627   2.554664
    20  H   10.140471   9.048826   7.734634   6.574334   4.513942
    21  H   11.013625  10.053774   8.689453   6.929869   4.676866
    22  H   10.136598   9.099832   7.792809   6.560819   4.506922
    23  H    3.349166   3.812532   3.387994   2.620952   4.869415
    24  Cl   2.678083   1.718257   2.680038   5.999861   7.360775
    25  H    3.394007   2.131682   1.087088   3.650821   4.622728
    26  S    2.795026   4.082380   4.626383   5.410797   7.665447
    27  H    1.084503   2.131933   3.393840   5.921437   7.896371
    28  F    3.674573   4.718049   4.927275   5.016833   7.158762
    29  F    2.807778   4.103890   4.960684   6.426136   8.576061
    30  F    3.709879   4.755812   4.941431   4.853295   7.102580
    31  F    2.842566   4.134118   4.959644   6.284412   8.513410
    32  F    4.401974   5.741992   6.336540   6.840760   9.094980
                   16         17         18         19         20
    16  H    0.000000
    17  H    1.811214   0.000000
    18  H    3.088874   2.501893   0.000000
    19  H    2.503097   3.088143   1.808969   0.000000
    20  H    3.121108   2.548210   2.505697   3.090299   0.000000
    21  H    3.763358   3.768591   2.488132   2.485257   1.805559
    22  H    2.539174   3.123865   3.090666   2.504522   1.810709
    23  H    6.698454   6.841324   7.378910   7.240632   9.128325
    24  Cl   7.254139   7.094571   9.118414   9.240220   9.549501
    25  H    4.634406   4.437773   6.343531   6.479484   6.955112
    26  S    9.154652   9.285972  10.144402  10.018718  11.713625
    27  H    8.598394   8.590859  10.117107  10.119157  11.128007
    28  F    8.651010   9.071541   9.716660   9.319756  11.360222
    29  F    9.610166   9.913896  11.048682  10.772114  12.367575
    30  F    9.047839   8.988985   9.509271   9.558614  11.326425
    31  F    9.951705   9.821795  10.850669  10.962812  12.319630
    32  F   10.734400  10.903781  11.595260  11.430260  13.288161
                   21         22         23         24         25
    21  H    0.000000
    22  H    1.805176   0.000000
    23  H    9.513274   9.013802   0.000000
    24  Cl  10.761052   9.662372   5.530492   0.000000
    25  H    8.052673   7.075964   4.319834   2.791849   0.000000
    26  S   12.254572  11.601555   2.871823   5.460515   5.712351
    27  H   12.048935  11.126283   4.261321   2.793324   4.259959
    28  F   11.686876  11.019195   2.530055   6.222659   5.963977
    29  F   12.984334  12.117437   4.077664   5.118219   5.976948
    30  F   11.773297  11.364887   2.439306   6.291621   5.986466
    31  F   13.045245  12.415238   4.009845   5.190945   5.984036
    32  F   13.730308  13.141076   4.225708   7.004495   7.422518
                   26         27         28         29         30
    26  S    0.000000
    27  H    2.957129   0.000000
    28  F    1.712938   4.075266   0.000000
    29  F    1.719266   2.519468   2.407266   0.000000
    30  F    1.706826   4.134710   2.444395   3.425870   0.000000
    31  F    1.712374   2.608155   3.425223   2.437942   2.399070
    32  F    1.710184   4.311570   2.425751   2.414041   2.400380
                   31         32
    31  F    0.000000
    32  F    2.399340   0.000000
 Stoichiometry    C10H12ClF5N2OS
 Framework group  C1[X(C10H12ClF5N2OS)]
 Deg. of freedom    90
 Full point group                 C1      NOp   1
 Largest Abelian subgroup         C1      NOp   1
 Largest concise Abelian subgroup C1      NOp   1
                         Standard orientation:                         
 ---------------------------------------------------------------------
 Center     Atomic      Atomic             Coordinates (Angstroms)
 Number     Number       Type             X           Y           Z
 ---------------------------------------------------------------------
      1          6           0        0.576210   -0.054072   -0.165252
      2          7           0        1.855951   -0.701791   -0.231370
      3          6           0        3.078073   -0.132385   -0.024384
      4          8           0        3.186620    1.049762    0.256986
      5          7           0        4.198597   -0.893799   -0.124514
      6          6           0        5.511227   -0.320435    0.098198
      7          6           0        6.604090   -1.374089   -0.074073
      8          6           0        7.983790   -0.772101    0.167320
      9          6           0       -0.677050   -0.721362   -0.115903
     10          6           0       -1.895997   -0.011814   -0.043690
     11          6           0       -1.857732    1.378356   -0.023350
     12          6           0       -0.634631    2.028746   -0.066585
     13          6           0        0.566596    1.339152   -0.134698
     14          1           0        1.846560   -1.712157   -0.451650
     15          1           0        4.109895   -1.894881   -0.361775
     16          1           0        5.556229    0.093827    1.130477
     17          1           0        5.675199    0.505718   -0.629263
     18          1           0        6.560323   -1.785295   -1.106002
     19          1           0        6.435574   -2.200020    0.650361
     20          1           0        8.180574    0.045901   -0.558259
     21          1           0        8.757264   -1.557257    0.039532
     22          1           0        8.052139   -0.367710    1.199893
     23          1           0       -0.752068   -1.781638   -0.117442
     24         17           0       -0.606136    3.745960   -0.013955
     25          1           0        1.491737    1.909518   -0.158279
     26         16           0       -3.479510   -0.897060    0.043640
     27          1           0       -2.763205    1.971999    0.038741
     28          9           0       -2.858448   -1.909005    1.278308
     29          9           0       -4.052748    0.180969    1.254065
     30          9           0       -2.946785   -1.979814   -1.163464
     31          9           0       -4.123091    0.110999   -1.181858
     32          9           0       -4.971815   -1.730406    0.101001
 ---------------------------------------------------------------------
 Rotational constants (GHZ):      0.4887452      0.1086997      0.0929206
 Standard basis: 6-311+G(d) (5D, 7F)
 There are   512 symmetry adapted cartesian basis functions of A   symmetry.
 There are   492 symmetry adapted basis functions of A   symmetry.
   492 basis functions,   811 primitive gaussians,   512 cartesian basis functions
    86 alpha electrons       86 beta electrons
       nuclear repulsion energy      1965.8297171033 Hartrees.
 NAtoms=   32 NActive=   32 NUniq=   32 SFac= 1.00D+00 NAtFMM=   60 NAOKFM=F Big=F
 Integral buffers will be    131072 words long.
 Raffenetti 2 integral format.
 Two-electron integral symmetry is turned on.
 Nuclear repulsion after empirical dispersion term =     1965.8281302755 Hartrees.
 One-electron integrals computed using PRISM.
 NBasis=   492 RedAO= T EigKep=  1.46D-06  NBF=   492
 NBsUse=   490 1.00D-06 EigRej=  7.06D-07 NBFU=   490
 ExpMin= 4.05D-02 ExpMax= 1.06D+05 ExpMxC= 3.62D+03 IAcc=3 IRadAn=         5 AccDes= 0.00D+00
 Harris functional with IExCor= 1009 and IRadAn=       5 diagonalized for initial guess.
 HarFok:  IExCor= 1009 AccDes= 0.00D+00 IRadAn=         5 IDoV= 1 UseB2=F ITyADJ=14
 ICtDFT=  3500011 ScaDFX=  1.000000  1.000000  1.000000  1.000000
 FoFCou: FMM=F IPFlag=           0 FMFlag=      100000 FMFlg1=           0
         NFxFlg=           0 DoJE=T BraDBF=F KetDBF=T FulRan=T
         wScrn=  0.000000 ICntrl=     500 IOpCl=  0 I1Cent=   200000004 NGrid=           0
         NMat0=    1 NMatS0=      1 NMatT0=    0 NMatD0=    1 NMtDS0=    0 NMtDT0=    0
 Petite list used in FoFCou.
 Requested convergence on RMS density matrix=1.00D-08 within 128 cycles.
 Requested convergence on MAX density matrix=1.00D-06.
 Requested convergence on             energy=1.00D-06.
 No special actions if energy rises.
 SCF Done:  E(RM062X) =  -1930.36978372     A.U. after   18 cycles
            NFock= 18  Conv=0.57D-08     -V/T= 2.0030
 DoSCS=F DFT=T ScalE2(SS,OS)=  1.000000  1.000000
 Range of M.O.s used for correlation:     1   490
 NBasis=   492 NAE=    86 NBE=    86 NFC=     0 NFV=     0
 NROrb=    490 NOA=    86 NOB=    86 NVA=   404 NVB=   404

 **** Warning!!: The largest alpha MO coefficient is  0.13323888D+03

 Symmetrizing basis deriv contribution to polar:
 IMax=3 JMax=2 DiffMx= 0.00D+00
 G2DrvN: will do    33 centers at a time, making    1 passes.
 Calling FoFCou, ICntrl=  3107 FMM=F I1Cent=   0 AccDes= 0.00D+00.
 End of G2Drv F.D. properties file   721 does not exist.
 End of G2Drv F.D. properties file   722 does not exist.
 End of G2Drv F.D. properties file   788 does not exist.
          IDoAtm=11111111111111111111111111111111
          Differentiating once with respect to nuclear coordinates.
          There are    99 degrees of freedom in the 1st order CPHF.  IDoFFX=6 NUNeed=     0.
     93 vectors produced by pass  0 Test12= 3.51D-14 1.01D-09 XBig12= 5.60D-01 1.36D-01.
 AX will form    93 AO Fock derivatives at one time.
     93 vectors produced by pass  1 Test12= 3.51D-14 1.01D-09 XBig12= 4.09D-02 4.20D-02.
     93 vectors produced by pass  2 Test12= 3.51D-14 1.01D-09 XBig12= 1.49D-03 5.51D-03.
     93 vectors produced by pass  3 Test12= 3.51D-14 1.01D-09 XBig12= 1.62D-05 6.49D-04.
     93 vectors produced by pass  4 Test12= 3.51D-14 1.01D-09 XBig12= 1.51D-07 4.24D-05.
     93 vectors produced by pass  5 Test12= 3.51D-14 1.01D-09 XBig12= 1.31D-09 3.58D-06.
     81 vectors produced by pass  6 Test12= 3.51D-14 1.01D-09 XBig12= 7.77D-12 2.49D-07.
     38 vectors produced by pass  7 Test12= 3.51D-14 1.01D-09 XBig12= 3.72D-14 1.52D-08.
     10 vectors produced by pass  8 Test12= 3.51D-14 1.01D-09 XBig12= 4.12D-15 4.93D-09.
      2 vectors produced by pass  9 Test12= 3.51D-14 1.01D-09 XBig12= 9.49D-16 2.56D-09.
 InvSVY:  IOpt=1 It=  1 EMax= 1.22D-15
 Solved reduced A of dimension   689 with    99 vectors.
 End of Minotr F.D. properties file   721 does not exist.
 End of Minotr F.D. properties file   722 does not exist.
 End of Minotr F.D. properties file   788 does not exist.

 **********************************************************************

            Population analysis using the SCF density.

 **********************************************************************

 Orbital symmetries:
       Occupied  (A) (A) (A) (A) (A) (A) (A) (A) (A) (A) (A) (A)
                 (A) (A) (A) (A) (A) (A) (A) (A) (A) (A) (A) (A)
                 (A) (A) (A) (A) (A) (A) (A) (A) (A) (A) (A) (A)
                 (A) (A) (A) (A) (A) (A) (A) (A) (A) (A) (A) (A)
                 (A) (A) (A) (A) (A) (A) (A) (A) (A) (A) (A) (A)
                 (A) (A) (A) (A) (A) (A) (A) (A) (A) (A) (A) (A)
                 (A) (A) (A) (A) (A) (A) (A) (A) (A) (A) (A) (A)
                 (A) (A)
       Virtual   (A) (A) (A) (A) (A) (A) (A) (A) (A) (A) (A) (A)
                 (A) (A) (A) (A) (A) (A) (A) (A) (A) (A) (A) (A)
                 (A) (A) (A) (A) (A) (A) (A) (A) (A) (A) (A) (A)
                 (A) (A) (A) (A) (A) (A) (A) (A) (A) (A) (A) (A)
                 (A) (A) (A) (A) (A) (A) (A) (A) (A) (A) (A) (A)
                 (A) (A) (A) (A) (A) (A) (A) (A) (A) (A) (A) (A)
                 (A) (A) (A) (A) (A) (A) (A) (A) (A) (A) (A) (A)
                 (A) (A) (A) (A) (A) (A) (A) (A) (A) (A) (A) (A)
                 (A) (A) (A) (A) (A) (A) (A) (A) (A) (A) (A) (A)
                 (A) (A) (A) (A) (A) (A) (A) (A) (A) (A) (A) (A)
                 (A) (A) (A) (A) (A) (A) (A) (A) (A) (A) (A) (A)
                 (A) (A) (A) (A) (A) (A) (A) (A) (A) (A) (A) (A)
                 (A) (A) (A) (A) (A) (A) (A) (A) (A) (A) (A) (A)
                 (A) (A) (A) (A) (A) (A) (A) (A) (A) (A) (A) (A)
                 (A) (A) (A) (A) (A) (A) (A) (A) (A) (A) (A) (A)
                 (A) (A) (A) (A) (A) (A) (A) (A) (A) (A) (A) (A)
                 (A) (A) (A) (A) (A) (A) (A) (A) (A) (A) (A) (A)
                 (A) (A) (A) (A) (A) (A) (A) (A) (A) (A) (A) (A)
                 (A) (A) (A) (A) (A) (A) (A) (A) (A) (A) (A) (A)
                 (A) (A) (A) (A) (A) (A) (A) (A) (A) (A) (A) (A)
                 (A) (A) (A) (A) (A) (A) (A) (A) (A) (A) (A) (A)
                 (A) (A) (A) (A) (A) (A) (A) (A) (A) (A) (A) (A)
                 (A) (A) (A) (A) (A) (A) (A) (A) (A) (A) (A) (A)
                 (A) (A) (A) (A) (A) (A) (A) (A) (A) (A) (A) (A)
                 (A) (A) (A) (A) (A) (A) (A) (A) (A) (A) (A) (A)
                 (A) (A) (A) (A) (A) (A) (A) (A) (A) (A) (A) (A)
                 (A) (A) (A) (A) (A) (A) (A) (A) (A) (A) (A) (A)
                 (A) (A) (A) (A) (A) (A) (A) (A) (A) (A) (A) (A)
                 (A) (A) (A) (A) (A) (A) (A) (A) (A) (A) (A) (A)
                 (A) (A) (A) (A) (A) (A) (A) (A) (A) (A) (A) (A)
                 (A) (A) (A) (A) (A) (A) (A) (A) (A) (A) (A) (A)
                 (A) (A) (A) (A) (A) (A) (A) (A) (A) (A) (A) (A)
                 (A) (A) (A) (A) (A) (A) (A) (A) (A) (A) (A) (A)
                 (A) (A) (A) (A) (A) (A) (A) (A)
 The electronic state is 1-A.
 Alpha  occ. eigenvalues -- -102.69009 -90.29828 -25.30625 -25.29321 -25.29265
 Alpha  occ. eigenvalues --  -25.28918 -25.28876 -19.59641 -14.82016 -14.79341
 Alpha  occ. eigenvalues --  -10.69452 -10.64291 -10.63452 -10.63152 -10.59938
 Alpha  occ. eigenvalues --  -10.59270 -10.58963 -10.57227 -10.56268 -10.54914
 Alpha  occ. eigenvalues --   -9.83315  -8.62003  -7.55835  -7.55145  -7.55129
 Alpha  occ. eigenvalues --   -6.54357  -6.54342  -6.53964  -1.45218  -1.37825
 Alpha  occ. eigenvalues --   -1.37647  -1.36604  -1.34692  -1.20206  -1.07804
 Alpha  occ. eigenvalues --   -1.05264  -1.02646  -0.98644  -0.94394  -0.90434
 Alpha  occ. eigenvalues --   -0.87891  -0.85973  -0.80059  -0.76121  -0.74178
 Alpha  occ. eigenvalues --   -0.71728  -0.71520  -0.70597  -0.70236  -0.67333
 Alpha  occ. eigenvalues --   -0.66058  -0.62424  -0.61694  -0.60686  -0.60622
 Alpha  occ. eigenvalues --   -0.59742  -0.58075  -0.56679  -0.56624  -0.55922
 Alpha  occ. eigenvalues --   -0.55306  -0.55255  -0.54979  -0.54887  -0.54469
 Alpha  occ. eigenvalues --   -0.53798  -0.53576  -0.52574  -0.52166  -0.52049
 Alpha  occ. eigenvalues --   -0.50112  -0.49963  -0.48510  -0.47808  -0.47076
 Alpha  occ. eigenvalues --   -0.45938  -0.44302  -0.43511  -0.42061  -0.41847
 Alpha  occ. eigenvalues --   -0.39656  -0.39403  -0.35905  -0.34267  -0.32875
 Alpha  occ. eigenvalues --   -0.30744
 Alpha virt. eigenvalues --   -0.10857  -0.03498  -0.01907  -0.01276   0.00793
 Alpha virt. eigenvalues --    0.01519   0.01914   0.02351   0.02859   0.03074
 Alpha virt. eigenvalues --    0.03594   0.04055   0.04594   0.04749   0.05039
 Alpha virt. eigenvalues --    0.05252   0.05767   0.06128   0.06325   0.06905
 Alpha virt. eigenvalues --    0.07117   0.08035   0.08080   0.08494   0.08742
 Alpha virt. eigenvalues --    0.09048   0.09284   0.10729   0.11073   0.11383
 Alpha virt. eigenvalues --    0.11503   0.12051   0.12125   0.12775   0.13145
 Alpha virt. eigenvalues --    0.13734   0.14213   0.14641   0.15408   0.15987
 Alpha virt. eigenvalues --    0.16383   0.16731   0.17170   0.17739   0.17979
 Alpha virt. eigenvalues --    0.18599   0.18714   0.18923   0.19241   0.19900
 Alpha virt. eigenvalues --    0.20239   0.20377   0.21012   0.21134   0.21405
 Alpha virt. eigenvalues --    0.21945   0.22641   0.23045   0.23780   0.23940
 Alpha virt. eigenvalues --    0.24417   0.24485   0.25148   0.25394   0.25571
 Alpha virt. eigenvalues --    0.26245   0.26813   0.26929   0.27231   0.27636
 Alpha virt. eigenvalues --    0.28021   0.28451   0.28767   0.28985   0.29671
 Alpha virt. eigenvalues --    0.30328   0.30710   0.31347   0.31738   0.32274
 Alpha virt. eigenvalues --    0.32397   0.32731   0.32876   0.33084   0.34117
 Alpha virt. eigenvalues --    0.34853   0.35321   0.35609   0.36114   0.36610
 Alpha virt. eigenvalues --    0.36938   0.38014   0.38639   0.38757   0.39423
 Alpha virt. eigenvalues --    0.39534   0.40705   0.41199   0.42056   0.42464
 Alpha virt. eigenvalues --    0.43123   0.44914   0.45757   0.46184   0.46456
 Alpha virt. eigenvalues --    0.46624   0.47408   0.47954   0.48522   0.48894
 Alpha virt. eigenvalues --    0.49177   0.49606   0.50230   0.51201   0.52246
 Alpha virt. eigenvalues --    0.52517   0.53165   0.54003   0.54963   0.55536
 Alpha virt. eigenvalues --    0.56778   0.57058   0.58088   0.58374   0.59223
 Alpha virt. eigenvalues --    0.59765   0.61378   0.61748   0.62427   0.62766
 Alpha virt. eigenvalues --    0.64365   0.64836   0.65237   0.66091   0.66411
 Alpha virt. eigenvalues --    0.66782   0.67725   0.68419   0.69155   0.69415
 Alpha virt. eigenvalues --    0.70261   0.70477   0.71033   0.71963   0.72138
 Alpha virt. eigenvalues --    0.73875   0.74321   0.74493   0.75369   0.76385
 Alpha virt. eigenvalues --    0.76667   0.78341   0.78588   0.79058   0.81284
 Alpha virt. eigenvalues --    0.82118   0.84261   0.84962   0.86240   0.87038
 Alpha virt. eigenvalues --    0.88213   0.89027   0.89971   0.90329   0.91559
 Alpha virt. eigenvalues --    0.92309   0.92536   0.93040   0.93285   0.94037
 Alpha virt. eigenvalues --    0.96250   0.98178   0.99994   1.01341   1.02431
 Alpha virt. eigenvalues --    1.03299   1.04438   1.04919   1.05884   1.07010
 Alpha virt. eigenvalues --    1.07838   1.10143   1.12593   1.12975   1.14165
 Alpha virt. eigenvalues --    1.16062   1.19989   1.21260   1.21554   1.22576
 Alpha virt. eigenvalues --    1.23504   1.24586   1.25175   1.26725   1.27924
 Alpha virt. eigenvalues --    1.29296   1.30060   1.33115   1.34481   1.36859
 Alpha virt. eigenvalues --    1.37096   1.37733   1.38539   1.41164   1.42298
 Alpha virt. eigenvalues --    1.42828   1.43974   1.45443   1.45933   1.47709
 Alpha virt. eigenvalues --    1.48003   1.50314   1.51007   1.51253   1.52918
 Alpha virt. eigenvalues --    1.53865   1.54374   1.55302   1.56641   1.56973
 Alpha virt. eigenvalues --    1.57885   1.59150   1.60633   1.61389   1.63084
 Alpha virt. eigenvalues --    1.64011   1.64905   1.66745   1.67991   1.71359
 Alpha virt. eigenvalues --    1.73874   1.74325   1.74910   1.75490   1.76991
 Alpha virt. eigenvalues --    1.80535   1.80842   1.82596   1.82712   1.84691
 Alpha virt. eigenvalues --    1.86819   1.87462   1.89719   1.90859   1.91532
 Alpha virt. eigenvalues --    1.93592   1.95189   1.95929   1.97648   1.98580
 Alpha virt. eigenvalues --    2.04028   2.05071   2.05422   2.06356   2.10383
 Alpha virt. eigenvalues --    2.11005   2.13297   2.15830   2.18378   2.20908
 Alpha virt. eigenvalues --    2.21980   2.23356   2.24507   2.27992   2.30176
 Alpha virt. eigenvalues --    2.31919   2.32072   2.34319   2.36360   2.38790
 Alpha virt. eigenvalues --    2.42786   2.45641   2.49044   2.51453   2.51645
 Alpha virt. eigenvalues --    2.52204   2.54297   2.54918   2.56052   2.59175
 Alpha virt. eigenvalues --    2.60886   2.61944   2.62766   2.66106   2.68721
 Alpha virt. eigenvalues --    2.71579   2.72863   2.76147   2.81957   2.83461
 Alpha virt. eigenvalues --    2.84486   2.85992   2.90463   2.93018   2.94750
 Alpha virt. eigenvalues --    2.97455   3.00287   3.01859   3.04221   3.08786
 Alpha virt. eigenvalues --    3.10888   3.12222   3.13440   3.19221   3.22476
 Alpha virt. eigenvalues --    3.22846   3.25386   3.25903   3.27153   3.32811
 Alpha virt. eigenvalues --    3.35243   3.39127   3.39534   3.40707   3.42517
 Alpha virt. eigenvalues --    3.52486   3.61992   3.63933   3.67849   3.73510
 Alpha virt. eigenvalues --    3.76280   3.79003   3.80668   3.80951   3.81228
 Alpha virt. eigenvalues --    3.81707   3.83548   3.83834   3.83982   3.84316
 Alpha virt. eigenvalues --    3.85113   3.85391   3.86789   3.87135   3.87291
 Alpha virt. eigenvalues --    3.88461   3.88690   3.89167   3.89723   3.93225
 Alpha virt. eigenvalues --    3.95631   3.96482   3.97538   3.98752   4.02325
 Alpha virt. eigenvalues --    4.02580   4.06048   4.09379   4.12113   4.16710
 Alpha virt. eigenvalues --    4.22710   4.24023   4.24077   4.50410   4.52994
 Alpha virt. eigenvalues --    4.78131   4.86737   5.18375   5.20010   5.41908
 Alpha virt. eigenvalues --    5.91043   6.34657   6.37228   6.39039   6.40229
 Alpha virt. eigenvalues --    6.42819   6.45279   6.46209   6.51997   6.52714
 Alpha virt. eigenvalues --    6.53768   6.54811   6.62329   6.63579   6.65002
 Alpha virt. eigenvalues --    6.69558   8.09135   9.97142  17.45800  17.50224
 Alpha virt. eigenvalues --   17.56653  23.43057  23.56073  23.71626  23.78424
 Alpha virt. eigenvalues --   23.89620  23.91280  23.94032  24.02751  24.07748
 Alpha virt. eigenvalues --   24.16286  25.93604  26.25625  26.72739  35.57302
 Alpha virt. eigenvalues --   35.68303  50.14757  66.87428  66.87625  66.94180
 Alpha virt. eigenvalues --   66.95271  67.01566 189.37444 216.07264
          Condensed to atoms (all electrons):
               1          2          3          4          5          6
     1  C   36.036976   0.052498  -0.378024  -0.191288  -0.508113  -1.217597
     2  N    0.052498   7.971283   0.118093  -0.055460  -0.700930  -0.643348
     3  C   -0.378024   0.118093  11.189285   0.621517   0.341495  -1.407837
     4  O   -0.191288  -0.055460   0.621517   8.132324  -0.226316  -0.127468
     5  N   -0.508113  -0.700930   0.341495  -0.226316   7.937139   0.861965
     6  C   -1.217597  -0.643348  -1.407837  -0.127468   0.861965  10.006555
     7  C    0.091355   0.062071   0.425118   0.025526  -0.179985  -1.482928
     8  C   -0.042369  -0.021827  -0.374392  -0.003430   0.013738   0.567430
     9  C  -13.181264   0.219577  -3.917265  -0.087854  -0.550316  -0.438746
    10  C   -1.564001   0.146241  -0.570974   0.018210   0.008923  -0.018446
    11  C  -11.924158   0.046600  -1.138977  -0.043738  -0.057453  -0.091244
    12  C   -3.494564   0.110149  -0.310837   0.031233   0.009505  -0.111607
    13  C    4.025239  -0.189136   1.320226   0.274050   0.235134   0.013006
    14  H    0.075130   0.184219   0.036568  -0.001516   0.099226   0.043064
    15  H   -0.005624   0.088811   0.042620  -0.005065   0.218693  -0.101250
    16  H    0.016321   0.010896   0.094683  -0.001970  -0.064833   0.294900
    17  H   -0.007932   0.007685   0.044455  -0.002096  -0.065229   0.389683
    18  H    0.000436  -0.000587   0.010802  -0.000243   0.007011  -0.078666
    19  H   -0.000832  -0.001151  -0.003386  -0.000205   0.008306  -0.069905
    20  H    0.000046  -0.000038   0.001010  -0.000093   0.000421  -0.053563
    21  H    0.000112   0.000026   0.006358   0.000036  -0.001398   0.090586
    22  H    0.000060  -0.000052   0.001257  -0.000097  -0.000084  -0.048808
    23  H    0.114993  -0.015806  -0.006813  -0.000152   0.000527  -0.000352
    24  Cl  -0.103819  -0.001908   0.016040  -0.001350   0.003200   0.003641
    25  H   -0.117175  -0.021641   0.102802  -0.013454   0.002257   0.007177
    26  S   -1.094522   0.006329  -0.163671  -0.000730  -0.001171  -0.004526
    27  H    0.004689   0.000830   0.001617   0.000028   0.000013   0.000028
    28  F   -0.122882  -0.000972  -0.002851   0.000001   0.000016   0.000009
    29  F    0.080744   0.000430   0.000046  -0.000003   0.000007  -0.000002
    30  F   -0.285349  -0.000377  -0.008446   0.000002  -0.000011  -0.000034
    31  F    0.046345   0.000328  -0.001244   0.000000   0.000006  -0.000005
    32  F   -0.036582  -0.000109  -0.000319   0.000000  -0.000002  -0.000001
               7          8          9         10         11         12
     1  C    0.091355  -0.042369 -13.181264  -1.564001 -11.924158  -3.494564
     2  N    0.062071  -0.021827   0.219577   0.146241   0.046600   0.110149
     3  C    0.425118  -0.374392  -3.917265  -0.570974  -1.138977  -0.310837
     4  O    0.025526  -0.003430  -0.087854   0.018210  -0.043738   0.031233
     5  N   -0.179985   0.013738  -0.550316   0.008923  -0.057453   0.009505
     6  C   -1.482928   0.567430  -0.438746  -0.018446  -0.091244  -0.111607
     7  C    6.727194  -0.265451   0.064600  -0.000996   0.003457  -0.001341
     8  C   -0.265451   6.105271  -0.005660  -0.000146  -0.000704  -0.002382
     9  C    0.064600  -0.005660  45.976954 -12.006385   9.726567  -8.191358
    10  C   -0.000996  -0.000146 -12.006385  34.938069  -5.870555  -3.389984
    11  C    0.003457  -0.000704   9.726567  -5.870555  28.059772  -7.222947
    12  C   -0.001341  -0.002382  -8.191358  -3.389984  -7.222947  26.583836
    13  C   -0.047110  -0.005416 -12.950070  -1.435960  -7.010536   2.910348
    14  H   -0.004612   0.000474  -0.310120  -0.037728  -0.015340   0.021826
    15  H   -0.008360   0.001336   0.009945  -0.002937   0.000697  -0.000057
    16  H   -0.005248  -0.025517   0.001905   0.000210   0.000121   0.000370
    17  H   -0.036762  -0.013933  -0.002704  -0.000341   0.000239   0.001606
    18  H    0.445263  -0.047200  -0.000302   0.000013   0.000000   0.000058
    19  H    0.449786  -0.044511  -0.000235  -0.000023  -0.000004  -0.000037
    20  H    0.023518   0.371991   0.000018  -0.000000  -0.000000  -0.000007
    21  H   -0.129607   0.382144  -0.000001   0.000001  -0.000000  -0.000001
    22  H    0.014963   0.375451   0.000005   0.000000   0.000000   0.000004
    23  H   -0.000025   0.000001   0.145375   0.069345  -0.065667  -0.028758
    24  Cl  -0.000301   0.000023   0.344981  -0.310765   0.460899  -1.331163
    25  H   -0.000966   0.000083  -0.038678  -0.000500   0.045679  -0.050261
    26  S    0.000101  -0.000023   1.076748  -2.609479   0.799240  -0.126582
    27  H   -0.000000   0.000000  -0.116654  -0.042114   0.229359   0.150053
    28  F   -0.000001   0.000000  -0.254689   0.153239   0.184716   0.104489
    29  F   -0.000000   0.000000   0.318305   0.087778  -0.182620  -0.235481
    30  F    0.000000   0.000000  -0.232492   0.272242   0.231132   0.102543
    31  F    0.000000   0.000000   0.271411   0.074476  -0.149539  -0.185061
    32  F    0.000000  -0.000000   0.108453  -0.034427   0.035628  -0.029654
              13         14         15         16         17         18
     1  C    4.025239   0.075130  -0.005624   0.016321  -0.007932   0.000436
     2  N   -0.189136   0.184219   0.088811   0.010896   0.007685  -0.000587
     3  C    1.320226   0.036568   0.042620   0.094683   0.044455   0.010802
     4  O    0.274050  -0.001516  -0.005065  -0.001970  -0.002096  -0.000243
     5  N    0.235134   0.099226   0.218693  -0.064833  -0.065229   0.007011
     6  C    0.013006   0.043064  -0.101250   0.294900   0.389683  -0.078666
     7  C   -0.047110  -0.004612  -0.008360  -0.005248  -0.036762   0.445263
     8  C   -0.005416   0.000474   0.001336  -0.025517  -0.013933  -0.047200
     9  C  -12.950070  -0.310120   0.009945   0.001905  -0.002704  -0.000302
    10  C   -1.435960  -0.037728  -0.002937   0.000210  -0.000341   0.000013
    11  C   -7.010536  -0.015340   0.000697   0.000121   0.000239   0.000000
    12  C    2.910348   0.021826  -0.000057   0.000370   0.001606   0.000058
    13  C   18.760253   0.175569   0.006998   0.000646   0.006109   0.000937
    14  H    0.175569   0.383649   0.003820  -0.000033   0.000079   0.000031
    15  H    0.006998   0.003820   0.384883   0.004121   0.003173   0.000495
    16  H    0.000646  -0.000033   0.004121   0.445532  -0.037342   0.005817
    17  H    0.006109   0.000079   0.003173  -0.037342   0.449399  -0.008769
    18  H    0.000937   0.000031   0.000495   0.005817  -0.008769   0.465166
    19  H   -0.000263   0.000064   0.000189  -0.008563   0.005955  -0.042701
    20  H   -0.000077   0.000000  -0.000001  -0.000599   0.004230  -0.009327
    21  H    0.000010   0.000000  -0.000043  -0.000091  -0.000083  -0.003563
    22  H    0.000015  -0.000000  -0.000010   0.004512  -0.000672   0.006511
    23  H    0.048406   0.004750   0.000005   0.000000   0.000000   0.000000
    24  Cl   0.047987   0.000336  -0.000029   0.000023   0.000003   0.000001
    25  H    0.398214   0.000333  -0.000058  -0.000092   0.000062  -0.000001
    26  S   -0.156037  -0.000479  -0.000000   0.000004  -0.000003   0.000000
    27  H    0.039085  -0.000004  -0.000000  -0.000000  -0.000000   0.000000
    28  F   -0.019349  -0.000016  -0.000000  -0.000000  -0.000000   0.000000
    29  F   -0.002078  -0.000000  -0.000000   0.000000  -0.000000   0.000000
    30  F   -0.035051  -0.000148   0.000000  -0.000000  -0.000000   0.000000
    31  F    0.005788   0.000000   0.000000   0.000000  -0.000000   0.000000
    32  F   -0.007710  -0.000001   0.000000  -0.000000  -0.000000  -0.000000
              19         20         21         22         23         24
     1  C   -0.000832   0.000046   0.000112   0.000060   0.114993  -0.103819
     2  N   -0.001151  -0.000038   0.000026  -0.000052  -0.015806  -0.001908
     3  C   -0.003386   0.001010   0.006358   0.001257  -0.006813   0.016040
     4  O   -0.000205  -0.000093   0.000036  -0.000097  -0.000152  -0.001350
     5  N    0.008306   0.000421  -0.001398  -0.000084   0.000527   0.003200
     6  C   -0.069905  -0.053563   0.090586  -0.048808  -0.000352   0.003641
     7  C    0.449786   0.023518  -0.129607   0.014963  -0.000025  -0.000301
     8  C   -0.044511   0.371991   0.382144   0.375451   0.000001   0.000023
     9  C   -0.000235   0.000018  -0.000001   0.000005   0.145375   0.344981
    10  C   -0.000023  -0.000000   0.000001   0.000000   0.069345  -0.310765
    11  C   -0.000004  -0.000000  -0.000000   0.000000  -0.065667   0.460899
    12  C   -0.000037  -0.000007  -0.000001   0.000004  -0.028758  -1.331163
    13  C   -0.000263  -0.000077   0.000010   0.000015   0.048406   0.047987
    14  H    0.000064   0.000000   0.000000  -0.000000   0.004750   0.000336
    15  H    0.000189  -0.000001  -0.000043  -0.000010   0.000005  -0.000029
    16  H   -0.008563  -0.000599  -0.000091   0.004512   0.000000   0.000023
    17  H    0.005955   0.004230  -0.000083  -0.000672   0.000000   0.000003
    18  H   -0.042701  -0.009327  -0.003563   0.006511   0.000000   0.000001
    19  H    0.465082   0.006506  -0.003632  -0.009223   0.000000  -0.000000
    20  H    0.006506   0.457775  -0.024198  -0.034073  -0.000000  -0.000000
    21  H   -0.003632  -0.024198   0.440383  -0.024178   0.000000   0.000000
    22  H   -0.009223  -0.034073  -0.024178   0.457447  -0.000000   0.000000
    23  H    0.000000  -0.000000   0.000000  -0.000000   0.410268   0.000184
    24  Cl  -0.000000  -0.000000   0.000000   0.000000   0.000184  17.461946
    25  H    0.000000  -0.000000   0.000000  -0.000000   0.000063  -0.010595
    26  S   -0.000001  -0.000000   0.000000   0.000000   0.054911   0.003898
    27  H    0.000000   0.000000   0.000000   0.000000  -0.000063  -0.015466
    28  F    0.000000   0.000000   0.000000  -0.000000   0.001321  -0.000065
    29  F    0.000000  -0.000000   0.000000   0.000000  -0.000039   0.000583
    30  F    0.000000  -0.000000  -0.000000   0.000000   0.002525  -0.000216
    31  F    0.000000  -0.000000   0.000000  -0.000000   0.000080  -0.000073
    32  F   -0.000000   0.000000  -0.000000   0.000000  -0.000958   0.000238
              25         26         27         28         29         30
     1  C   -0.117175  -1.094522   0.004689  -0.122882   0.080744  -0.285349
     2  N   -0.021641   0.006329   0.000830  -0.000972   0.000430  -0.000377
     3  C    0.102802  -0.163671   0.001617  -0.002851   0.000046  -0.008446
     4  O   -0.013454  -0.000730   0.000028   0.000001  -0.000003   0.000002
     5  N    0.002257  -0.001171   0.000013   0.000016   0.000007  -0.000011
     6  C    0.007177  -0.004526   0.000028   0.000009  -0.000002  -0.000034
     7  C   -0.000966   0.000101  -0.000000  -0.000001  -0.000000   0.000000
     8  C    0.000083  -0.000023   0.000000   0.000000   0.000000   0.000000
     9  C   -0.038678   1.076748  -0.116654  -0.254689   0.318305  -0.232492
    10  C   -0.000500  -2.609479  -0.042114   0.153239   0.087778   0.272242
    11  C    0.045679   0.799240   0.229359   0.184716  -0.182620   0.231132
    12  C   -0.050261  -0.126582   0.150053   0.104489  -0.235481   0.102543
    13  C    0.398214  -0.156037   0.039085  -0.019349  -0.002078  -0.035051
    14  H    0.000333  -0.000479  -0.000004  -0.000016  -0.000000  -0.000148
    15  H   -0.000058  -0.000000  -0.000000  -0.000000  -0.000000   0.000000
    16  H   -0.000092   0.000004  -0.000000  -0.000000   0.000000  -0.000000
    17  H    0.000062  -0.000003  -0.000000  -0.000000  -0.000000  -0.000000
    18  H   -0.000001   0.000000   0.000000   0.000000   0.000000   0.000000
    19  H    0.000000  -0.000001   0.000000   0.000000   0.000000   0.000000
    20  H   -0.000000  -0.000000   0.000000   0.000000  -0.000000  -0.000000
    21  H    0.000000   0.000000   0.000000   0.000000   0.000000  -0.000000
    22  H   -0.000000   0.000000   0.000000  -0.000000   0.000000   0.000000
    23  H    0.000063   0.054911  -0.000063   0.001321  -0.000039   0.002525
    24  Cl  -0.010595   0.003898  -0.015466  -0.000065   0.000583  -0.000216
    25  H    0.350149   0.000140  -0.000342  -0.000005   0.000002  -0.000009
    26  S    0.000140  17.288510   0.054892   0.074877   0.055588   0.047491
    27  H   -0.000342   0.054892   0.384179   0.000217  -0.001691   0.000340
    28  F   -0.000005   0.074877   0.000217   8.953276  -0.027014  -0.021033
    29  F    0.000002   0.055588  -0.001691  -0.027014   8.960604  -0.027670
    30  F   -0.000009   0.047491   0.000340  -0.021033  -0.027670   8.982926
    31  F   -0.000004   0.040618  -0.001422  -0.026372  -0.016088  -0.018232
    32  F   -0.000000  -0.040614  -0.000809  -0.011326  -0.010603  -0.009635
              31         32
     1  C    0.046345  -0.036582
     2  N    0.000328  -0.000109
     3  C   -0.001244  -0.000319
     4  O    0.000000   0.000000
     5  N    0.000006  -0.000002
     6  C   -0.000005  -0.000001
     7  C    0.000000   0.000000
     8  C    0.000000  -0.000000
     9  C    0.271411   0.108453
    10  C    0.074476  -0.034427
    11  C   -0.149539   0.035628
    12  C   -0.185061  -0.029654
    13  C    0.005788  -0.007710
    14  H    0.000000  -0.000001
    15  H    0.000000   0.000000
    16  H    0.000000  -0.000000
    17  H   -0.000000  -0.000000
    18  H    0.000000  -0.000000
    19  H    0.000000  -0.000000
    20  H   -0.000000   0.000000
    21  H    0.000000  -0.000000
    22  H   -0.000000   0.000000
    23  H    0.000080  -0.000958
    24  Cl  -0.000073   0.000238
    25  H   -0.000004  -0.000000
    26  S    0.040618  -0.040614
    27  H   -0.001422  -0.000809
    28  F   -0.026372  -0.011326
    29  F   -0.016088  -0.010603
    30  F   -0.018232  -0.009635
    31  F    8.962001  -0.008134
    32  F   -0.008134   9.015638
 Mulliken charges:
               1
     1  C   -0.268853
     2  N   -0.372721
     3  C   -0.088958
     4  O   -0.340397
     5  N   -0.391745
     6  C   -0.381712
     7  C   -0.169261
     8  C   -0.964981
     9  C    0.019948
    10  C   -1.872984
    11  C   -0.050624
    12  C    0.686061
    13  C   -0.409225
    14  H    0.340859
    15  H    0.357646
    16  H    0.264226
    17  H    0.263185
    18  H    0.248818
    19  H    0.248782
    20  H    0.256461
    21  H    0.267138
    22  H    0.256971
    23  H    0.265880
    24  Cl   0.431769
    25  H    0.346821
    26  S    0.694495
    27  H    0.313237
    28  F    0.014415
    29  F   -0.000796
    30  F   -0.000500
    31  F    0.005120
    32  F    0.030926
 Sum of Mulliken charges =  -0.00000
 Mulliken charges with hydrogens summed into heavy atoms:
               1
     1  C   -0.268853
     2  N   -0.031862
     3  C   -0.088958
     4  O   -0.340397
     5  N   -0.034099
     6  C    0.145699
     7  C    0.328339
     8  C   -0.184411
     9  C    0.285828
    10  C   -1.872984
    11  C    0.262614
    12  C    0.686061
    13  C   -0.062405
    24  Cl   0.431769
    26  S    0.694495
    28  F    0.014415
    29  F   -0.000796
    30  F   -0.000500
    31  F    0.005120
    32  F    0.030926
 APT charges:
               1
     1  C   -2.052026
     2  N   -1.189847
     3  C    0.122177
     4  O   -0.318163
     5  N    0.566605
     6  C   -1.081948
     7  C   -0.388857
     8  C   -2.822277
     9  C    0.741072
    10  C   -1.117536
    11  C    0.177924
    12  C    1.088179
    13  C   -1.211346
    14  H    0.613053
    15  H    0.636270
    16  H    0.453782
    17  H    0.496058
    18  H    0.491073
    19  H    0.446021
    20  H    0.488358
    21  H    1.188567
    22  H    0.441012
    23  H    0.541851
    24  Cl  -0.112790
    25  H    0.702488
    26  S    0.017183
    27  H    0.852533
    28  F   -0.074486
    29  F    0.077507
    30  F   -0.050572
    31  F    0.068517
    32  F    0.209617
 Sum of APT charges =  -0.00000
 APT charges with hydrogens summed into heavy atoms:
               1
     1  C   -2.052026
     2  N   -0.576794
     3  C    0.122177
     4  O   -0.318163
     5  N    1.202875
     6  C   -0.132108
     7  C    0.548237
     8  C   -0.704340
     9  C    1.282923
    10  C   -1.117536
    11  C    1.030457
    12  C    1.088179
    13  C   -0.508857
    24  Cl  -0.112790
    26  S    0.017183
    28  F   -0.074486
    29  F    0.077507
    30  F   -0.050572
    31  F    0.068517
    32  F    0.209617
 Electronic spatial extent (au):  <R**2>=          10803.9426
 Charge=             -0.0000 electrons
 Dipole moment (field-independent basis, Debye):
    X=              6.2211    Y=             -3.4186    Z=             -1.0605  Tot=              7.1773
 Quadrupole moment (field-independent basis, Debye-Ang):
   XX=           -125.0184   YY=           -129.1164   ZZ=           -135.7214
   XY=            -19.1100   XZ=             -2.7867   YZ=              0.7855
 Traceless Quadrupole moment (field-independent basis, Debye-Ang):
   XX=              4.9337   YY=              0.8357   ZZ=             -5.7693
   XY=            -19.1100   XZ=             -2.7867   YZ=              0.7855
 Octapole moment (field-independent basis, Debye-Ang**2):
  XXX=            104.6755  YYY=            -35.9758  ZZZ=              3.9199  XYY=            -15.1249
  XXY=            -42.2729  XXZ=             -6.7507  XZZ=            -21.5728  YZZ=             -6.7198
  YYZ=             -3.7013  XYZ=              0.1556
 Hexadecapole moment (field-independent basis, Debye-Ang**3):
 XXXX=         -10450.3103 YYYY=          -2086.1326 ZZZZ=           -349.6893 XXXY=           -211.8228
 XXXZ=            -34.3846 YYYX=             42.6192 YYYZ=              8.9778 ZZZX=              1.1745
 ZZZY=              1.1635 XXYY=          -2177.9864 XXZZ=          -1929.5117 YYZZ=           -426.0979
 XXYZ=             -1.8252 YYXZ=            -17.9069 ZZXY=             36.0483
 N-N= 1.965828130275D+03 E-N=-8.492848790344D+03  KE= 1.924596767808D+03
  Exact polarizability:   0.000   0.000   0.000   0.000   0.000   0.000
 Approx polarizability: 235.467  -4.190 243.068  -1.733   5.811 154.059
 Calling FoFJK, ICntrl=    100147 FMM=F ISym2X=0 I1Cent= 0 IOpClX= 0 NMat=1 NMatS=1 NMatT=0.
 ***** Axes restored to original set *****
 -------------------------------------------------------------------
 Center     Atomic                   Forces (Hartrees/Bohr)
 Number     Number              X              Y              Z
 -------------------------------------------------------------------
      1        6           0.003366967    0.005222023    0.001447179
      2        7          -0.039134684   -0.047534494    0.001349917
      3        6           0.018152962    0.035361857    0.002402986
      4        8           0.007631458    0.002511885    0.000963257
      5        7          -0.016774437   -0.038398973   -0.001838003
      6        6           0.007223594    0.008626934    0.000343812
      7        6          -0.005213913   -0.005932879   -0.000185830
      8        6           0.006605084    0.000756385   -0.000181633
      9        6          -0.000890857    0.005281719    0.000013474
     10        6           0.040757775    0.010764015   -0.007980351
     11        6          -0.020258983    0.001413402    0.004013653
     12        6           0.001033171   -0.015628893    0.003033623
     13        6          -0.002649963    0.014883135   -0.004664294
     14        1          -0.002716453    0.019758998    0.001827068
     15        1           0.006416510    0.018996408    0.000896174
     16        1          -0.002286957   -0.003448844   -0.012208381
     17        1          -0.001141987   -0.004822651    0.011734896
     18        1           0.000389582    0.003088367    0.010251515
     19        1          -0.000471889    0.004201025   -0.009674446
     20        1           0.001087920   -0.006601691    0.010402567
     21        1          -0.005570970    0.011086349    0.000851397
     22        1           0.000235548   -0.005263812   -0.011209561
     23        1           0.005342706   -0.016187760    0.001684890
     24       17          -0.000539970    0.008352103   -0.001766628
     25        1          -0.006815307   -0.005008984    0.001372055
     26       16          -0.010269558    0.001630825    0.000938209
     27        1           0.000008832   -0.002280077    0.000160833
     28        9          -0.031705986    0.013562123   -0.035896636
     29        9           0.002772663   -0.041987674   -0.031102045
     30        9          -0.019380952    0.025975755    0.033610714
     31        9           0.011769627   -0.025392476    0.040476653
     32        9           0.053028469    0.027015900   -0.011067064
 -------------------------------------------------------------------
 Cartesian Forces:  Max     0.053028469 RMS     0.016500003
 FormGI is forming the generalized inverse of G from B-inverse, IUseBI=4.

 GradGradGradGradGradGradGradGradGradGradGradGradGradGradGradGradGradGrad
 Berny optimization.
 Internal  Forces:  Max     0.060494496 RMS     0.012832574
 Search for a local minimum.
 Step number   1 out of a maximum of  173
 All quantities printed in internal units (Hartrees-Bohrs-Radians)
 Mixed Optimization -- RFO/linear search
 Second derivative matrix not updated -- analytic derivatives used.
 ITU=  0
     Eigenvalues ---   -0.00939  -0.00091   0.00009   0.00106   0.00220
     Eigenvalues ---    0.00271   0.00358   0.00692   0.01223   0.01505
     Eigenvalues ---    0.01557   0.01708   0.01889   0.02037   0.02251
     Eigenvalues ---    0.02446   0.02699   0.02964   0.03747   0.03949
     Eigenvalues ---    0.04483   0.04556   0.04591   0.05080   0.06050
     Eigenvalues ---    0.06781   0.07596   0.08141   0.08386   0.09642
     Eigenvalues ---    0.10385   0.10520   0.11055   0.11424   0.12104
     Eigenvalues ---    0.12160   0.12333   0.12569   0.12808   0.13381
     Eigenvalues ---    0.13650   0.14173   0.15207   0.16268   0.16435
     Eigenvalues ---    0.16480   0.16827   0.17404   0.17617   0.17889
     Eigenvalues ---    0.18307   0.19157   0.19586   0.20507   0.20549
     Eigenvalues ---    0.20930   0.21631   0.23961   0.24548   0.26497
     Eigenvalues ---    0.26824   0.27995   0.29149   0.29410   0.29727
     Eigenvalues ---    0.30037   0.30408   0.30501   0.30779   0.30844
     Eigenvalues ---    0.31093   0.31569   0.32076   0.32932   0.33059
     Eigenvalues ---    0.35475   0.36904   0.38153   0.39185   0.40347
     Eigenvalues ---    0.40887   0.41207   0.41681   0.45316   0.46734
     Eigenvalues ---    0.47855   0.50012   0.51017   0.84983   1.01393
 RFO step:  Lambda=-8.09438048D-02 EMin=-9.38715320D-03
 Linear search not attempted -- first point.
 Maximum step size (   0.300) exceeded in Quadratic search.
    -- Step size scaled by   0.552
 Iteration  1 RMS(Cart)=  0.19162878 RMS(Int)=  0.01405333
 Iteration  2 RMS(Cart)=  0.02141486 RMS(Int)=  0.00037170
 Iteration  3 RMS(Cart)=  0.00035010 RMS(Int)=  0.00033539
 Iteration  4 RMS(Cart)=  0.00000024 RMS(Int)=  0.00033539
 Variable       Old X    -DE/DX   Delta X   Delta X   Delta X     New X
                                 (Linear)    (Quad)   (Total)
    R1        2.71335  -0.01937   0.00000  -0.04070  -0.04070   2.67266
    R2        2.68472  -0.02709   0.00000  -0.02248  -0.02249   2.66224
    R3        2.63351   0.00969   0.00000   0.00549   0.00546   2.63897
    R4        2.57769   0.02320   0.00000   0.02107   0.02107   2.59876
    R5        1.95425  -0.01972   0.00000  -0.02299  -0.02299   1.93126
    R6        2.30548   0.00340   0.00000  -0.00452  -0.00452   2.30096
    R7        2.56707   0.00259   0.00000   0.00388   0.00388   2.57096
    R8        2.73935   0.00146   0.00000   0.00477   0.00477   2.74411
    R9        1.95139  -0.01961   0.00000  -0.02364  -0.02364   1.92775
   R10        2.88715  -0.00302   0.00000  -0.00436  -0.00436   2.88279
   R11        2.10366  -0.01240   0.00000  -0.01643  -0.01643   2.08724
   R12        2.10314  -0.01224   0.00000  -0.01797  -0.01797   2.08516
   R13        2.88097   0.00215   0.00000   0.00258   0.00258   2.88355
   R14        2.10081  -0.01029   0.00000  -0.01492  -0.01492   2.08590
   R15        2.10037  -0.01012   0.00000  -0.01377  -0.01377   2.08660
   R16        2.09948  -0.01209   0.00000  -0.01653  -0.01653   2.08296
   R17        2.09671  -0.01193   0.00000  -0.01647  -0.01647   2.08024
   R18        2.09956  -0.01210   0.00000  -0.01660  -0.01660   2.08296
   R19        2.66880  -0.02311   0.00000  -0.03016  -0.03014   2.63866
   R20        2.00864   0.01583   0.00000   0.01746   0.01746   2.02610
   R21        2.62832  -0.00873   0.00000  -0.00552  -0.00548   2.62283
   R22        3.43223  -0.00640   0.00000  -0.00689  -0.00689   3.42535
   R23        2.61906  -0.00107   0.00000   0.00081   0.00081   2.61988
   R24        2.04941  -0.00128   0.00000  -0.00285  -0.00285   2.04656
   R25        2.62061   0.00133   0.00000   0.00195   0.00192   2.62253
   R26        3.24703   0.00851   0.00000   0.01437   0.01437   3.26141
   R27        2.05430  -0.00852   0.00000  -0.00778  -0.00778   2.04652
   R28        3.23698  -0.04785   0.00000  -0.09899  -0.09899   3.13799
   R29        3.24894  -0.05117   0.00000  -0.10977  -0.10977   3.13917
   R30        3.22543  -0.04480   0.00000  -0.09134  -0.09134   3.13409
   R31        3.23592  -0.04789   0.00000  -0.10240  -0.10240   3.13352
   R32        3.23178  -0.06049   0.00000  -0.12379  -0.12379   3.10799
    A1        2.18457  -0.04685   0.00000  -0.07688  -0.07693   2.10764
    A2        2.04670   0.04100   0.00000   0.06090   0.06076   2.10746
    A3        2.05186   0.00586   0.00000   0.01571   0.01556   2.06742
    A4        2.21836   0.02188   0.00000   0.02036   0.02020   2.23856
    A5        2.02913  -0.01424   0.00000  -0.01842  -0.01858   2.01055
    A6        2.03565  -0.00766   0.00000  -0.00164  -0.00180   2.03386
    A7        2.11670   0.02537   0.00000   0.02460   0.02452   2.14122
    A8        2.08733  -0.03405   0.00000  -0.04561  -0.04570   2.04164
    A9        2.07913   0.00868   0.00000   0.02115   0.02107   2.10020
   A10        2.11052  -0.00285   0.00000  -0.00798  -0.00994   2.10058
   A11        2.08227   0.00562   0.00000   0.01473   0.01270   2.09497
   A12        2.09039  -0.00277   0.00000  -0.00688  -0.00879   2.08161
   A13        1.93652  -0.00367   0.00000  -0.00471  -0.00471   1.93181
   A14        1.90314   0.00090   0.00000   0.00498   0.00498   1.90813
   A15        1.90350   0.00089   0.00000  -0.00417  -0.00416   1.89934
   A16        1.90952   0.00232   0.00000   0.00626   0.00626   1.91577
   A17        1.91012   0.00228   0.00000   0.00527   0.00526   1.91538
   A18        1.90067  -0.00273   0.00000  -0.00777  -0.00778   1.89289
   A19        1.93604   0.00021   0.00000   0.00059   0.00059   1.93664
   A20        1.90879  -0.00012   0.00000  -0.00022  -0.00022   1.90857
   A21        1.90766  -0.00007   0.00000   0.00087   0.00087   1.90854
   A22        1.90568   0.00073   0.00000   0.00339   0.00339   1.90907
   A23        1.90438   0.00077   0.00000   0.00098   0.00098   1.90536
   A24        1.90094  -0.00156   0.00000  -0.00575  -0.00575   1.89519
   A25        1.92582   0.00233   0.00000   0.00441   0.00439   1.93022
   A26        1.91052   0.00420   0.00000   0.01036   0.01033   1.92085
   A27        1.92469   0.00241   0.00000   0.00499   0.00497   1.92966
   A28        1.89899  -0.00309   0.00000  -0.00688  -0.00691   1.89208
   A29        1.90507  -0.00295   0.00000  -0.00690  -0.00691   1.89816
   A30        1.89834  -0.00307   0.00000  -0.00634  -0.00638   1.89196
   A31        2.12608  -0.00752   0.00000  -0.01805  -0.01803   2.10805
   A32        2.13026  -0.00281   0.00000  -0.00891  -0.00893   2.12133
   A33        2.02675   0.01033   0.00000   0.02700   0.02699   2.05374
   A34        2.07051   0.02118   0.00000   0.03224   0.03229   2.10280
   A35        2.10608  -0.01190   0.00000  -0.01656  -0.01659   2.08950
   A36        2.10650  -0.00928   0.00000  -0.01570  -0.01572   2.09078
   A37        2.08618  -0.01254   0.00000  -0.02256  -0.02252   2.06366
   A38        2.12350   0.00434   0.00000   0.00597   0.00595   2.12945
   A39        2.07342   0.00820   0.00000   0.01653   0.01651   2.08993
   A40        2.13247  -0.00214   0.00000   0.00533   0.00532   2.13779
   A41        2.07450   0.00012   0.00000  -0.00295  -0.00295   2.07155
   A42        2.07614   0.00203   0.00000  -0.00242  -0.00242   2.07372
   A43        2.09924  -0.00484   0.00000  -0.01275  -0.01279   2.08645
   A44        2.11553   0.00158   0.00000  -0.00600  -0.00598   2.10955
   A45        2.06841   0.00326   0.00000   0.01875   0.01877   2.08718
   A46        1.57728   0.01073   0.00000   0.01927   0.01927   1.59655
   A47        1.58973   0.00706   0.00000   0.01313   0.01314   1.60287
   A48        1.57386   0.01178   0.00000   0.02119   0.02117   1.59503
   A49        1.57714   0.00885   0.00000   0.01788   0.01788   1.59502
   A50        1.55465   0.00292   0.00000   0.00769   0.00742   1.56207
   A51        1.59263  -0.00423   0.00000  -0.01214  -0.01252   1.58011
   A52        1.57513  -0.01246   0.00000  -0.02558  -0.02557   1.54956
   A53        1.58022  -0.00281   0.00000  -0.00554  -0.00580   1.57442
   A54        1.56178  -0.00894   0.00000  -0.01780  -0.01779   1.54399
   A55        1.55541   0.00345   0.00000   0.00873   0.00837   1.56378
   A56        1.55775  -0.00988   0.00000  -0.01644  -0.01646   1.54129
   A57        1.55370  -0.00714   0.00000  -0.01163  -0.01162   1.54208
   A58        3.15241  -0.00173   0.00000  -0.00631  -0.00631   3.14611
   A59        3.15442   0.01958   0.00000   0.03716   0.03715   3.19157
   A60        3.16359   0.01884   0.00000   0.03432   0.03431   3.19790
   A61        3.15134  -0.00182   0.00000  -0.00449  -0.00452   3.14682
   A62        3.14808  -0.00057   0.00000  -0.00303  -0.00298   3.14510
   A63        3.14742  -0.00095   0.00000  -0.00380  -0.00379   3.14363
    D1       -2.90425   0.00136   0.00000  -0.16925  -0.16930  -3.07356
    D2        0.22678   0.00003   0.00000  -0.13484  -0.13503   0.09176
    D3        0.22635   0.00287   0.00000  -0.19839  -0.19820   0.02815
    D4       -2.92580   0.00154   0.00000  -0.16397  -0.16392  -3.08973
    D5        3.13482   0.00140   0.00000  -0.01724  -0.01621   3.11860
    D6        0.00840   0.00087   0.00000  -0.01979  -0.01896  -0.01055
    D7        0.00425  -0.00031   0.00000   0.01172   0.01175   0.01600
    D8       -3.12217  -0.00085   0.00000   0.00917   0.00901  -3.11316
    D9       -3.13802  -0.00037   0.00000   0.01418   0.01536  -3.12265
   D10       -0.00186  -0.00028   0.00000   0.01395   0.01487   0.01301
   D11       -0.00656   0.00066   0.00000  -0.01332  -0.01349  -0.02005
   D12        3.12960   0.00075   0.00000  -0.01355  -0.01398   3.11562
   D13        0.00530   0.00030   0.00000  -0.12324  -0.12319  -0.11789
   D14        3.14000  -0.00017   0.00000  -0.09906  -0.09897   3.04102
   D15       -3.12570   0.00168   0.00000  -0.15768  -0.15777   2.99972
   D16        0.00899   0.00120   0.00000  -0.13350  -0.13355  -0.12456
   D17       -3.13452   0.00018   0.00000  -0.00373  -0.00332  -3.13785
   D18        0.00589   0.00014   0.00000  -0.12034  -0.12071  -0.11481
   D19        0.00032  -0.00022   0.00000   0.01995   0.02032   0.02064
[...]
 6,-0.00075025,0.00047700,0.00258901,0.00049923,-0.00024562,-0.29942274
 ,0.11822341,0.00670892,-0.01700471,0.01191782,0.00001762,-0.00188694,-
 0.00323561,0.00116730,-0.00001665,0.00003635,0.00000481,-0.00000830,0.
 00002043,0.00000235,0.00001001,0.00000041,-0.00000007,0.00000439,0.000
 00121,-0.00000164,-0.00000130,0.00000020,-0.00000011,-0.00000097,0.000
 00011,0.00000052,-0.00000043,0.00000101,-0.00000014,0.00000307,-0.0000
 0125,-0.00000030,-0.00000047,0.00000099,0.00000002,0.00025104,-0.00017
 995,0.00008736,0.00080672,0.00064709,-0.00044179,-0.00045922,0.0006065
 9,-0.00005512,0.00110762,-0.00076857,0.00010038,0.31527773,-0.00039936
 ,-0.00083601,0.00000491,-0.00006766,0.00026430,-0.00015058,0.00003030,
 -0.00021185,0.00004421,-0.00014563,0.00017723,-0.00000785,-0.00003313,
 0.00007324,0.00000644,0.00001768,0.00000477,0.00000444,0.00000039,-0.0
 0000320,-0.00000088,-0.00000026,0.00000241,-0.00000093,-0.00133589,-0.
 00499464,0.00178423,0.02615257,-0.00748682,-0.00118430,0.11849890,-0.1
 1262863,0.00122075,-0.01671924,0.01085044,0.00030630,-0.00309692,-0.00
 212071,0.00144423,-0.00013077,0.00000123,0.00003324,-0.00000952,-0.000
 00242,-0.00000261,-0.00000270,-0.00000232,-0.00000099,-0.00000010,0.00
 000137,-0.00000137,-0.00000005,-0.00000035,-0.00000014,-0.00000051,0.0
 0000084,0.00000002,0.00000045,-0.00000029,0.00000036,-0.00000132,0.000
 00021,0.00000015,-0.00000001,-0.00000058,-0.00000065,0.00136432,-0.000
 31395,0.00005109,-0.00078877,0.00057905,-0.00043017,-0.00061486,0.0006
 8690,-0.00004156,0.00400321,-0.00491599,0.00052215,-0.12380673,0.11723
 212,0.00004042,0.00003571,-0.00125174,-0.00008186,-0.00013185,-0.00046
 747,-0.00002573,-0.00000176,-0.00008798,-0.00003170,-0.00000724,-0.000
 03935,0.00000983,-0.00000841,0.00006976,0.00000145,-0.00000191,0.00001
 503,-0.00000089,-0.00000122,0.00000270,0.00000011,0.00000015,0.0000004
 5,0.00056386,0.00169470,0.00555889,-0.00409403,0.00116083,0.00086418,0
 .00667471,0.00124113,-0.03287118,0.00442224,-0.00234962,0.00261155,0.0
 0109468,0.00152124,0.00524586,0.00001928,-0.00001581,0.00007241,0.0000
 1620,0.00000900,0.00002231,0.00000032,-0.00000398,-0.00000578,-0.00000
 402,0.00000648,-0.00000468,0.00000019,-0.00000200,-0.00000093,0.000000
 37,0.00000168,-0.00000159,0.00000069,0.00000067,-0.00000068,-0.0000000
 3,0.00000015,0.00000041,-0.00000105,-0.00000072,-0.00000060,-0.0001420
 3,0.00019532,0.00086401,-0.00022627,-0.00054966,-0.00263947,0.00019085
 ,-0.00011827,0.00022157,-0.00063053,0.00096067,0.00087969,-0.00820452,
 -0.00281109,0.02442186,0.00233740,-0.00024177,0.00016768,-0.00085814,0
 .00006019,0.00026486,0.00113646,0.00028917,-0.00022529,-0.00033668,-0.
 00026915,0.00013159,-0.00044769,0.00017822,0.00011123,0.00019221,0.000
 06150,-0.00005444,-0.00001512,-0.00003805,-0.00000969,0.00000148,0.000
 02693,-0.00000103,-0.00298193,0.00010965,0.00341753,-0.00062669,-0.011
 80201,0.00803933,-0.00016782,0.00133756,0.00090699,-0.00122494,0.00002
 211,-0.00038626,0.00031770,-0.00104430,0.00015565,0.00017323,-0.000024
 12,-0.00018882,0.00005280,-0.00005072,-0.00002874,-0.00003881,-0.00001
 558,-0.00000419,-0.00001207,-0.00001376,0.00000338,0.00000528,0.000003
 40,-0.00000277,0.00000418,-0.00000036,0.00000921,0.00000114,-0.0000104
 1,0.00000545,-0.00002208,0.00000942,0.00000085,0.00000161,-0.00000655,
 -0.00000236,-0.00023291,-0.00205483,-0.00019384,0.00010436,-0.00062238
 ,0.00005212,0.00010238,-0.00012726,-0.00009504,-0.08054785,0.01986853,
 -0.03056776,-0.00017886,-0.00047991,0.00021146,0.12866563,0.00155135,0
 .00019177,-0.00089022,-0.00218417,0.00009132,0.00002665,0.00175783,-0.
 00019859,-0.00010444,-0.00060672,0.00018855,-0.00001274,-0.00090140,0.
 00055994,0.00013175,0.00024630,0.00010198,-0.00007336,-0.00002086,-0.0
 0009210,0.00002164,-0.00001228,0.00004963,-0.00000823,-0.00156568,-0.0
 0374113,0.00177212,0.01163638,-0.01200567,0.01954729,-0.00502895,0.001
 54693,0.00222623,-0.00056518,-0.00011134,-0.00136231,-0.00002842,-0.00
 071571,0.00042327,-0.00009714,-0.00017852,0.00016234,-0.00002603,-0.00
 014262,-0.00002058,-0.00006098,-0.00002737,0.00000716,-0.00000121,-0.0
 0001214,-0.00001149,0.00000576,0.00000359,0.00001113,-0.00000450,0.000
 01609,-0.00002375,0.00000911,-0.00000661,-0.00000648,-0.00003559,0.000
 01091,0.00000578,0.00000627,-0.00001075,0.00000306,-0.00142028,0.00024
 986,0.00090423,-0.00029506,-0.00098679,0.00005083,0.00016930,0.0000909
 6,0.00003171,0.02083407,-0.10298893,0.05675974,0.00027089,0.00055609,0
 .00021887,-0.03817254,0.12426809,-0.00119589,0.00023922,0.00039949,0.0
 0176023,0.00003192,0.00014605,-0.00143254,0.00005650,0.00002802,0.0004
 8401,-0.00010823,0.00005601,0.00073769,-0.00037844,-0.00006989,-0.0002
 0543,-0.00009645,0.00004741,0.00001572,0.00007186,-0.00003307,0.000007
 96,-0.00004094,0.00000652,0.00275948,0.00256119,-0.00080045,-0.0162582
 4,0.01099399,-0.00926005,0.00669467,0.00010804,-0.00191927,-0.00064706
 ,0.00056789,0.00082446,0.00039130,0.00022692,-0.00029111,0.00000228,0.
 00007604,-0.00030953,0.00001509,0.00008453,-0.00004243,0.00005819,0.00
 003196,-0.00000032,-0.00000222,0.00000498,0.00000994,-0.00000586,0.000
 00470,0.00000095,0.00000211,-0.00001921,0.00002320,-0.00000853,0.00000
 141,0.00000749,0.00002700,-0.00000811,-0.00000704,-0.00000009,0.000013
 37,0.00000066,0.00115427,0.00043777,-0.00167807,0.00037157,0.00106407,
 -0.00006610,-0.00012657,-0.00003679,-0.00005609,-0.03257044,0.05623801
 ,-0.14013532,-0.00021457,-0.00036236,-0.00037335,0.06594022,-0.0727720
 1,0.19253469,-0.00012531,-0.00120871,-0.00109418,-0.00234355,-0.000427
 06,0.00010097,0.00222623,0.00036065,-0.00043523,-0.00070649,-0.0002334
 0,0.00010874,-0.00109274,0.00048106,0.00018770,0.00038578,0.00016303,-
 0.00007562,-0.00003602,-0.00009722,0.00000575,-0.00000411,0.00006194,-
 0.00000894,0.00002703,-0.00545845,0.00294811,-0.01361570,0.01967546,0.
 01880939,-0.00450118,-0.00143011,0.00241761,0.00127592,0.00161277,-0.0
 0082020,-0.00130431,0.00062297,0.00022769,0.00014402,-0.00008812,0.000
 03566,0.00004521,-0.00012352,-0.00001353,-0.00008461,-0.00004068,-0.00
 000654,-0.00001448,-0.00002105,-0.00000227,0.00001069,0.00000029,-0.00
 000313,0.00000345,0.00001092,-0.00000150,0.00000672,-0.00001464,0.0000
 0344,-0.00004588,0.00001650,0.00000523,0.00000314,-0.00001683,-0.00000
 412,0.00039780,0.00021231,0.00035895,0.00000492,-0.00119362,0.00015103
 ,0.00020462,0.00000032,0.00002997,-0.09757167,0.03495335,0.04589538,-0
 .00112755,-0.00084737,0.00089969,-0.00948816,0.02207048,0.00466155,0.1
 1180566,0.00007627,-0.00134668,0.00027299,-0.00038075,0.00056919,-0.00
 008359,0.00019181,-0.00020793,0.00000398,-0.00001891,0.00015002,-0.000
 00678,-0.00005760,0.00015314,0.00004997,-0.00000542,-0.00001617,-0.000
 02328,0.00000422,-0.00001354,0.00000200,-0.00000465,0.00000372,-0.0000
 0128,0.00128048,0.00168738,-0.00013159,-0.00762686,-0.00374469,0.00011
 333,0.00050441,-0.00207896,0.00264176,0.00055103,0.00148478,0.00051721
 ,-0.00071491,0.00076711,-0.00011665,-0.00015963,-0.00006737,0.00002700
 ,-0.00003042,-0.00004221,-0.00003118,0.00000087,0.00000387,0.00000782,
 0.00000067,0.00000093,-0.00000245,-0.00000069,0.00000455,0.00000948,-0
 .00000169,0.00000014,-0.00000812,0.00000164,-0.00000052,-0.00000344,-0
 .00000312,0.00000049,-0.00000031,0.00000351,0.00000258,0.00000463,-0.0
 0071402,0.00001097,0.00005658,0.00002773,0.00037831,0.00001311,-0.0000
 8877,0.00009029,-0.00015986,0.03390354,-0.11075437,-0.05178812,-0.0013
 8145,0.00097095,-0.00099225,0.02563582,-0.02572982,-0.00612732,-0.0442
 7462,0.17605025,0.00016028,-0.00053278,0.00056263,0.00166923,0.0005068
 0,-0.00001471,-0.00135205,-0.00035430,0.00024181,0.00043430,0.00017834
 ,-0.00003873,0.00070181,-0.00023857,-0.00008640,-0.00023271,-0.0001168
 3,0.00004330,0.00002402,0.00006248,-0.00001805,0.00000245,-0.00004020,
 0.00000299,0.00215773,0.00532629,-0.00205112,0.00609727,-0.01815554,-0
 .00495625,0.00286478,0.00194727,-0.00079357,-0.00033233,-0.00086017,0.
 00037282,0.00049645,0.00007154,-0.00015907,-0.00012592,0.00004151,-0.0
 0012404,-0.00002815,0.00006096,-0.00002577,0.00005782,0.00003114,0.000
 00745,0.00000510,0.00001005,0.00000312,-0.00000668,0.00000435,0.000007
 01,-0.00000135,-0.00001180,0.00000610,-0.00000518,0.00000545,0.0000002
 3,0.00002677,-0.00000912,-0.00000533,0.00000142,0.00001302,0.00000444,
 -0.00025230,-0.00018874,-0.00039296,0.00004146,0.00082243,-0.00009015,
 -0.00010755,0.00001169,-0.00005079,0.04439602,-0.05263006,-0.12382722,
 0.00107957,0.00035740,-0.00139335,-0.00919578,0.01273276,0.00863555,-0
 .05134246,0.08762401,0.16597457,0.00242144,-0.00040649,-0.00055681,-0.
 00111568,-0.00000182,0.00006752,0.00131615,0.00028770,-0.00021802,-0.0
 0039861,-0.00025075,0.00010817,-0.00055559,0.00021343,0.00004951,0.000
 21666,0.00007178,-0.00006807,-0.00001606,-0.00004657,0.00000722,0.0000
 0095,0.00003209,-0.00000188,-0.00407933,-0.00115039,-0.00250590,0.0007
 1597,-0.01534148,-0.00473046,-0.00145336,0.00084962,-0.00124081,-0.000
 94137,0.00008598,0.00062898,0.00021872,-0.00103701,0.00010862,0.000209
 48,-0.00000267,0.00006385,0.00004281,-0.00005195,0.00001063,-0.0000512
 1,-0.00002384,-0.00000600,-0.00000805,-0.00001128,0.00000028,0.0000079
 2,-0.00000083,-0.00000706,0.00000162,0.00000576,0.00000188,0.00000310,
 -0.00000845,0.00000320,-0.00002500,0.00001039,0.00000340,-0.00000041,-
 0.00001059,-0.00000333,-0.00037086,-0.00213649,0.00056568,0.00005255,-
 0.00075956,0.00016818,0.00013491,-0.00009763,0.00009297,-0.07245769,0.
 01670310,0.01609974,-0.00017873,-0.00047896,-0.00010079,0.00753434,-0.
 00142039,-0.00840754,0.00615617,0.00244173,0.00054499,0.10998104,0.001
 92604,0.00036289,0.00061760,-0.00254671,0.00011602,0.00040934,0.002059
 95,-0.00019667,-0.00025971,-0.00070017,0.00020891,0.00007739,-0.001038
 57,0.00070014,0.00023468,0.00027985,0.00010575,-0.00011389,-0.00002878
 ,-0.00011177,-0.00000725,-0.00001457,0.00006006,-0.00000417,-0.0024487
 7,-0.00463321,-0.00002247,0.01257135,-0.02065851,-0.01822848,-0.007299
 04,0.00072306,-0.00167472,0.00000521,0.00015798,0.00149761,-0.00022634
 ,-0.00082356,-0.00024577,-0.00014746,-0.00025320,-0.00012129,-0.000022
 10,-0.00019292,-0.00009853,-0.00006186,-0.00002117,0.00001328,-0.00000
 865,-0.00002224,-0.00001098,0.00000488,0.00001358,0.00002313,-0.000003
 41,0.00001022,-0.00001700,0.00000749,-0.00001346,-0.00000423,-0.000043
 06,0.00001237,0.00000257,0.00001170,-0.00000592,0.00000698,-0.00195080
 ,-0.00024137,-0.00104543,-0.00037133,-0.00120082,0.00037442,0.00018029
 ,0.00007600,-0.00011530,0.01799935,-0.14152307,-0.06204207,0.00024387,
 0.00051986,-0.00053335,0.00159395,0.00721141,0.00204590,0.00569984,0.0
 0159505,-0.00520676,-0.04065240,0.17677315,0.00024640,-0.00020382,0.00
 020298,-0.00078703,-0.00001307,0.00032067,0.00061522,-0.00000724,-0.00
 015355,-0.00019419,0.00005859,0.00008464,-0.00030237,0.00022667,0.0001
 1778,0.00007144,0.00002576,-0.00004634,-0.00001069,-0.00003667,-0.0000
 2553,-0.00000508,0.00001929,-0.00000135,-0.00142962,-0.00104391,0.0010
 6664,0.01150481,-0.00506222,-0.00196269,-0.00478730,-0.00091472,0.0001
 8722,0.00105524,-0.00042217,0.00022965,-0.00044118,0.00015679,-0.00012
 014,-0.00007381,-0.00008859,-0.00023968,-0.00000477,-0.00007470,-0.000
 07871,-0.00001032,0.00000177,0.00000822,-0.00000757,-0.00001341,-0.000
 00150,0.00000086,0.00001127,0.00001359,0.00000008,-0.00000241,0.000002
 37,-0.00000029,-0.00000787,0.00000076,-0.00001293,0.00000253,-0.000002
 32,0.00000693,0.00000328,0.00000524,-0.00088807,-0.00052996,-0.0011143
 4,-0.00026507,-0.00055833,0.00018078,0.00003966,0.00000979,-0.00007531
 ,0.01769493,-0.06139325,-0.11098163,0.00009698,0.00017117,-0.00032585,
 -0.00085939,-0.01817546,-0.04213586,0.00207389,-0.00359643,-0.00002446
 ,-0.04301386,0.08929481,0.16047632,0.00009928,-0.00066786,0.00157243,-
 0.00248303,-0.00045129,0.00070503,0.00239996,0.00043428,-0.00041245,-0
 .00076474,-0.00024976,0.00018265,-0.00118870,0.00051152,0.00017581,0.0
 0040805,0.00016484,-0.00011957,-0.00003869,-0.00010648,-0.00000124,-0.
 00000428,0.00006810,-0.00000830,-0.00073974,-0.00695656,-0.00119063,-0
 .01808746,0.01596116,-0.02252385,-0.00520155,-0.00212467,-0.00091815,0
 .00138810,0.00183249,0.00009451,-0.00140691,0.00051595,-0.00021352,0.0
 0013979,-0.00010638,-0.00007476,0.00005060,-0.00013556,-0.00002598,-0.
 00009065,-0.00004117,-0.00000351,-0.00001592,-0.00002517,-0.00000109,0
 .00001198,0.00000473,-0.00000079,0.00000294,0.00000856,0.00000192,0.00
 000585,-0.00001820,0.00000556,-0.00004996,0.00001795,0.00000465,0.0000
 0436,-0.00001573,-0.00000275,0.00036365,0.00008968,-0.00057426,0.00000
 225,-0.00131574,0.00023654,0.00021188,-0.00002043,-0.00007176,-0.11600
 662,0.02662346,-0.05988331,-0.00131947,-0.00115737,-0.00057686,0.00525
 153,0.00528947,-0.00498447,0.00847245,0.00169035,0.00366432,-0.0094303
 0,0.01846642,-0.00782358,0.13411377,0.00003065,-0.00106865,0.00034879,
 -0.00078844,0.00040446,-0.00000798,0.00053233,-0.00011440,0.00002567,-
 0.00014527,0.00010239,-0.00003541,-0.00024438,0.00020506,0.00002867,0.
 00005988,0.00001776,-0.00001571,-0.00000226,-0.00002901,0.00000523,-0.
 00000508,0.00001307,-0.00000381,0.00049569,-0.00001829,-0.00057645,-0.
 00888495,0.00127917,0.00005735,-0.00064590,-0.00309761,-0.00175705,0.0
 0052006,0.00142318,-0.00091508,-0.00080637,0.00071445,-0.00006697,-0.0
 0012239,-0.00007670,0.00001463,-0.00001861,-0.00005343,-0.00002321,-0.
 00001470,-0.00000454,0.00000342,-0.00000074,-0.00000277,-0.00000411,0.
 00000126,0.00000233,0.00000705,-0.00000200,0.00000421,-0.00000985,0.00
 000297,-0.00000136,-0.00000384,-0.00000978,0.00000276,0.00000116,0.000
 00344,-0.00000179,0.00000263,-0.00063855,0.00002401,-0.00005895,0.0000
 0268,0.00012500,-0.00007630,-0.00002574,0.00012106,0.00010167,0.025799
 91,-0.08298276,0.03605823,-0.00136861,0.00107395,0.00061017,0.00248024
 ,0.00381057,0.00199540,-0.00222352,0.00621160,-0.01517494,0.02931332,-
 0.02569454,0.01217065,-0.03909324,0.12572181,-0.00010741,0.00117287,0.
 00003538,-0.00101170,-0.00052951,0.00046090,0.00083889,0.00039240,-0.0
 0024391,-0.00026601,-0.00019702,0.00016004,-0.00042941,0.00012898,0.00
 010358,0.00014037,0.00006516,-0.00006698,-0.00001956,-0.00003985,-0.00
 001157,-0.00000154,0.00002617,-0.00000279,-0.00249421,-0.00469278,0.00
 044054,-0.00170948,0.01364406,-0.00548210,-0.00190878,-0.00072179,0.00
 107894,-0.00000738,0.00017909,0.00032450,-0.00004528,-0.00042425,-0.00
 002966,0.00010294,-0.00003662,-0.00013256,0.00002945,-0.00005078,-0.00
 003294,-0.00002758,-0.00000996,0.00000144,-0.00001025,-0.00001418,0.00
 000194,0.00000361,0.00000795,0.00000150,0.00000200,-0.00000261,0.00000
 906,-0.00000014,-0.00000996,0.00000541,-0.00001779,0.00000555,-0.00000
 041,0.00000321,-0.00000216,0.00000057,0.00031788,0.00003267,-0.0003924
 5,-0.00004196,-0.00066205,0.00014972,0.00007404,-0.00006520,-0.0000891
 1,-0.05801555,0.03683392,-0.13358713,-0.00060104,-0.00083237,-0.001141
 90,-0.00253511,0.00305656,-0.00134440,-0.01294416,-0.00053174,-0.04210
 939,0.00378678,-0.00544787,0.00857009,0.07525074,-0.07055901,0.1941952
 0,0.00136558,-0.00049304,0.00009927,-0.00150556,-0.00005458,0.00015669
 ,0.00159411,0.00025518,-0.00025057,-0.00048407,-0.00023474,0.00010938,
 -0.00071233,0.00032317,0.00009740,0.00027819,0.00009323,-0.00006511,-0
 .00001988,-0.00006126,0.00000435,-0.00000041,0.00004016,-0.00000754,0.
 00009468,0.00011159,-0.00008798,0.00117111,-0.00134529,0.00036824,-0.0
 0084368,-0.00005386,0.00005824,0.00006376,0.00068985,-0.00007042,-0.00
 028653,-0.00016075,-0.00003815,0.00014286,-0.00002472,-0.00002356,0.00
 004649,-0.00008001,-0.00001149,-0.00005993,-0.00002667,-0.00000524,-0.
 00001144,-0.00001461,0.00000044,0.00000882,0.00000027,-0.00000301,0.00
 000318,0.00000499,0.00000210,0.00000435,-0.00001208,0.00000397,-0.0000
 3320,0.00001405,0.00000331,0.00000219,-0.00001203,-0.00000308,0.000497
 48,-0.00010552,-0.00005661,0.00000901,-0.00073531,0.00011180,0.0000947
 9,-0.00002643,-0.00000798,-0.14805046,-0.06074806,0.01744932,-0.000038
 26,0.00004922,-0.00002604,-0.04870201,-0.01139984,-0.01902388,0.000891
 92,-0.01085057,-0.00144333,-0.03793159,-0.00348619,0.02751067,0.003901
 57,-0.00420192,0.00164443,0.22850925,0.00051868,-0.00056013,0.00000462
 ,-0.00126570,0.00013383,0.00011882,0.00109247,0.00003337,-0.00009373,-
 0.00032765,-0.00000382,0.00003277,-0.00052664,0.00030678,0.00009116,0.
 00016144,0.00005389,-0.00006785,-0.00001363,-0.00005118,0.00000494,-0.
 00000470,0.00002916,-0.00000203,-0.00041737,-0.00099393,0.00021790,-0.
 00148037,0.00237482,0.00019660,0.00055371,-0.00004022,-0.00002853,0.00
 038031,0.00090977,-0.00018658,-0.00043190,0.00020895,0.00000042,-0.000
 00549,-0.00007825,-0.00000129,0.00000589,-0.00008357,-0.00002669,-0.00
 003699,-0.00001498,0.00000243,-0.00000404,-0.00001018,-0.00000346,0.00
 000449,0.00000345,0.00000603,-0.00000060,0.00000557,-0.00000794,0.0000
 0415,-0.00000654,-0.00000146,-0.00002306,0.00000848,0.00000259,0.00000
 373,-0.00000591,0.00000173,-0.00017769,0.00006038,-0.00004129,-0.00006
 136,-0.00027393,0.00005322,0.00005548,0.00003211,-0.00001505,-0.060357
 60,-0.10501787,0.01236145,0.00007336,0.00052280,-0.00012761,0.00329701
 ,0.00800042,0.00309421,-0.02824298,-0.04613306,-0.01628766,0.01387465,
 0.00694598,-0.01000811,-0.01919337,-0.02811100,0.02928435,0.09254577,0
 .16175482,-0.00015345,0.00019976,0.00043024,0.00033239,-0.00001935,0.0
 0002044,-0.00031816,-0.00001749,-0.00003869,0.00009985,0.00001263,0.00
 002518,0.00015610,-0.00005894,0.00000515,-0.00005482,-0.00002305,0.000
 00248,0.00000272,0.00001219,-0.00001159,0.00000049,-0.00000770,0.00000
 217,0.00003735,0.00013070,-0.00011740,0.00036673,0.00017628,0.00260901
 ,-0.00001569,-0.00001008,-0.00012707,-0.00004145,-0.00016088,0.0003092
 8,0.00005331,-0.00007462,-0.00036499,-0.00002589,0.00000039,-0.0000989
 4,-0.00000325,0.00000849,-0.00002462,0.00001625,0.00000960,0.00000266,
 -0.00000140,-0.00000038,0.00000185,-0.00000181,0.00000398,0.00000349,0
 .00000006,-0.00000531,0.00000550,-0.00000235,-0.00000065,0.00000163,0.
 00000596,-0.00000261,-0.00000250,0.00000113,0.00000500,0.00000183,-0.0
 0004705,-0.00004369,-0.00027521,0.00001029,0.00011184,-0.00001435,-0.0
 0001882,-0.00000411,-0.00001435,0.01729923,0.01236710,-0.06490712,-0.0
 0003183,-0.00012324,-0.00024480,-0.03506705,-0.00463201,-0.00419810,-0
 .01216886,-0.02773943,0.00029935,0.03854893,0.00060157,-0.01417770,0.0
 1751668,0.03785797,-0.02087153,-0.02649561,-0.01857396,0.10176870\\-0.
 00000102,-0.00000045,0.00000219,-0.00001583,-0.00000235,0.00000178,0.0
 0000247,0.00001026,0.00000184,0.00000267,-0.00000386,-0.00000106,0.000
 00015,-0.00000243,-0.00000295,0.00000843,0.00000028,-0.00000052,-0.000
 00090,0.00000128,-0.00000134,-0.00000008,-0.00000061,-0.00000060,0.000
 00215,0.00000076,-0.00000100,0.00000079,0.00000013,0.00000044,0.000000
 46,-0.00000002,0.00000077,0.00000015,-0.00000025,0.00000179,-0.0000002
 9,0.00000032,0.00000017,-0.00000061,-0.00000165,-0.00000182,-0.0000004
 4,-0.00000160,-0.00000076,0.00000170,0.00000005,-0.00000014,0.00000016
 ,0.00000028,0.00000040,-0.00000055,0.,-0.00000123,0.00000044,-0.000001
 27,-0.00000080,-0.00000037,0.00000020,-0.00000059,-0.00000029,-0.00000
 055,-0.00000130,-0.00000019,-0.00000079,-0.00000051,-0.00000014,-0.000
 00093,0.00000060,0.00000012,0.00000059,0.00000210,0.00000009,-0.000000
 24,0.00000178,0.00000597,-0.00000235,0.00000299,-0.00000020,0.00000068
 ,0.00000181,0.00000129,-0.00000045,0.00000009,-0.00000061,0.00000457,0
 .00000393,0.00000211,-0.00000169,-0.00000210,-0.00000261,0.00000567,-0
 .00000747,-0.00000502,-0.00000358,0.00000153\\\@


 IN NATURE THERE ARE NEITHER REWARDS OR
 PUNISHMENTS -- THERE ARE CONSEQUENCES.

                            -- ROBERT GREEN INGERSOLL
 Job cpu time:       0 days  6 hours  0 minutes 52.3 seconds.
 File lengths (MBytes):  RWF=    830 Int=      0 D2E=      0 Chk=     20 Scr=      1
 Normal termination of Gaussian 09 at Fri Nov 15 13:31:03 2019.
pbs_rusage has been removed.
Please contact help@nci.org.au if you require this functionality.
