 Entering Gaussian System, Link 0=/apps/gaussian/g09e01/g09/g09
 Initial command:
 /apps/gaussian/g09e01/g09/l1.exe "/jobfs/local/3579106.r-man2/Gau-42166.inp" -scrdir="/jobfs/local/3579106.r-man2/"
 Entering Link 1 = /apps/gaussian/g09e01/g09/l1.exe PID=     42167.
  
 Copyright (c) 1988,1990,1992,1993,1995,1998,2003,2009,2015,
            Gaussian, Inc.  All Rights Reserved.
  
 This is part of the Gaussian(R) 09 program.  It is based on
 the Gaussian(R) 03 system (copyright 2003, Gaussian, Inc.),
 the Gaussian(R) 98 system (copyright 1998, Gaussian, Inc.),
 the Gaussian(R) 94 system (copyright 1995, Gaussian, Inc.),
 the Gaussian 92(TM) system (copyright 1992, Gaussian, Inc.),
 the Gaussian 90(TM) system (copyright 1990, Gaussian, Inc.),
 the Gaussian 88(TM) system (copyright 1988, Gaussian, Inc.),
 the Gaussian 86(TM) system (copyright 1986, Carnegie Mellon
 University), and the Gaussian 82(TM) system (copyright 1983,
 Carnegie Mellon University). Gaussian is a federally registered
 trademark of Gaussian, Inc.
  
 This software contains proprietary and confidential information,
 including trade secrets, belonging to Gaussian, Inc.
  
 This software is provided under written license and may be
 used, copied, transmitted, or stored only in accord with that
 written license.
  
 The following legend is applicable only to US Government
 contracts under FAR:
  
                    RESTRICTED RIGHTS LEGEND
  
 Use, reproduction and disclosure by the US Government is
 subject to restrictions as set forth in subparagraphs (a)
 and (c) of the Commercial Computer Software - Restricted
 Rights clause in FAR 52.227-19.
  
 Gaussian, Inc.
 340 Quinnipiac St., Bldg. 40, Wallingford CT 06492
  
  
 ---------------------------------------------------------------
 Warning -- This program may not be used in any manner that
 competes with the business of Gaussian, Inc. or will provide
 assistance to any competitor of Gaussian, Inc.  The licensee
 of this program is prohibited from giving any competitor of
 Gaussian, Inc. access to this program.  By using this program,
 the user acknowledges that Gaussian, Inc. is engaged in the
 business of creating and licensing software in the field of
 computational chemistry and represents and warrants to the
 licensee that it is not a competitor of Gaussian, Inc. and that
 it will not use this program in any manner prohibited above.
 ---------------------------------------------------------------
  

 Cite this work as:
 Gaussian 09, Revision E.01,
 M. J. Frisch, G. W. Trucks, H. B. Schlegel, G. E. Scuseria, 
 M. A. Robb, J. R. Cheeseman, G. Scalmani, V. Barone, B. Mennucci, 
 G. A. Petersson, H. Nakatsuji, M. Caricato, X. Li, H. P. Hratchian, 
 A. F. Izmaylov, J. Bloino, G. Zheng, J. L. Sonnenberg, M. Hada, 
 M. Ehara, K. Toyota, R. Fukuda, J. Hasegawa, M. Ishida, T. Nakajima, 
 Y. Honda, O. Kitao, H. Nakai, T. Vreven, J. A. Montgomery, Jr., 
 J. E. Peralta, F. Ogliaro, M. Bearpark, J. J. Heyd, E. Brothers, 
 K. N. Kudin, V. N. Staroverov, T. Keith, R. Kobayashi, J. Normand, 
 K. Raghavachari, A. Rendell, J. C. Burant, S. S. Iyengar, J. Tomasi, 
 M. Cossi, N. Rega, J. M. Millam, M. Klene, J. E. Knox, J. B. Cross, 
 V. Bakken, C. Adamo, J. Jaramillo, R. Gomperts, R. E. Stratmann, 
 O. Yazyev, A. J. Austin, R. Cammi, C. Pomelli, J. W. Ochterski, 
 R. L. Martin, K. Morokuma, V. G. Zakrzewski, G. A. Voth, 
 P. Salvador, J. J. Dannenberg, S. Dapprich, A. D. Daniels, 
 O. Farkas, J. B. Foresman, J. V. Ortiz, J. Cioslowski, 
 and D. J. Fox, Gaussian, Inc., Wallingford CT, 2013.
 
 ******************************************
 Gaussian 09:  ES64L-G09RevE.01 30-Nov-2015
                14-Nov-2019 
 ******************************************
 %chk=CP22_c2.M062X_6-311pGd_opt_Pentadecane_GD3.chk
 %mem=196608000
 %nproc=4
 Will use up to    4 processors via shared memory.
 ----------------------------------------------------------------------
 # M062X/6-311+G* SCF=Tight INT(grid=ultrafine) OPT IOP(2/17=4) Empiric
 alDispersion=GD3 SCRF=(SMD,Solvent=n-Pentadecane) maxdisk=2684354560
 ----------------------------------------------------------------------
 1/14=-1,18=20,19=15,26=4,38=1/1,3;
 2/9=110,12=2,17=4,18=5,40=1/2;
 3/5=4,6=6,7=11,11=2,16=1,25=1,30=1,70=32201,71=1,72=151,74=-55,75=-5,124=31/1,2,3;
 4//1;
 5/5=2,32=2,38=5,53=151/2;
 6/7=2,8=2,9=2,10=2,28=1/1;
 7//1,2,3,16;
 1/14=-1,18=20,19=15,26=4/3(2);
 2/9=110,17=4/2;
 99//99;
 2/9=110,17=4/2;
 3/5=4,6=6,7=11,11=2,16=1,25=1,30=1,70=32205,71=1,72=151,74=-55,75=-5,124=31/1,2,3;
 4/5=5,16=3,69=1/1;
 5/5=2,32=2,38=5,53=151/2;
 7//1,2,3,16;
 1/14=-1,18=20,19=15,26=4/3(-5);
 2/9=110,17=4/2;
 6/7=2,8=2,9=2,10=2,19=2,28=1/1;
 99/9=1/99;
 ------------------------------------------
 CP22_c2.M062X_6-311pGd_opt_Pentadecane_GD3
 ------------------------------------------
 Symbolic Z-matrix:
 Charge =  0 Multiplicity = 1
 C                    -5.93031   1.42515   0.29213 
 N                    -4.71141   0.75503   0.21268 
 C                    -3.44278   1.31749   0.09149 
 O                    -3.24124   2.51571   0.0768 
 N                    -2.4468    0.39048   0.01763 
 C                    -1.06786   0.80918  -0.19724 
 C                    -0.11868  -0.35334   0.05378 
 C                     1.33371   0.05431  -0.16462 
 C                    -7.06825   0.64443   0.53439 
 C                    -8.30139   1.26104   0.60467 
 C                    -8.48164   2.62591   0.44755 
 C                    -7.33572   3.37013   0.20845 
 C                    -6.07031   2.80775   0.12665 
 H                    -4.75806  -0.24364   0.35749 
 H                    -2.67844  -0.56411  -0.21814 
 H                    -0.85658   1.63038   0.48963 
 H                    -0.93837   1.19719  -1.21418 
 H                    -0.37239  -1.18356  -0.61583 
 H                    -0.2607   -0.71459   1.07686 
 H                     1.49949   0.39724  -1.18906 
 H                     2.01026  -0.78228   0.01887 
 H                     1.61956   0.8666    0.50838 
 H                    -6.97554  -0.42713   0.66457 
 Cl                   -7.49327   5.09162  -0.00088 
 H                    -5.20676   3.42807  -0.05606 
 S                    -9.75674   0.23281   0.9187 
 H                    -9.45423   3.09442   0.50625 
 F                    -9.00867  -0.60528   2.08247 
 F                    -10.33254   1.25496   2.02702 
 F                    -9.29853  -0.87939  -0.16321 
 F                    -10.62358   0.97967  -0.21983 
 F                    -11.05084  -0.68385   1.19799 
 

 GradGradGradGradGradGradGradGradGradGradGradGradGradGradGradGradGradGrad
 Berny optimization.
 Initialization pass.
                           ----------------------------
                           !    Initial Parameters    !
                           ! (Angstroms and Degrees)  !
 --------------------------                            --------------------------
 ! Name  Definition              Value          Derivative Info.                !
 --------------------------------------------------------------------------------
 ! R1    R(1,2)                  1.3932         estimate D2E/DX2                !
 ! R2    R(1,9)                  1.4011         estimate D2E/DX2                !
 ! R3    R(1,13)                 1.3995         estimate D2E/DX2                !
 ! R4    R(2,3)                  1.393          estimate D2E/DX2                !
 ! R5    R(2,14)                 1.0102         estimate D2E/DX2                !
 ! R6    R(3,4)                  1.2151         estimate D2E/DX2                !
 ! R7    R(3,5)                  1.3626         estimate D2E/DX2                !
 ! R8    R(5,6)                  1.457          estimate D2E/DX2                !
 ! R9    R(5,15)                 1.0102         estimate D2E/DX2                !
 ! R10   R(6,7)                  1.5216         estimate D2E/DX2                !
 ! R11   R(6,16)                 1.0912         estimate D2E/DX2                !
 ! R12   R(6,17)                 1.0961         estimate D2E/DX2                !
 ! R13   R(7,8)                  1.5242         estimate D2E/DX2                !
 ! R14   R(7,18)                 1.0964         estimate D2E/DX2                !
 ! R15   R(7,19)                 1.0942         estimate D2E/DX2                !
 ! R16   R(8,20)                 1.093          estimate D2E/DX2                !
 ! R17   R(8,21)                 1.0915         estimate D2E/DX2                !
 ! R18   R(8,22)                 1.0929         estimate D2E/DX2                !
 ! R19   R(9,10)                 1.3805         estimate D2E/DX2                !
 ! R20   R(9,23)                 1.0834         estimate D2E/DX2                !
 ! R21   R(10,11)                1.3857         estimate D2E/DX2                !
 ! R22   R(10,26)                1.8094         estimate D2E/DX2                !
 ! R23   R(11,12)                1.3871         estimate D2E/DX2                !
 ! R24   R(11,27)                1.0811         estimate D2E/DX2                !
 ! R25   R(12,13)                1.3872         estimate D2E/DX2                !
 ! R26   R(12,24)                1.7413         estimate D2E/DX2                !
 ! R27   R(13,25)                1.0788         estimate D2E/DX2                !
 ! R28   R(26,28)                1.6175         estimate D2E/DX2                !
 ! R29   R(26,29)                1.6139         estimate D2E/DX2                !
 ! R30   R(26,30)                1.6179         estimate D2E/DX2                !
 ! R31   R(26,31)                1.6141         estimate D2E/DX2                !
 ! R32   R(26,32)                1.6103         estimate D2E/DX2                !
 ! A1    A(2,1,9)              116.8976         estimate D2E/DX2                !
 ! A2    A(2,1,13)             123.7767         estimate D2E/DX2                !
 ! A3    A(9,1,13)             119.3198         estimate D2E/DX2                !
 ! A4    A(1,2,3)              127.4098         estimate D2E/DX2                !
 ! A5    A(1,2,14)             115.272          estimate D2E/DX2                !
 ! A6    A(3,2,14)             116.9814         estimate D2E/DX2                !
 ! A7    A(2,3,4)              123.3844         estimate D2E/DX2                !
 ! A8    A(2,3,5)              113.3088         estimate D2E/DX2                !
 ! A9    A(4,3,5)              123.2947         estimate D2E/DX2                !
 ! A10   A(3,5,6)              120.2814         estimate D2E/DX2                !
 ! A11   A(3,5,15)             119.2034         estimate D2E/DX2                !
 ! A12   A(6,5,15)             117.0097         estimate D2E/DX2                !
 ! A13   A(5,6,7)              110.2725         estimate D2E/DX2                !
 ! A14   A(5,6,16)             107.8589         estimate D2E/DX2                !
 ! A15   A(5,6,17)             110.508          estimate D2E/DX2                !
 ! A16   A(7,6,16)             110.5072         estimate D2E/DX2                !
 ! A17   A(7,6,17)             110.475          estimate D2E/DX2                !
 ! A18   A(16,6,17)            107.1395         estimate D2E/DX2                !
 ! A19   A(6,7,8)              111.4948         estimate D2E/DX2                !
 ! A20   A(6,7,18)             109.4769         estimate D2E/DX2                !
 ! A21   A(6,7,19)             108.9957         estimate D2E/DX2                !
 ! A22   A(8,7,18)             109.6038         estimate D2E/DX2                !
 ! A23   A(8,7,19)             110.2386         estimate D2E/DX2                !
 ! A24   A(18,7,19)            106.9182         estimate D2E/DX2                !
 ! A25   A(7,8,20)             111.2686         estimate D2E/DX2                !
 ! A26   A(7,8,21)             111.1958         estimate D2E/DX2                !
 ! A27   A(7,8,22)             111.0859         estimate D2E/DX2                !
 ! A28   A(20,8,21)            107.7006         estimate D2E/DX2                !
 ! A29   A(20,8,22)            107.7171         estimate D2E/DX2                !
 ! A30   A(21,8,22)            107.7005         estimate D2E/DX2                !
 ! A31   A(1,9,10)             119.0383         estimate D2E/DX2                !
 ! A32   A(1,9,23)             120.1584         estimate D2E/DX2                !
 ! A33   A(10,9,23)            120.8034         estimate D2E/DX2                !
 ! A34   A(9,10,11)            123.3933         estimate D2E/DX2                !
 ! A35   A(9,10,26)            118.2605         estimate D2E/DX2                !
 ! A36   A(11,10,26)           118.3463         estimate D2E/DX2                !
 ! A37   A(10,11,12)           116.1387         estimate D2E/DX2                !
 ! A38   A(10,11,27)           122.5282         estimate D2E/DX2                !
 ! A39   A(12,11,27)           121.3331         estimate D2E/DX2                !
 ! A40   A(11,12,13)           123.1098         estimate D2E/DX2                !
 ! A41   A(11,12,24)           118.4492         estimate D2E/DX2                !
 ! A42   A(13,12,24)           118.441          estimate D2E/DX2                !
 ! A43   A(1,13,12)            119.0002         estimate D2E/DX2                !
 ! A44   A(1,13,25)            120.5305         estimate D2E/DX2                !
 ! A45   A(12,13,25)           120.4683         estimate D2E/DX2                !
 ! A46   A(10,26,28)            92.7128         estimate D2E/DX2                !
 ! A47   A(10,26,29)            92.6506         estimate D2E/DX2                !
 ! A48   A(10,26,30)            92.6823         estimate D2E/DX2                !
 ! A49   A(10,26,31)            92.6704         estimate D2E/DX2                !
 ! A50   A(28,26,29)            89.9466         estimate D2E/DX2                !
 ! A51   A(28,26,30)            89.6542         estimate D2E/DX2                !
 ! A52   A(28,26,32)            87.245          estimate D2E/DX2                !
 ! A53   A(29,26,31)            89.9849         estimate D2E/DX2                !
 ! A54   A(29,26,32)            87.4037         estimate D2E/DX2                !
 ! A55   A(30,26,31)            89.9136         estimate D2E/DX2                !
 ! A56   A(30,26,32)            87.2633         estimate D2E/DX2                !
 ! A57   A(31,26,32)            87.3717         estimate D2E/DX2                !
 ! A58   L(10,26,32,28,-1)     179.9578         estimate D2E/DX2                !
 ! A59   L(28,26,31,10,-1)     185.3831         estimate D2E/DX2                !
 ! A60   L(29,26,30,10,-1)     185.333          estimate D2E/DX2                !
 ! A61   L(10,26,32,28,-2)     180.0543         estimate D2E/DX2                !
 ! A62   L(28,26,31,10,-2)     179.8193         estimate D2E/DX2                !
 ! A63   L(29,26,30,10,-2)     179.8528         estimate D2E/DX2                !
 ! D1    D(9,1,2,3)           -174.2746         estimate D2E/DX2                !
 ! D2    D(9,1,2,14)            -1.1947         estimate D2E/DX2                !
 ! D3    D(13,1,2,3)             6.6246         estimate D2E/DX2                !
 ! D4    D(13,1,2,14)          179.7045         estimate D2E/DX2                !
 ! D5    D(2,1,9,10)          -179.1849         estimate D2E/DX2                !
 ! D6    D(2,1,9,23)             0.8569         estimate D2E/DX2                !
 ! D7    D(13,1,9,10)           -0.0421         estimate D2E/DX2                !
 ! D8    D(13,1,9,23)          179.9996         estimate D2E/DX2                !
 ! D9    D(2,1,13,12)          179.1414         estimate D2E/DX2                !
 ! D10   D(2,1,13,25)           -1.2116         estimate D2E/DX2                !
 ! D11   D(9,1,13,12)            0.0611         estimate D2E/DX2                !
 ! D12   D(9,1,13,25)          179.7081         estimate D2E/DX2                !
 ! D13   D(1,2,3,4)              2.1626         estimate D2E/DX2                !
 ! D14   D(1,2,3,5)           -179.0631         estimate D2E/DX2                !
 ! D15   D(14,2,3,4)          -170.8148         estimate D2E/DX2                !
 ! D16   D(14,2,3,5)             7.9595         estimate D2E/DX2                !
 ! D17   D(2,3,5,6)            176.0903         estimate D2E/DX2                !
 ! D18   D(2,3,5,15)            17.8328         estimate D2E/DX2                !
 ! D19   D(4,3,5,6)             -5.1341         estimate D2E/DX2                !
 ! D20   D(4,3,5,15)          -163.3917         estimate D2E/DX2                !
 ! D21   D(3,5,6,7)            167.8855         estimate D2E/DX2                !
 ! D22   D(3,5,6,16)            47.1302         estimate D2E/DX2                !
 ! D23   D(3,5,6,17)           -69.6831         estimate D2E/DX2                !
 ! D24   D(15,5,6,7)           -33.395          estimate D2E/DX2                !
 ! D25   D(15,5,6,16)         -154.1504         estimate D2E/DX2                !
 ! D26   D(15,5,6,17)           89.0363         estimate D2E/DX2                !
 ! D27   D(5,6,7,8)            179.9511         estimate D2E/DX2                !
 ! D28   D(5,6,7,18)            58.501          estimate D2E/DX2                !
 ! D29   D(5,6,7,19)           -58.1269         estimate D2E/DX2                !
 ! D30   D(16,6,7,8)           -60.8924         estimate D2E/DX2                !
 ! D31   D(16,6,7,18)          177.6575         estimate D2E/DX2                !
 ! D32   D(16,6,7,19)           61.0296         estimate D2E/DX2                !
 ! D33   D(17,6,7,8)            57.5003         estimate D2E/DX2                !
 ! D34   D(17,6,7,18)          -63.9497         estimate D2E/DX2                !
 ! D35   D(17,6,7,19)          179.4224         estimate D2E/DX2                !
 ! D36   D(6,7,8,20)           -60.0694         estimate D2E/DX2                !
 ! D37   D(6,7,8,21)           179.872          estimate D2E/DX2                !
 ! D38   D(6,7,8,22)            59.9361         estimate D2E/DX2                !
 ! D39   D(18,7,8,20)           61.3069         estimate D2E/DX2                !
 ! D40   D(18,7,8,21)          -58.7517         estimate D2E/DX2                !
 ! D41   D(18,7,8,22)         -178.6876         estimate D2E/DX2                !
 ! D42   D(19,7,8,20)          178.7296         estimate D2E/DX2                !
 ! D43   D(19,7,8,21)           58.671          estimate D2E/DX2                !
 ! D44   D(19,7,8,22)          -61.2649         estimate D2E/DX2                !
 ! D45   D(1,9,10,11)           -0.0087         estimate D2E/DX2                !
 ! D46   D(1,9,10,26)         -179.9899         estimate D2E/DX2                !
 ! D47   D(23,9,10,11)         179.9493         estimate D2E/DX2                !
 ! D48   D(23,9,10,26)          -0.0319         estimate D2E/DX2                !
 ! D49   D(9,10,11,12)           0.0381         estimate D2E/DX2                !
 ! D50   D(9,10,11,27)        -179.9422         estimate D2E/DX2                !
 ! D51   D(26,10,11,12)       -179.9807         estimate D2E/DX2                !
 ! D52   D(26,10,11,27)          0.0389         estimate D2E/DX2                !
 ! D53   D(9,10,26,28)          44.2396         estimate D2E/DX2                !
 ! D54   D(9,10,26,29)         134.3117         estimate D2E/DX2                !
 ! D55   D(9,10,26,30)         -45.5411         estimate D2E/DX2                !
 ! D56   D(9,10,26,31)        -135.5797         estimate D2E/DX2                !
 ! D57   D(11,10,26,28)       -135.7426         estimate D2E/DX2                !
 ! D58   D(11,10,26,29)        -45.6704         estimate D2E/DX2                !
 ! D59   D(11,10,26,30)        134.4768         estimate D2E/DX2                !
 ! D60   D(11,10,26,31)         44.4382         estimate D2E/DX2                !
 ! D61   D(10,11,12,13)         -0.0176         estimate D2E/DX2                !
 ! D62   D(10,11,12,24)        179.9058         estimate D2E/DX2                !
 ! D63   D(27,11,12,13)        179.963          estimate D2E/DX2                !
 ! D64   D(27,11,12,24)         -0.1136         estimate D2E/DX2                !
 ! D65   D(11,12,13,1)          -0.0314         estimate D2E/DX2                !
 ! D66   D(11,12,13,25)       -179.6786         estimate D2E/DX2                !
 ! D67   D(24,12,13,1)        -179.9547         estimate D2E/DX2                !
 ! D68   D(24,12,13,25)          0.398          estimate D2E/DX2                !
 --------------------------------------------------------------------------------
 Trust Radius=3.00D-01 FncErr=1.00D-07 GrdErr=1.00D-06
 Number of steps in this run=    173 maximum allowed number of steps=    192.
 GradGradGradGradGradGradGradGradGradGradGradGradGradGradGradGradGradGrad

                          Input orientation:                          
 ---------------------------------------------------------------------
 Center     Atomic      Atomic             Coordinates (Angstroms)
 Number     Number       Type             X           Y           Z
 ---------------------------------------------------------------------
      1          6           0       -5.930306    1.425150    0.292125
      2          7           0       -4.711407    0.755031    0.212675
      3          6           0       -3.442783    1.317490    0.091494
      4          8           0       -3.241242    2.515706    0.076801
      5          7           0       -2.446802    0.390482    0.017626
      6          6           0       -1.067863    0.809178   -0.197236
      7          6           0       -0.118680   -0.353342    0.053781
      8          6           0        1.333712    0.054314   -0.164617
      9          6           0       -7.068252    0.644430    0.534394
     10          6           0       -8.301393    1.261041    0.604665
     11          6           0       -8.481643    2.625906    0.447553
     12          6           0       -7.335717    3.370127    0.208447
     13          6           0       -6.070309    2.807746    0.126654
     14          1           0       -4.758062   -0.243643    0.357495
     15          1           0       -2.678441   -0.564114   -0.218139
     16          1           0       -0.856579    1.630384    0.489627
     17          1           0       -0.938372    1.197193   -1.214176
     18          1           0       -0.372388   -1.183563   -0.615830
     19          1           0       -0.260700   -0.714594    1.076864
     20          1           0        1.499488    0.397235   -1.189060
     21          1           0        2.010260   -0.782277    0.018865
     22          1           0        1.619562    0.866601    0.508378
     23          1           0       -6.975542   -0.427133    0.664566
     24         17           0       -7.493271    5.091617   -0.000882
     25          1           0       -5.206757    3.428067   -0.056065
     26         16           0       -9.756735    0.232811    0.918703
     27          1           0       -9.454234    3.094423    0.506250
     28          9           0       -9.008668   -0.605275    2.082470
     29          9           0      -10.332543    1.254960    2.027024
     30          9           0       -9.298533   -0.879387   -0.163208
     31          9           0      -10.623581    0.979671   -0.219825
     32          9           0      -11.050838   -0.683854    1.197990
 ---------------------------------------------------------------------
                    Distance matrix (angstroms):
                    1          2          3          4          5
     1  C    0.000000
     2  N    1.393229   0.000000
     3  C    2.497923   1.393001   0.000000
     4  O    2.909767   2.297787   1.215137   0.000000
     5  N    3.644268   2.302037   1.362636   2.269628   0.000000
     6  C    4.925673   3.666929   2.445811   2.776852   1.457033
     7  C    6.082339   4.727248   3.720586   4.240561   2.444327
     8  C    7.406332   6.097279   4.947333   5.200666   3.799803
     9  C    1.401120   2.381272   3.713920   4.284516   4.657182
    10  C    2.397221   3.646602   4.885963   5.240034   5.948002
    11  C    2.824056   4.215451   5.218127   5.254656   6.449905
    12  C    2.401066   3.704828   4.402492   4.184745   5.728541
    13  C    1.399484   2.463262   3.020927   2.844538   4.357162
    14  H    2.040417   1.010198   2.058604   3.161256   2.420651
    15  H    3.846059   2.461442   2.054391   3.144682   1.010196
    16  H    5.081716   3.962656   2.635310   2.576982   2.070977
    17  H    5.219225   4.057980   2.826891   2.950984   2.107955
    18  H    6.206466   4.824070   4.022797   4.732298   2.679940
    19  H    6.110544   4.766068   3.902046   4.507614   2.668748
    20  H    7.645414   6.377154   5.187747   5.344608   4.126661
    21  H    8.246211   6.897947   5.843797   6.201477   4.608770
    22  H    7.573589   6.338853   5.099454   5.151041   4.123450
    23  H    2.159208   2.593843   3.981521   4.790696   4.647205
    24  Cl   3.996460   5.156584   5.537060   4.972033   6.896946
    25  H    2.157878   2.731797   2.754617   2.171015   4.104839
    26  S    4.056579   5.121184   6.459629   6.955003   7.366948
    27  H    3.905174   5.296541   6.282281   6.254647   7.526895
    28  F    4.099301   4.879859   6.216116   6.857583   6.950770
    29  F    4.734821   5.927813   7.156744   7.461864   8.183515
    30  F    4.106479   4.884090   6.259469   6.948024   6.970760
    31  F    4.742085   5.932228   7.195478   7.546278   8.201417
    32  F    5.611447   6.574924   7.944320   8.513757   8.750823
                    6          7          8          9         10
     6  C    0.000000
     7  C    1.521648   0.000000
     8  C    2.517627   1.524245   0.000000
     9  C    6.047073   7.037264   8.451618   0.000000
    10  C    7.291858   8.358619   9.740802   1.380502   0.000000
    11  C    7.660313   8.886514  10.165089   2.435460   1.385652
    12  C    6.782996   8.122424   9.289391   2.758116   2.353246
    13  C    5.396633   6.739413   7.904793   2.417039   2.756543
    14  H    3.877335   4.650606   6.121363   2.481320   3.857508
    15  H    2.116679   2.582778   4.059887   4.614903   5.968735
    16  H    1.091238   2.160931   2.776581   6.289594   7.454858
    17  H    1.096124   2.164202   2.751383   6.398318   7.584612
    18  H    2.151725   1.096363   2.155622   7.035565   8.386586
    19  H    2.143997   1.094244   2.162092   6.963044   8.293301
    20  H    2.782930   2.174049   1.092959   8.742858  10.001044
    21  H    3.471926   2.172001   1.091452   9.204382  10.528462
    22  H    2.779108   2.171728   1.092906   8.690694   9.929260
    23  H    6.096871   6.884407   8.364390   1.083414   2.147417
    24  Cl   7.724229   9.167070  10.164490   4.499404   3.961446
    25  H    4.899893   6.340319   7.360144   3.400359   3.835276
    26  S    8.779181   9.694523  11.144660   2.746828   1.809391
    27  H    8.720576   9.962147  11.228183   3.419966   2.167952
    28  F    8.381774   9.122003  10.604210   2.779122   2.483401
    29  F    9.538363  10.526316  11.930899   3.640919   2.479659
    30  F    8.402163   9.197473  10.673164   2.789770   2.483012
    31  F    9.557266  10.592673  11.993172   3.649876   2.480223
    32  F   10.189976  10.996842  12.481132   4.250376   3.419664
                   11         12         13         14         15
    11  C    0.000000
    12  C    1.387150   0.000000
    13  C    2.439380   1.387162   0.000000
    14  H    4.701860   4.441380   3.329604   0.000000
    15  H    6.655564   6.111502   4.795112   2.181486   0.000000
    16  H    7.689892   6.714536   5.357324   4.330243   2.938696
    17  H    7.855158   6.904456   5.543328   4.374492   2.668732
    18  H    9.022354   8.360830   6.996295   4.589656   2.420693
    19  H    8.896003   8.215531   6.860127   4.578815   2.746842
    20  H   10.357048   9.426131   8.052546   6.477614   4.395676
    21  H   11.039906  10.228669   8.842821   6.798160   4.699753
    22  H   10.253449   9.303474   7.940270   6.475299   4.587766
    23  H    3.411229   3.841478   3.401946   2.246148   4.388965
    24  Cl   2.694012   1.741312   2.693910   6.006230   7.430820
    25  H    3.409101   2.146111   1.078845   3.722071   4.728230
    26  S    2.752226   4.025984   4.565892   5.052593   7.213165
    27  H    1.081150   2.157038   3.417195   5.763579   7.734404
    28  F    3.659405   4.702612   4.909978   4.601519   6.735449
    29  F    2.792857   4.094157   4.918251   6.008992   8.181386
    30  F    3.650674   4.695652   4.909216   4.614237   6.627823
    31  F    2.782693   4.087511   4.918759   6.019478   8.093734
    32  F    4.256575   5.587136   6.176140   6.363903   8.492161
                   16         17         18         19         20
    16  H    0.000000
    17  H    1.759911   0.000000
    18  H    3.061825   2.519197   0.000000
    19  H    2.489746   3.059906   1.760005   0.000000
    20  H    3.144788   2.565877   2.516234   3.077147   0.000000
    21  H    3.776415   3.759404   2.498175   2.506233   1.763865
    22  H    2.591330   3.101534   3.071624   2.521654   1.765224
    23  H    6.457993   6.528056   6.768548   6.733626   8.714450
    24  Cl   7.501094   7.720448   9.511205   9.337221  10.213653
    25  H    4.738511   4.953496   6.704595   6.550468   7.446028
    26  S    9.019429   9.123745   9.613890   9.544489  11.453046
    27  H    8.721430   8.892651  10.101492   9.967711  11.407581
    28  F    8.601853   8.902047   9.066454   8.806255  11.051211
    29  F    9.607207   9.937764  10.589418  10.306501  12.291291
    30  F    8.831292   8.678076   8.942788   9.123999  10.921510
    31  F    9.814330   9.738548  10.484434  10.580228  12.175690
    32  F   10.477614  10.564982  10.842922  10.790862  12.820977
                   21         22         23         24         25
    21  H    0.000000
    22  H    1.763821   0.000000
    23  H    9.015969   8.693328   0.000000
    24  Cl  11.172293  10.057527   5.582783   0.000000
    25  H    8.355713   7.312888   4.302380   2.828178   0.000000
    26  S   11.844927  11.401324   2.869695   5.438465   5.644655
    27  H   12.112017  11.295669   4.309331   2.844528   4.297508
    28  F   11.211894  10.844513   2.485113   6.252308   5.941019
    29  F   12.669958  12.054457   3.994395   5.185923   5.944353
    30  F   11.310675  11.077197   2.507196   6.240048   5.942076
    31  F   12.758345  12.265301   4.008670   5.172511   5.946717
    32  F   13.114584  12.783526   4.118069   6.888370   7.254918
                   26         27         28         29         30
    26  S    0.000000
    27  H    2.906965   0.000000
    28  F    1.617513   4.046080   0.000000
    29  F    1.613914   2.543188   2.283899   0.000000
    30  F    1.617858   4.032813   2.280839   3.228270   0.000000
    31  F    1.614147   2.523238   3.228090   2.282283   2.283650
    32  F    1.610273   4.159691   2.226868   2.227610   2.227480
                   31         32
    31  F    0.000000
    32  F    2.227121   0.000000
 Stoichiometry    C10H12ClF5N2OS
 Framework group  C1[X(C10H12ClF5N2OS)]
 Deg. of freedom    90
 Full point group                 C1      NOp   1
 Largest Abelian subgroup         C1      NOp   1
 Largest concise Abelian subgroup C1      NOp   1
                         Standard orientation:                         
 ---------------------------------------------------------------------
 Center     Atomic      Atomic             Coordinates (Angstroms)
 Number     Number       Type             X           Y           Z
 ---------------------------------------------------------------------
      1          6           0        0.574406    0.226362   -0.046742
      2          7           0        1.807455   -0.420892   -0.088452
      3          6           0        3.070993    0.158945   -0.000635
      4          8           0        3.250360    1.349066    0.166687
      5          7           0        4.086602   -0.744663   -0.094480
      6          6           0        5.472143   -0.294033   -0.106832
      7          6           0        6.412437   -1.475226    0.083015
      8          6           0        7.871602   -1.034699    0.073323
      9          6           0       -0.567425   -0.585494   -0.030965
     10          6           0       -1.812692    0.009922   -0.006964
     11          6           0       -2.001631    1.382598    0.002738
     12          6           0       -0.851497    2.157902   -0.013994
     13          6           0        0.426016    1.617934   -0.038719
     14          1           0        1.765072   -1.430193   -0.084663
     15          1           0        3.898311   -1.659624   -0.479042
     16          1           0        5.596592    0.427550    0.702261
     17          1           0        5.697572    0.228815   -1.043475
     18          1           0        6.244200   -2.208284   -0.714691
     19          1           0        6.173414   -1.972451    1.028005
     20          1           0        8.134737   -0.555335   -0.873002
     21          1           0        8.541498   -1.885144    0.212067
     22          1           0        8.071800   -0.319711    0.875293
     23          1           0       -0.468327   -1.664350   -0.036926
     24         17           0       -1.019248    3.891094   -0.005513
     25          1           0        1.291877    2.261472   -0.045836
     26         16           0       -3.272872   -1.058423    0.013354
     27          1           0       -2.983783    1.834118    0.022502
     28          9           0       -2.632022   -2.042824    1.125385
     29          9           0       -3.978121   -0.198674    1.183044
     30          9           0       -2.685594   -2.011538   -1.154610
     31          9           0       -4.032717   -0.168401   -1.098385
     32          9           0       -4.571236   -2.010742    0.031146
 ---------------------------------------------------------------------
 Rotational constants (GHZ):      0.4485905      0.1151850      0.0952783
 Standard basis: 6-311+G(d) (5D, 7F)
 There are   512 symmetry adapted cartesian basis functions of A   symmetry.
 There are   492 symmetry adapted basis functions of A   symmetry.
   492 basis functions,   811 primitive gaussians,   512 cartesian basis functions
    86 alpha electrons       86 beta electrons
       nuclear repulsion energy      1999.8536919049 Hartrees.
 NAtoms=   32 NActive=   32 NUniq=   32 SFac= 1.00D+00 NAtFMM=   60 NAOKFM=F Big=F
 Integral buffers will be    131072 words long.
 Raffenetti 2 integral format.
 Two-electron integral symmetry is turned on.
 Nuclear repulsion after empirical dispersion term =     1999.8520869080 Hartrees.
 ------------------------------------------------------------------------------
 Polarizable Continuum Model (PCM)
 =================================
 Model                : PCM (using non-symmetric T matrix).
 Atomic radii         : SMD-Coulomb.
 Polarization charges : Total charges.
 Charge compensation  : None.
 Solution method      : On-the-fly selection.
 Cavity type          : VdW (van der Waals Surface) (Alpha=1.000).
 Cavity algorithm     : GePol (No added spheres)
                        Default sphere list used, NSphG=   32.
                        Lebedev-Laikov grids with approx.  5.0 points / Ang**2.
                        Smoothing algorithm: York/Karplus (Gamma=1.0000).
                        Polarization charges: spherical gaussians, with
                                              point-specific exponents (IZeta= 3).
                        Self-potential: point-specific (ISelfS= 7).
                        Self-field    : sphere-specific E.n sum rule (ISelfD= 2).
 1st derivatives      : Analytical E(r).r(x)/FMM algorithm (CHGder, D1EAlg=3).
                        Cavity 1st derivative terms included.
 Solvent              : n-Pentadecane, Eps=   2.033300 Eps(inf)=   2.049192
 ------------------------------------------------------------------------------
 ------------------------------------------------------------------------------
 Atomic radii for non-electrostatic terms: SMD-CDS.
 ------------------------------------------------------------------------------
 Nuclear repulsion after PCM non-electrostatic terms =     1999.8458661380 Hartrees.
 One-electron integrals computed using PRISM.
 NBasis=   492 RedAO= T EigKep=  1.39D-06  NBF=   492
 NBsUse=   490 1.00D-06 EigRej=  6.44D-07 NBFU=   490
 ExpMin= 4.05D-02 ExpMax= 1.06D+05 ExpMxC= 3.62D+03 IAcc=3 IRadAn=         5 AccDes= 0.00D+00
 Harris functional with IExCor= 1009 and IRadAn=       5 diagonalized for initial guess.
 HarFok:  IExCor= 1009 AccDes= 0.00D+00 IRadAn=         5 IDoV= 1 UseB2=F ITyADJ=14
 ICtDFT=  3500011 ScaDFX=  1.000000  1.000000  1.000000  1.000000
 FoFCou: FMM=F IPFlag=           0 FMFlag=      100000 FMFlg1=           0
         NFxFlg=           0 DoJE=T BraDBF=F KetDBF=T FulRan=T
         wScrn=  0.000000 ICntrl=     500 IOpCl=  0 I1Cent=   200000004 NGrid=           0
         NMat0=    1 NMatS0=      1 NMatT0=    0 NMatD0=    1 NMtDS0=    0 NMtDT0=    0
 Petite list used in FoFCou.
 Requested convergence on RMS density matrix=1.00D-08 within 128 cycles.
 Requested convergence on MAX density matrix=1.00D-06.
 Requested convergence on             energy=1.00D-06.
 No special actions if energy rises.
 Inv3:  Mode=1 IEnd=    21386700.
 Iteration    1 A*A^-1 deviation from unit magnitude is 4.66D-15 for    675.
 Iteration    1 A*A^-1 deviation from orthogonality  is 3.46D-15 for   2631    512.
 Iteration    1 A^-1*A deviation from unit magnitude is 3.55D-15 for   2631.
 Iteration    1 A^-1*A deviation from orthogonality  is 3.50D-15 for   1871   1854.
 Error on total polarization charges =  0.01780
 SCF Done:  E(RM062X) =  -1930.43240694     A.U. after   15 cycles
            NFock= 15  Conv=0.50D-08     -V/T= 2.0024
 SMD-CDS (non-electrostatic) energy       (kcal/mol) =      -3.90
 (included in total energy above)

 **********************************************************************

            Population analysis using the SCF density.

 **********************************************************************

 Orbital symmetries:
       Occupied  (A) (A) (A) (A) (A) (A) (A) (A) (A) (A) (A) (A)
                 (A) (A) (A) (A) (A) (A) (A) (A) (A) (A) (A) (A)
                 (A) (A) (A) (A) (A) (A) (A) (A) (A) (A) (A) (A)
                 (A) (A) (A) (A) (A) (A) (A) (A) (A) (A) (A) (A)
                 (A) (A) (A) (A) (A) (A) (A) (A) (A) (A) (A) (A)
                 (A) (A) (A) (A) (A) (A) (A) (A) (A) (A) (A) (A)
                 (A) (A) (A) (A) (A) (A) (A) (A) (A) (A) (A) (A)
                 (A) (A)
       Virtual   (A) (A) (A) (A) (A) (A) (A) (A) (A) (A) (A) (A)
                 (A) (A) (A) (A) (A) (A) (A) (A) (A) (A) (A) (A)
                 (A) (A) (A) (A) (A) (A) (A) (A) (A) (A) (A) (A)
                 (A) (A) (A) (A) (A) (A) (A) (A) (A) (A) (A) (A)
                 (A) (A) (A) (A) (A) (A) (A) (A) (A) (A) (A) (A)
                 (A) (A) (A) (A) (A) (A) (A) (A) (A) (A) (A) (A)
                 (A) (A) (A) (A) (A) (A) (A) (A) (A) (A) (A) (A)
                 (A) (A) (A) (A) (A) (A) (A) (A) (A) (A) (A) (A)
                 (A) (A) (A) (A) (A) (A) (A) (A) (A) (A) (A) (A)
                 (A) (A) (A) (A) (A) (A) (A) (A) (A) (A) (A) (A)
                 (A) (A) (A) (A) (A) (A) (A) (A) (A) (A) (A) (A)
                 (A) (A) (A) (A) (A) (A) (A) (A) (A) (A) (A) (A)
                 (A) (A) (A) (A) (A) (A) (A) (A) (A) (A) (A) (A)
                 (A) (A) (A) (A) (A) (A) (A) (A) (A) (A) (A) (A)
                 (A) (A) (A) (A) (A) (A) (A) (A) (A) (A) (A) (A)
                 (A) (A) (A) (A) (A) (A) (A) (A) (A) (A) (A) (A)
                 (A) (A) (A) (A) (A) (A) (A) (A) (A) (A) (A) (A)
                 (A) (A) (A) (A) (A) (A) (A) (A) (A) (A) (A) (A)
                 (A) (A) (A) (A) (A) (A) (A) (A) (A) (A) (A) (A)
                 (A) (A) (A) (A) (A) (A) (A) (A) (A) (A) (A) (A)
                 (A) (A) (A) (A) (A) (A) (A) (A) (A) (A) (A) (A)
                 (A) (A) (A) (A) (A) (A) (A) (A) (A) (A) (A) (A)
                 (A) (A) (A) (A) (A) (A) (A) (A) (A) (A) (A) (A)
                 (A) (A) (A) (A) (A) (A) (A) (A) (A) (A) (A) (A)
                 (A) (A) (A) (A) (A) (A) (A) (A) (A) (A) (A) (A)
                 (A) (A) (A) (A) (A) (A) (A) (A) (A) (A) (A) (A)
                 (A) (A) (A) (A) (A) (A) (A) (A) (A) (A) (A) (A)
                 (A) (A) (A) (A) (A) (A) (A) (A) (A) (A) (A) (A)
                 (A) (A) (A) (A) (A) (A) (A) (A) (A) (A) (A) (A)
                 (A) (A) (A) (A) (A) (A) (A) (A) (A) (A) (A) (A)
                 (A) (A) (A) (A) (A) (A) (A) (A) (A) (A) (A) (A)
                 (A) (A) (A) (A) (A) (A) (A) (A) (A) (A) (A) (A)
                 (A) (A) (A) (A) (A) (A) (A) (A) (A) (A) (A) (A)
                 (A) (A) (A) (A) (A) (A) (A) (A)
 The electronic state is 1-A.
 Alpha  occ. eigenvalues -- -102.68779 -90.28754 -25.29152 -25.29149 -25.29145
 Alpha  occ. eigenvalues --  -25.29143 -25.28995 -19.60284 -14.80467 -14.78055
 Alpha  occ. eigenvalues --  -10.69099 -10.63134 -10.63037 -10.61955 -10.58485
 Alpha  occ. eigenvalues --  -10.58189 -10.57667 -10.57105 -10.54469 -10.53004
 Alpha  occ. eigenvalues --   -9.83047  -8.61064  -7.55563  -7.54882  -7.54867
 Alpha  occ. eigenvalues --   -6.53492  -6.53481  -6.53037  -1.51028  -1.40953
 Alpha  occ. eigenvalues --   -1.40870  -1.37922  -1.36458  -1.19704  -1.08237
 Alpha  occ. eigenvalues --   -1.04722  -1.02013  -0.97861  -0.93574  -0.89557
 Alpha  occ. eigenvalues --   -0.87234  -0.86009  -0.79485  -0.76945  -0.74814
 Alpha  occ. eigenvalues --   -0.74440  -0.73109  -0.70896  -0.69697  -0.67065
 Alpha  occ. eigenvalues --   -0.65529  -0.64835  -0.63013  -0.62481  -0.61657
 Alpha  occ. eigenvalues --   -0.60033  -0.59010  -0.57057  -0.56372  -0.56204
 Alpha  occ. eigenvalues --   -0.56096  -0.56072  -0.55810  -0.54733  -0.53810
 Alpha  occ. eigenvalues --   -0.53222  -0.53159  -0.52292  -0.52090  -0.51802
 Alpha  occ. eigenvalues --   -0.50051  -0.49807  -0.48051  -0.47454  -0.46663
 Alpha  occ. eigenvalues --   -0.45045  -0.43528  -0.43308  -0.41325  -0.40635
 Alpha  occ. eigenvalues --   -0.39546  -0.39192  -0.36472  -0.33886  -0.32788
 Alpha  occ. eigenvalues --   -0.29579
 Alpha virt. eigenvalues --   -0.02668  -0.02327  -0.00674  -0.00323   0.01786
 Alpha virt. eigenvalues --    0.01951   0.02846   0.03224   0.03587   0.04157
 Alpha virt. eigenvalues --    0.04354   0.04792   0.04884   0.05294   0.05885
 Alpha virt. eigenvalues --    0.06318   0.06702   0.06974   0.07374   0.07871
 Alpha virt. eigenvalues --    0.08528   0.08598   0.09028   0.09213   0.09841
 Alpha virt. eigenvalues --    0.10812   0.11089   0.11275   0.11734   0.11743
 Alpha virt. eigenvalues --    0.12446   0.12710   0.13053   0.13413   0.13771
 Alpha virt. eigenvalues --    0.14148   0.14799   0.15363   0.15853   0.16331
 Alpha virt. eigenvalues --    0.17547   0.17690   0.18100   0.18389   0.18778
 Alpha virt. eigenvalues --    0.19400   0.19899   0.20159   0.20266   0.20633
 Alpha virt. eigenvalues --    0.21377   0.21458   0.22043   0.22055   0.22642
 Alpha virt. eigenvalues --    0.22922   0.23344   0.23720   0.24067   0.24581
 Alpha virt. eigenvalues --    0.24872   0.24990   0.25412   0.26380   0.26570
 Alpha virt. eigenvalues --    0.26772   0.27108   0.27678   0.27960   0.28275
 Alpha virt. eigenvalues --    0.28420   0.28840   0.29481   0.29811   0.30067
 Alpha virt. eigenvalues --    0.30778   0.31007   0.31324   0.31854   0.32109
 Alpha virt. eigenvalues --    0.32673   0.33474   0.33837   0.34027   0.34721
 Alpha virt. eigenvalues --    0.34929   0.35641   0.35825   0.36387   0.37063
 Alpha virt. eigenvalues --    0.37551   0.38043   0.38742   0.38966   0.39084
 Alpha virt. eigenvalues --    0.40198   0.41114   0.41228   0.42674   0.43430
 Alpha virt. eigenvalues --    0.44087   0.44639   0.45078   0.45957   0.46504
 Alpha virt. eigenvalues --    0.47214   0.48091   0.48275   0.48566   0.48725
 Alpha virt. eigenvalues --    0.49014   0.49982   0.50711   0.51055   0.52181
 Alpha virt. eigenvalues --    0.52482   0.53996   0.55463   0.55989   0.56303
 Alpha virt. eigenvalues --    0.57467   0.58017   0.58977   0.59802   0.60257
 Alpha virt. eigenvalues --    0.61302   0.61633   0.62469   0.63514   0.63900
 Alpha virt. eigenvalues --    0.64462   0.65107   0.66192   0.66836   0.67352
 Alpha virt. eigenvalues --    0.68134   0.69211   0.69339   0.70751   0.71021
 Alpha virt. eigenvalues --    0.71526   0.71897   0.72422   0.73140   0.73692
 Alpha virt. eigenvalues --    0.74763   0.75288   0.76086   0.76315   0.76966
 Alpha virt. eigenvalues --    0.77569   0.78249   0.79629   0.80336   0.81515
 Alpha virt. eigenvalues --    0.84269   0.85510   0.85996   0.87377   0.88798
 Alpha virt. eigenvalues --    0.90468   0.91303   0.91957   0.92274   0.93357
 Alpha virt. eigenvalues --    0.93804   0.94625   0.95128   0.96072   0.97052
 Alpha virt. eigenvalues --    0.99276   0.99538   0.99799   1.01643   1.03068
 Alpha virt. eigenvalues --    1.03758   1.05583   1.06196   1.06723   1.07985
 Alpha virt. eigenvalues --    1.08800   1.11288   1.11495   1.14706   1.17123
 Alpha virt. eigenvalues --    1.18415   1.20406   1.21255   1.21795   1.23461
 Alpha virt. eigenvalues --    1.23827   1.25525   1.26166   1.26544   1.27761
 Alpha virt. eigenvalues --    1.30440   1.32706   1.33365   1.33777   1.35507
 Alpha virt. eigenvalues --    1.36239   1.37683   1.38404   1.39155   1.41891
 Alpha virt. eigenvalues --    1.42764   1.44002   1.44649   1.45806   1.48473
 Alpha virt. eigenvalues --    1.49101   1.49896   1.51472   1.51852   1.53582
 Alpha virt. eigenvalues --    1.53876   1.54369   1.54690   1.56202   1.58269
 Alpha virt. eigenvalues --    1.60051   1.61328   1.62651   1.62918   1.63470
 Alpha virt. eigenvalues --    1.66392   1.67421   1.68061   1.69837   1.72053
 Alpha virt. eigenvalues --    1.74745   1.75908   1.76508   1.76836   1.78298
 Alpha virt. eigenvalues --    1.79096   1.83430   1.84347   1.85475   1.87393
 Alpha virt. eigenvalues --    1.88721   1.89400   1.90779   1.92251   1.93614
 Alpha virt. eigenvalues --    1.95418   1.96542   1.98186   2.00408   2.02448
 Alpha virt. eigenvalues --    2.05478   2.06106   2.06678   2.07209   2.10853
 Alpha virt. eigenvalues --    2.11942   2.14369   2.15925   2.20439   2.22484
 Alpha virt. eigenvalues --    2.24670   2.24982   2.27161   2.30122   2.31153
 Alpha virt. eigenvalues --    2.32618   2.34347   2.37449   2.38350   2.40109
 Alpha virt. eigenvalues --    2.44589   2.46439   2.49958   2.53226   2.54468
 Alpha virt. eigenvalues --    2.55355   2.56645   2.58525   2.59575   2.59707
 Alpha virt. eigenvalues --    2.62368   2.64625   2.65413   2.67825   2.72080
 Alpha virt. eigenvalues --    2.72946   2.75496   2.78929   2.82230   2.84233
 Alpha virt. eigenvalues --    2.85053   2.87157   2.91862   2.94413   2.94625
 Alpha virt. eigenvalues --    2.98764   3.00600   3.01802   3.05718   3.10694
 Alpha virt. eigenvalues --    3.11388   3.14739   3.17948   3.23343   3.24897
 Alpha virt. eigenvalues --    3.25837   3.27721   3.28547   3.31033   3.34702
 Alpha virt. eigenvalues --    3.36534   3.40252   3.41807   3.43387   3.45928
 Alpha virt. eigenvalues --    3.56301   3.61355   3.65927   3.68614   3.71569
 Alpha virt. eigenvalues --    3.78450   3.78877   3.79361   3.79852   3.80247
 Alpha virt. eigenvalues --    3.80679   3.82538   3.83097   3.83303   3.83618
 Alpha virt. eigenvalues --    3.84100   3.85227   3.86200   3.88045   3.88320
 Alpha virt. eigenvalues --    3.88850   3.90560   3.91059   3.91355   3.93794
 Alpha virt. eigenvalues --    3.97503   3.98176   3.99863   4.01773   4.03113
 Alpha virt. eigenvalues --    4.05986   4.07487   4.10559   4.27557   4.29354
 Alpha virt. eigenvalues --    4.30094   4.32865   4.37434   4.53840   4.58117
 Alpha virt. eigenvalues --    4.77763   4.88460   5.17949   5.19801   5.41620
 Alpha virt. eigenvalues --    5.89984   6.35080   6.36709   6.38059   6.40750
 Alpha virt. eigenvalues --    6.42038   6.43362   6.47058   6.52305   6.52495
 Alpha virt. eigenvalues --    6.53913   6.55171   6.63261   6.64482   6.64902
 Alpha virt. eigenvalues --    6.70142   8.22268   9.96465  17.50984  17.55528
 Alpha virt. eigenvalues --   17.60758  23.46449  23.58045  23.73353  23.80491
 Alpha virt. eigenvalues --   23.91388  23.93493  23.96567  24.07952  24.10620
 Alpha virt. eigenvalues --   24.19202  25.93482  26.24016  26.71445  35.58471
 Alpha virt. eigenvalues --   35.68579  50.13813  66.88991  66.90993  66.96170
 Alpha virt. eigenvalues --   66.98116  67.06669 189.46159 216.06530
          Condensed to atoms (all electrons):
               1          2          3          4          5          6
     1  C   43.365421  -0.756762  -1.197066  -0.334891  -0.080286  -0.878152
     2  N   -0.756762   8.157951   0.211394  -0.079214  -0.801837  -0.519891
     3  C   -1.197066   0.211394   9.582981   0.655478   0.025011  -1.131227
     4  O   -0.334891  -0.079214   0.655478   8.089028  -0.178631  -0.097021
     5  N   -0.080286  -0.801837   0.025011  -0.178631   7.934528   0.746760
     6  C   -0.878152  -0.519891  -1.131227  -0.097021   0.746760   8.683944
     7  C   -0.005961   0.045242   0.273818   0.012660  -0.171397  -0.929683
     8  C   -0.018871  -0.011678  -0.225050  -0.001489   0.009980   0.387394
     9  C  -10.551603   0.898257  -2.534529  -0.198792  -0.699300  -0.573417
    10  C   -4.943231   0.293024  -1.669458   0.033376   0.093319  -0.096827
    11  C  -13.510979   0.137564  -0.246728  -0.041676  -0.081777  -0.034279
    12  C   -4.958504  -0.019695   0.622085   0.149955   0.138245   0.132717
    13  C    1.881515  -0.459536   1.344890   0.357379   0.190513   0.304948
    14  H    0.077173   0.214586   0.002885  -0.002477   0.075133   0.027840
    15  H   -0.046590   0.095375   0.039817  -0.002497   0.223128  -0.060570
    16  H    0.000749   0.014782   0.045630   0.000886  -0.049595   0.346516
    17  H    0.009528   0.004720   0.071046  -0.003602  -0.088634   0.379721
    18  H   -0.005727  -0.000435  -0.027886  -0.000206   0.003004  -0.045073
    19  H    0.007174  -0.001211   0.037684  -0.000087   0.003035  -0.097981
    20  H    0.000406   0.000005   0.011008  -0.000025   0.000132  -0.040764
    21  H    0.000072  -0.000013   0.003587   0.000021  -0.001384   0.071665
    22  H   -0.000500  -0.000049  -0.011008  -0.000075   0.000152  -0.047326
    23  H    0.275000  -0.026356   0.010974  -0.000063  -0.000034   0.000297
    24  Cl  -0.026970   0.001642  -0.004768  -0.000173   0.002703   0.002110
    25  H   -0.059331  -0.023702   0.111363   0.002075   0.003481   0.010615
    26  S   -0.831044   0.013645  -0.106306  -0.000140   0.001842  -0.003298
    27  H    0.002336   0.000977  -0.000062   0.000015   0.000020   0.000007
    28  F   -0.364752   0.001952  -0.006448   0.000004   0.000059  -0.000029
    29  F    0.191719   0.000170   0.001752  -0.000003   0.000009   0.000010
    30  F   -0.410971   0.001104  -0.009224   0.000007   0.000046  -0.000062
    31  F    0.161590   0.000218   0.000558  -0.000000   0.000010   0.000003
    32  F   -0.047970  -0.000252  -0.000029  -0.000000  -0.000006  -0.000001
               7          8          9         10         11         12
     1  C   -0.005961  -0.018871 -10.551603  -4.943231 -13.510979  -4.958504
     2  N    0.045242  -0.011678   0.898257   0.293024   0.137564  -0.019695
     3  C    0.273818  -0.225050  -2.534529  -1.669458  -0.246728   0.622085
     4  O    0.012660  -0.001489  -0.198792   0.033376  -0.041676   0.149955
     5  N   -0.171397   0.009980  -0.699300   0.093319  -0.081777   0.138245
     6  C   -0.929683   0.387394  -0.573417  -0.096827  -0.034279   0.132717
     7  C    6.352204  -0.212171   0.071505   0.003327   0.001877  -0.013628
     8  C   -0.212171   6.073812  -0.008887  -0.001103  -0.000073   0.001561
     9  C    0.071505  -0.008887  41.060132 -10.400746   8.089944 -12.109190
    10  C    0.003327  -0.001103 -10.400746  47.344968 -11.816604  -0.909102
    11  C    0.001877  -0.000073   8.089944 -11.816604  30.652816  -6.548402
    12  C   -0.013628   0.001561 -12.109190  -0.909102  -6.548402  26.988970
    13  C   -0.041309   0.003829  -7.776282  -7.710717  -2.419035   2.888349
    14  H   -0.003749   0.000210  -0.230125  -0.082317  -0.019024   0.039223
    15  H    0.002048   0.005685   0.004419  -0.008402   0.001195  -0.000081
    16  H    0.003720  -0.023457   0.004002  -0.000252   0.000229  -0.000713
    17  H   -0.061920  -0.006823   0.000580  -0.000041   0.000115   0.000303
    18  H    0.446959  -0.029912  -0.000757  -0.000194   0.000007   0.000077
    19  H    0.450410  -0.057377   0.000241   0.000210  -0.000013  -0.000051
    20  H    0.014136   0.361276   0.000017   0.000005  -0.000001  -0.000005
    21  H   -0.114155   0.390746  -0.000009   0.000001  -0.000000   0.000000
    22  H    0.009085   0.394928   0.000007  -0.000005   0.000001   0.000002
    23  H   -0.000018   0.000003   0.103803   0.001288  -0.119670   0.007549
    24  Cl  -0.000157   0.000015   0.188636  -0.267333   0.197975  -1.134117
    25  H   -0.000491   0.000071  -0.066659   0.002280   0.019003  -0.047768
    26  S    0.000099  -0.000018   0.355316  -2.774156   1.148587   0.341634
    27  H   -0.000000   0.000000  -0.117052   0.035851   0.185516   0.164520
    28  F    0.000000  -0.000000  -0.295500   0.197854   0.372391   0.127955
    29  F   -0.000000   0.000000   0.378011   0.164162  -0.380259  -0.253552
    30  F    0.000002  -0.000000  -0.311339   0.207390   0.402895   0.139043
    31  F    0.000000   0.000000   0.346446   0.155081  -0.344070  -0.227665
    32  F    0.000000  -0.000000   0.070868   0.003683   0.082028  -0.040928
              13         14         15         16         17         18
     1  C    1.881515   0.077173  -0.046590   0.000749   0.009528  -0.005727
     2  N   -0.459536   0.214586   0.095375   0.014782   0.004720  -0.000435
     3  C    1.344890   0.002885   0.039817   0.045630   0.071046  -0.027886
     4  O    0.357379  -0.002477  -0.002497   0.000886  -0.003602  -0.000206
     5  N    0.190513   0.075133   0.223128  -0.049595  -0.088634   0.003004
     6  C    0.304948   0.027840  -0.060570   0.346516   0.379721  -0.045073
     7  C   -0.041309  -0.003749   0.002048   0.003720  -0.061920   0.446959
     8  C    0.003829   0.000210   0.005685  -0.023457  -0.006823  -0.029912
     9  C   -7.776282  -0.230125   0.004419   0.004002   0.000580  -0.000757
    10  C   -7.710717  -0.082317  -0.008402  -0.000252  -0.000041  -0.000194
    11  C   -2.419035  -0.019024   0.001195   0.000229   0.000115   0.000007
    12  C    2.888349   0.039223  -0.000081  -0.000713   0.000303   0.000077
    13  C   17.018936   0.166242   0.018528  -0.003861   0.000955   0.001020
    14  H    0.166242   0.342553   0.002381  -0.000024   0.000232   0.000084
    15  H    0.018528   0.002381   0.361933   0.002179   0.001883   0.003697
    16  H   -0.003861  -0.000024   0.002179   0.422667  -0.037287   0.004848
    17  H    0.000955   0.000232   0.001883  -0.037287   0.459563  -0.008939
    18  H    0.001020   0.000084   0.003697   0.004848  -0.008939   0.465499
    19  H   -0.000745  -0.000023  -0.001114  -0.007653   0.006104  -0.043801
    20  H   -0.000028  -0.000001   0.000027  -0.000122   0.003306  -0.008257
    21  H    0.000017  -0.000000  -0.000021  -0.000205  -0.000091  -0.003380
    22  H    0.000012   0.000001  -0.000018   0.003328  -0.000823   0.006378
    23  H    0.035270   0.008643   0.000017  -0.000000  -0.000000  -0.000000
    24  Cl   0.219626   0.000475   0.000001  -0.000001   0.000000   0.000000
    25  H    0.377865   0.000322  -0.000021  -0.000020   0.000002  -0.000000
    26  S    0.122696   0.001733  -0.000099  -0.000000   0.000001  -0.000002
    27  H   -0.001107  -0.000011  -0.000000  -0.000000  -0.000000  -0.000000
    28  F   -0.042461  -0.000354  -0.000000  -0.000000  -0.000000  -0.000000
    29  F    0.000626   0.000027   0.000000  -0.000000  -0.000000   0.000000
    30  F   -0.041500  -0.000308  -0.000001  -0.000000  -0.000000  -0.000000
    31  F    0.004482   0.000012   0.000000  -0.000000  -0.000000  -0.000000
    32  F   -0.002677  -0.000005   0.000000   0.000000   0.000000  -0.000000
              19         20         21         22         23         24
     1  C    0.007174   0.000406   0.000072  -0.000500   0.275000  -0.026970
     2  N   -0.001211   0.000005  -0.000013  -0.000049  -0.026356   0.001642
     3  C    0.037684   0.011008   0.003587  -0.011008   0.010974  -0.004768
     4  O   -0.000087  -0.000025   0.000021  -0.000075  -0.000063  -0.000173
     5  N    0.003035   0.000132  -0.001384   0.000152  -0.000034   0.002703
     6  C   -0.097981  -0.040764   0.071665  -0.047326   0.000297   0.002110
     7  C    0.450410   0.014136  -0.114155   0.009085  -0.000018  -0.000157
     8  C   -0.057377   0.361276   0.390746   0.394928   0.000003   0.000015
     9  C    0.000241   0.000017  -0.000009   0.000007   0.103803   0.188636
    10  C    0.000210   0.000005   0.000001  -0.000005   0.001288  -0.267333
    11  C   -0.000013  -0.000001  -0.000000   0.000001  -0.119670   0.197975
    12  C   -0.000051  -0.000005   0.000000   0.000002   0.007549  -1.134117
    13  C   -0.000745  -0.000028   0.000017   0.000012   0.035270   0.219626
    14  H   -0.000023  -0.000001  -0.000000   0.000001   0.008643   0.000475
    15  H   -0.001114   0.000027  -0.000021  -0.000018   0.000017   0.000001
    16  H   -0.007653  -0.000122  -0.000205   0.003328  -0.000000  -0.000001
    17  H    0.006104   0.003306  -0.000091  -0.000823  -0.000000   0.000000
    18  H   -0.043801  -0.008257  -0.003380   0.006378  -0.000000   0.000000
    19  H    0.443833   0.005914  -0.003349  -0.008405   0.000000   0.000000
    20  H    0.005914   0.449277  -0.025395  -0.035530   0.000000   0.000000
    21  H   -0.003349  -0.025395   0.431730  -0.023801   0.000000   0.000000
    22  H   -0.008405  -0.035530  -0.023801   0.447044  -0.000000  -0.000000
    23  H    0.000000   0.000000   0.000000  -0.000000   0.392531   0.000239
    24  Cl   0.000000   0.000000   0.000000  -0.000000   0.000239  17.431150
    25  H   -0.000000  -0.000000   0.000000  -0.000000   0.000030  -0.013423
    26  S    0.000002   0.000000   0.000000  -0.000000   0.028552  -0.008306
    27  H    0.000000   0.000000   0.000000  -0.000000  -0.000040  -0.013606
    28  F    0.000000   0.000000   0.000000  -0.000000  -0.001087  -0.000078
    29  F   -0.000000   0.000000   0.000000   0.000000  -0.000227  -0.000604
    30  F    0.000000   0.000000   0.000000  -0.000000  -0.001023  -0.000025
    31  F   -0.000000   0.000000   0.000000  -0.000000  -0.000163  -0.000548
    32  F   -0.000000   0.000000  -0.000000  -0.000000  -0.001152   0.000201
              25         26         27         28         29         30
     1  C   -0.059331  -0.831044   0.002336  -0.364752   0.191719  -0.410971
     2  N   -0.023702   0.013645   0.000977   0.001952   0.000170   0.001104
     3  C    0.111363  -0.106306  -0.000062  -0.006448   0.001752  -0.009224
     4  O    0.002075  -0.000140   0.000015   0.000004  -0.000003   0.000007
     5  N    0.003481   0.001842   0.000020   0.000059   0.000009   0.000046
     6  C    0.010615  -0.003298   0.000007  -0.000029   0.000010  -0.000062
     7  C   -0.000491   0.000099  -0.000000   0.000000  -0.000000   0.000002
     8  C    0.000071  -0.000018   0.000000  -0.000000   0.000000  -0.000000
     9  C   -0.066659   0.355316  -0.117052  -0.295500   0.378011  -0.311339
    10  C    0.002280  -2.774156   0.035851   0.197854   0.164162   0.207390
    11  C    0.019003   1.148587   0.185516   0.372391  -0.380259   0.402895
    12  C   -0.047768   0.341634   0.164520   0.127955  -0.253552   0.139043
    13  C    0.377865   0.122696  -0.001107  -0.042461   0.000626  -0.041500
    14  H    0.000322   0.001733  -0.000011  -0.000354   0.000027  -0.000308
    15  H   -0.000021  -0.000099  -0.000000  -0.000000   0.000000  -0.000001
    16  H   -0.000020  -0.000000  -0.000000  -0.000000  -0.000000  -0.000000
    17  H    0.000002   0.000001  -0.000000  -0.000000  -0.000000  -0.000000
    18  H   -0.000000  -0.000002  -0.000000  -0.000000   0.000000  -0.000000
    19  H   -0.000000   0.000002   0.000000   0.000000  -0.000000   0.000000
    20  H   -0.000000   0.000000   0.000000   0.000000   0.000000   0.000000
    21  H    0.000000   0.000000   0.000000   0.000000   0.000000   0.000000
    22  H   -0.000000  -0.000000  -0.000000  -0.000000   0.000000  -0.000000
    23  H    0.000030   0.028552  -0.000040  -0.001087  -0.000227  -0.001023
    24  Cl  -0.013423  -0.008306  -0.013606  -0.000078  -0.000604  -0.000025
    25  H    0.346617  -0.001244  -0.000276  -0.000015   0.000008  -0.000020
    26  S   -0.001244  17.325116   0.046397   0.058385  -0.033571   0.068238
    27  H   -0.000276   0.046397   0.365090   0.000252  -0.001755   0.000309
    28  F   -0.000015   0.058385   0.000252   8.967518  -0.031761  -0.006053
    29  F    0.000008  -0.033571  -0.001755  -0.031761   8.964274  -0.053611
    30  F   -0.000020   0.068238   0.000309  -0.006053  -0.053611   8.972212
    31  F    0.000004  -0.031119  -0.001332  -0.051330  -0.012498  -0.029720
    32  F    0.000000  -0.275474  -0.001137   0.012605   0.013785   0.012580
              31         32
     1  C    0.161590  -0.047970
     2  N    0.000218  -0.000252
     3  C    0.000558  -0.000029
     4  O   -0.000000  -0.000000
     5  N    0.000010  -0.000006
     6  C    0.000003  -0.000001
     7  C    0.000000   0.000000
     8  C    0.000000  -0.000000
     9  C    0.346446   0.070868
    10  C    0.155081   0.003683
    11  C   -0.344070   0.082028
    12  C   -0.227665  -0.040928
    13  C    0.004482  -0.002677
    14  H    0.000012  -0.000005
    15  H    0.000000   0.000000
    16  H   -0.000000   0.000000
    17  H   -0.000000   0.000000
    18  H   -0.000000  -0.000000
    19  H   -0.000000  -0.000000
    20  H    0.000000   0.000000
    21  H    0.000000  -0.000000
    22  H   -0.000000  -0.000000
    23  H   -0.000163  -0.001152
    24  Cl  -0.000548   0.000201
    25  H    0.000004   0.000000
    26  S   -0.031119  -0.275474
    27  H   -0.001332  -0.001137
    28  F   -0.051330   0.012605
    29  F   -0.012498   0.013785
    30  F   -0.029720   0.012580
    31  F    8.961691   0.014344
    32  F    0.014344   9.141662
 Mulliken charges:
               1
     1  C   -0.942522
     2  N   -0.391975
     3  C    0.117829
     4  O   -0.359822
     5  N   -0.298227
     6  C   -0.538947
     7  C   -0.132455
     8  C   -1.032600
     9  C    0.302002
    10  C   -1.855331
    11  C    0.270446
    12  C    0.521212
    13  C   -0.438440
    14  H    0.378665
    15  H    0.357101
    16  H    0.273655
    17  H    0.270102
    18  H    0.242995
    19  H    0.267203
    20  H    0.264618
    21  H    0.273963
    22  H    0.266603
    23  H    0.285638
    24  Cl   0.425334
    25  H    0.339235
    26  S    0.552536
    27  H    0.335089
    28  F    0.060894
    29  F    0.053288
    30  F    0.060031
    31  F    0.054005
    32  F    0.017875
 Sum of Mulliken charges =  -0.00000
 Mulliken charges with hydrogens summed into heavy atoms:
               1
     1  C   -0.942522
     2  N   -0.013310
     3  C    0.117829
     4  O   -0.359822
     5  N    0.058873
     6  C    0.004810
     7  C    0.377743
     8  C   -0.227417
     9  C    0.587640
    10  C   -1.855331
    11  C    0.605534
    12  C    0.521212
    13  C   -0.099205
    24  Cl   0.425334
    26  S    0.552536
    28  F    0.060894
    29  F    0.053288
    30  F    0.060031
    31  F    0.054005
    32  F    0.017875
 Electronic spatial extent (au):  <R**2>=          10521.1478
 Charge=             -0.0000 electrons
 Dipole moment (field-independent basis, Debye):
    X=              6.2519    Y=             -3.6808    Z=             -0.9219  Tot=              7.3133
 Quadrupole moment (field-independent basis, Debye-Ang):
   XX=           -124.9498   YY=           -133.0423   ZZ=           -134.3928
   XY=            -21.6844   XZ=             -3.2918   YZ=              0.8844
 Traceless Quadrupole moment (field-independent basis, Debye-Ang):
   XX=              5.8452   YY=             -2.2473   ZZ=             -3.5979
   XY=            -21.6844   XZ=             -3.2918   YZ=              0.8844
 Octapole moment (field-independent basis, Debye-Ang**2):
  XXX=             89.7353  YYY=            -49.8151  ZZZ=              0.6835  XYY=            -15.8959
  XXY=            -40.1624  XXZ=            -10.4125  XZZ=            -22.5725  YZZ=            -10.4782
  YYZ=             -3.0751  XYZ=              3.0698
 Hexadecapole moment (field-independent basis, Debye-Ang**3):
 XXXX=          -9895.0397 YYYY=          -2371.3930 ZZZZ=           -315.5108 XXXY=           -232.7782
 XXXZ=            -32.7260 YYYX=             58.8525 YYYZ=              5.7105 ZZZX=             -3.3339
 ZZZY=              0.4891 XXYY=          -2157.0914 XXZZ=          -1813.3617 YYZZ=           -461.0279
 XXYZ=             13.6175 YYXZ=            -11.8757 ZZXY=             44.1874
 N-N= 1.999845866138D+03 E-N=-8.561567912117D+03  KE= 1.925776947181D+03
 D1PCM: PCM CHGder 1st derivatives, ID1Alg=3 FixD1E=F DoIter=F DoCFld=F I1PDM=0.
 Calling FoFJK, ICntrl=      2127 FMM=F ISym2X=0 I1Cent= 0 IOpClX= 0 NMat=1 NMatS=1 NMatT=0.
 ***** Axes restored to original set *****
 -------------------------------------------------------------------
 Center     Atomic                   Forces (Hartrees/Bohr)
 Number     Number              X              Y              Z
 -------------------------------------------------------------------
      1        6           0.000000079    0.000000360    0.000001742
      2        7           0.000002344    0.000000947   -0.000000400
      3        6          -0.000005113    0.000002741    0.000000795
      4        8           0.000000310    0.000000520    0.000002588
      5        7           0.000001885   -0.000001475   -0.000001970
      6        6           0.000000294    0.000002402   -0.000002787
      7        6           0.000000254    0.000001661   -0.000005687
      8        6          -0.000000032    0.000002583   -0.000005882
      9        6          -0.000000029   -0.000001888    0.000000519
     10        6           0.000000192   -0.000001678    0.000002871
     11        6          -0.000000227   -0.000001356    0.000006362
     12        6          -0.000001017   -0.000000796    0.000007579
     13        6          -0.000000864    0.000000027    0.000005512
     14        1           0.000000586    0.000000125   -0.000002276
     15        1          -0.000000689    0.000000887   -0.000005773
     16        1          -0.000000096    0.000000705   -0.000000329
     17        1          -0.000000247    0.000005032   -0.000001386
     18        1          -0.000000095    0.000003280   -0.000007866
     19        1           0.000000838   -0.000000794   -0.000006752
     20        1          -0.000000663    0.000005449   -0.000004776
     21        1           0.000000356    0.000002458   -0.000008150
     22        1           0.000000074    0.000000981   -0.000003683
     23        1           0.000000793   -0.000002007   -0.000002158
     24       17          -0.000001309    0.000000006    0.000012042
     25        1          -0.000001118    0.000000680    0.000006745
     26       16           0.000001101   -0.000003617    0.000001162
     27        1          -0.000000349   -0.000001630    0.000008061
     28        9           0.000001374   -0.000005993   -0.000001663
     29        9           0.000001091   -0.000005941    0.000004398
     30        9           0.000000010    0.000000444   -0.000002014
     31        9          -0.000000583   -0.000000181    0.000003596
     32        9           0.000000850   -0.000003932   -0.000000423
 -------------------------------------------------------------------
 Cartesian Forces:  Max     0.000012042 RMS     0.000003296

 GradGradGradGradGradGradGradGradGradGradGradGradGradGradGradGradGradGrad
 Berny optimization.
 FormGI is forming the generalized inverse of G from B-inverse, IUseBI=4.
 Internal  Forces:  Max     0.000003385 RMS     0.000000591
 Search for a local minimum.
 Step number   1 out of a maximum of  173
 All quantities printed in internal units (Hartrees-Bohrs-Radians)
 Mixed Optimization -- En-DIIS/RFO-DIIS
 Second derivative matrix not updated -- first step.
 ITU=  0
     Eigenvalues ---    0.00246   0.00445   0.00480   0.00937   0.01382
     Eigenvalues ---    0.01688   0.01781   0.01784   0.01808   0.01986
     Eigenvalues ---    0.02001   0.02112   0.02173   0.02186   0.02211
     Eigenvalues ---    0.02246   0.02259   0.02269   0.02301   0.03724
     Eigenvalues ---    0.04462   0.04935   0.05519   0.05534   0.05552
     Eigenvalues ---    0.08188   0.09067   0.09083   0.09196   0.12082
     Eigenvalues ---    0.12648   0.13565   0.13598   0.13619   0.13635
     Eigenvalues ---    0.15275   0.15949   0.16000   0.16000   0.16000
     Eigenvalues ---    0.16000   0.16000   0.16000   0.16725   0.21893
     Eigenvalues ---    0.21904   0.22019   0.22164   0.23484   0.23513
     Eigenvalues ---    0.23520   0.24995   0.24997   0.25000   0.25000
     Eigenvalues ---    0.25000   0.25000   0.25000   0.25391   0.29961
     Eigenvalues ---    0.30208   0.31344   0.34088   0.34114   0.34327
     Eigenvalues ---    0.34473   0.34479   0.34645   0.34670   0.35585
     Eigenvalues ---    0.35856   0.36134   0.37338   0.42460   0.43071
     Eigenvalues ---    0.45939   0.45940   0.46250   0.46761   0.46800
     Eigenvalues ---    0.47054   0.47910   0.47914   0.47975   0.48577
     Eigenvalues ---    0.48619   0.48646   0.49281   0.52418   0.97571
 RFO step:  Lambda= 0.00000000D+00 EMin= 2.46071691D-03
 Linear search not attempted -- first point.
 Iteration  1 RMS(Cart)=  0.00012445 RMS(Int)=  0.00000001
 Iteration  2 RMS(Cart)=  0.00000001 RMS(Int)=  0.00000000
 Variable       Old X    -DE/DX   Delta X   Delta X   Delta X     New X
                                 (Linear)    (Quad)   (Total)
    R1        2.63282   0.00000   0.00000   0.00000   0.00000   2.63282
    R2        2.64773   0.00000   0.00000   0.00000   0.00000   2.64773
    R3        2.64464   0.00000   0.00000   0.00000   0.00000   2.64464
    R4        2.63239  -0.00000   0.00000  -0.00000  -0.00000   2.63239
    R5        1.90900  -0.00000   0.00000  -0.00000  -0.00000   1.90900
    R6        2.29628  -0.00000   0.00000  -0.00000  -0.00000   2.29628
    R7        2.57501   0.00000   0.00000   0.00001   0.00001   2.57502
    R8        2.75339   0.00000   0.00000   0.00000   0.00000   2.75340
    R9        1.90899   0.00000   0.00000   0.00000   0.00000   1.90900
   R10        2.87550  -0.00000   0.00000  -0.00000  -0.00000   2.87550
   R11        2.06214   0.00000   0.00000   0.00000   0.00000   2.06214
   R12        2.07137   0.00000   0.00000   0.00000   0.00000   2.07137
   R13        2.88041  -0.00000   0.00000  -0.00000  -0.00000   2.88041
   R14        2.07183   0.00000   0.00000   0.00000   0.00000   2.07183
   R15        2.06782  -0.00000   0.00000  -0.00000  -0.00000   2.06782
   R16        2.06539  -0.00000   0.00000  -0.00000  -0.00000   2.06539
   R17        2.06255  -0.00000   0.00000  -0.00000  -0.00000   2.06255
   R18        2.06529  -0.00000   0.00000  -0.00000  -0.00000   2.06529
   R19        2.60877   0.00000   0.00000   0.00000   0.00000   2.60877
   R20        2.04736   0.00000   0.00000   0.00000   0.00000   2.04736
   R21        2.61850   0.00000   0.00000   0.00000   0.00000   2.61850
   R22        3.41925   0.00000   0.00000   0.00000   0.00000   3.41925
   R23        2.62133  -0.00000   0.00000  -0.00000  -0.00000   2.62133
   R24        2.04308   0.00000   0.00000   0.00000   0.00000   2.04308
   R25        2.62136   0.00000   0.00000   0.00000   0.00000   2.62136
   R26        3.29060   0.00000   0.00000   0.00000   0.00000   3.29060
   R27        2.03872  -0.00000   0.00000  -0.00000  -0.00000   2.03872
   R28        3.05666  -0.00000   0.00000  -0.00000  -0.00000   3.05666
   R29        3.04986   0.00000   0.00000   0.00000   0.00000   3.04986
   R30        3.05731  -0.00000   0.00000  -0.00000  -0.00000   3.05731
   R31        3.05029   0.00000   0.00000   0.00000   0.00000   3.05030
   R32        3.04298   0.00000   0.00000   0.00000   0.00000   3.04298
    A1        2.04025  -0.00000   0.00000  -0.00001  -0.00001   2.04024
    A2        2.16031   0.00000   0.00000   0.00001   0.00001   2.16032
    A3        2.08252  -0.00000   0.00000  -0.00000  -0.00000   2.08252
    A4        2.22372   0.00000   0.00000   0.00001   0.00001   2.22373
    A5        2.01188  -0.00000   0.00000  -0.00001  -0.00001   2.01187
    A6        2.04171  -0.00000   0.00000  -0.00001  -0.00001   2.04170
    A7        2.15346   0.00000   0.00000   0.00001   0.00001   2.15347
    A8        1.97761  -0.00000   0.00000  -0.00001  -0.00001   1.97760
    A9        2.15190  -0.00000   0.00000  -0.00000  -0.00000   2.15190
   A10        2.09931  -0.00000   0.00000   0.00000   0.00000   2.09931
   A11        2.08049  -0.00000   0.00000  -0.00000  -0.00000   2.08049
   A12        2.04220   0.00000   0.00000   0.00001   0.00001   2.04221
   A13        1.92462  -0.00000   0.00000  -0.00000  -0.00000   1.92462
   A14        1.88249  -0.00000   0.00000  -0.00000  -0.00000   1.88249
   A15        1.92873   0.00000   0.00000   0.00001   0.00001   1.92874
   A16        1.92871   0.00000   0.00000  -0.00000  -0.00000   1.92871
   A17        1.92815  -0.00000   0.00000   0.00000   0.00000   1.92815
   A18        1.86994  -0.00000   0.00000  -0.00000  -0.00000   1.86993
   A19        1.94595  -0.00000   0.00000  -0.00000  -0.00000   1.94595
   A20        1.91073  -0.00000   0.00000  -0.00000  -0.00000   1.91073
   A21        1.90233   0.00000   0.00000  -0.00000  -0.00000   1.90233
   A22        1.91295   0.00000   0.00000   0.00000   0.00000   1.91295
   A23        1.92403   0.00000   0.00000  -0.00000  -0.00000   1.92403
   A24        1.86607  -0.00000   0.00000   0.00000   0.00000   1.86607
   A25        1.94200   0.00000   0.00000   0.00000   0.00000   1.94200
   A26        1.94073   0.00000   0.00000   0.00000   0.00000   1.94073
   A27        1.93881  -0.00000   0.00000  -0.00000  -0.00000   1.93881
   A28        1.87973  -0.00000   0.00000   0.00000   0.00000   1.87973
   A29        1.88002   0.00000   0.00000  -0.00000  -0.00000   1.88002
   A30        1.87973  -0.00000   0.00000  -0.00000  -0.00000   1.87973
   A31        2.07761  -0.00000   0.00000  -0.00000  -0.00000   2.07761
   A32        2.09716  -0.00000   0.00000  -0.00000  -0.00000   2.09716
   A33        2.10842   0.00000   0.00000   0.00000   0.00000   2.10842
   A34        2.15362   0.00000   0.00000   0.00000   0.00000   2.15362
   A35        2.06403  -0.00000   0.00000  -0.00000  -0.00000   2.06403
   A36        2.06553   0.00000   0.00000   0.00000   0.00000   2.06553
   A37        2.02700   0.00000   0.00000   0.00000   0.00000   2.02700
   A38        2.13852   0.00000   0.00000   0.00000   0.00000   2.13852
   A39        2.11766  -0.00000   0.00000  -0.00000  -0.00000   2.11766
   A40        2.14867   0.00000   0.00000   0.00000   0.00000   2.14867
   A41        2.06733  -0.00000   0.00000  -0.00000  -0.00000   2.06733
   A42        2.06719   0.00000   0.00000   0.00000   0.00000   2.06719
   A43        2.07695  -0.00000   0.00000  -0.00000  -0.00000   2.07695
   A44        2.10365   0.00000   0.00000   0.00000   0.00000   2.10366
   A45        2.10257  -0.00000   0.00000  -0.00000  -0.00000   2.10257
   A46        1.61814   0.00000   0.00000   0.00000   0.00000   1.61814
   A47        1.61706  -0.00000   0.00000  -0.00000  -0.00000   1.61706
   A48        1.61761  -0.00000   0.00000  -0.00000  -0.00000   1.61761
   A49        1.61740   0.00000   0.00000   0.00000   0.00000   1.61740
   A50        1.56986  -0.00000   0.00000   0.00000   0.00000   1.56986
   A51        1.56476   0.00000   0.00000   0.00000   0.00000   1.56476
   A52        1.52271  -0.00000   0.00000  -0.00000  -0.00000   1.52271
   A53        1.57053   0.00000   0.00000   0.00000   0.00000   1.57053
   A54        1.52548  -0.00000   0.00000  -0.00000  -0.00000   1.52548
   A55        1.56929  -0.00000   0.00000  -0.00000  -0.00000   1.56929
   A56        1.52303   0.00000   0.00000   0.00000   0.00000   1.52303
   A57        1.52492  -0.00000   0.00000  -0.00000  -0.00000   1.52492
   A58        3.14086   0.00000   0.00000   0.00000   0.00000   3.14086
   A59        3.23555   0.00000   0.00000   0.00000   0.00000   3.23555
   A60        3.23467  -0.00000   0.00000  -0.00000  -0.00000   3.23467
   A61        3.14254  -0.00000   0.00000  -0.00000  -0.00000   3.14254
   A62        3.13844  -0.00000   0.00000  -0.00000  -0.00000   3.13844
   A63        3.13902   0.00000   0.00000   0.00000   0.00000   3.13902
    D1       -3.04167   0.00000   0.00000   0.00001   0.00001  -3.04166
    D2       -0.02085  -0.00000   0.00000  -0.00002  -0.00002  -0.02087
    D3        0.11562  -0.00000   0.00000  -0.00000  -0.00000   0.11562
    D4        3.13643  -0.00000   0.00000  -0.00003  -0.00003   3.13641
    D5       -3.12737  -0.00000   0.00000  -0.00003  -0.00003  -3.12740
    D6        0.01495  -0.00000   0.00000  -0.00001  -0.00001   0.01494
    D7       -0.00073  -0.00000   0.00000  -0.00002  -0.00002  -0.00075
    D8        3.14159  -0.00000   0.00000  -0.00000  -0.00000   3.14159
    D9        3.12661   0.00000   0.00000   0.00002   0.00002   3.12663
   D10       -0.02115   0.00000   0.00000   0.00001   0.00001  -0.02113
   D11        0.00107   0.00000   0.00000   0.00001   0.00001   0.00108
   D12        3.13650   0.00000   0.00000   0.00000   0.00000   3.13650
   D13        0.03774  -0.00000   0.00000  -0.00001  -0.00001   0.03774
   D14       -3.12524  -0.00000   0.00000  -0.00002  -0.00002  -3.12526
   D15       -2.98128   0.00000   0.00000   0.00002   0.00002  -2.98126
   D16        0.13892   0.00000   0.00000   0.00000   0.00000   0.13892
   D17        3.07336   0.00000   0.00000   0.00005   0.00005   3.07340
   D18        0.31124   0.00000   0.00000   0.00003   0.00003   0.31128
   D19       -0.08961   0.00000   0.00000   0.00003   0.00003  -0.08958
   D20       -2.85172   0.00000   0.00000   0.00002   0.00002  -2.85170
   D21        2.93016  -0.00000   0.00000  -0.00001  -0.00001   2.93015
   D22        0.82258   0.00000   0.00000  -0.00001  -0.00001   0.82257
   D23       -1.21620  -0.00000   0.00000  -0.00001  -0.00001  -1.21620
   D24       -0.58285  -0.00000   0.00000  -0.00000  -0.00000  -0.58285
   D25       -2.69043   0.00000   0.00000   0.00000   0.00000  -2.69043
   D26        1.55398  -0.00000   0.00000   0.00000   0.00000   1.55398
   D27        3.14074   0.00000   0.00000   0.00002   0.00002   3.14076
   D28        1.02104   0.00000   0.00000   0.00002   0.00002   1.02105
   D29       -1.01450   0.00000   0.00000   0.00002   0.00002  -1.01449
   D30       -1.06277   0.00000   0.00000   0.00001   0.00001  -1.06276
   D31        3.10071  -0.00000   0.00000   0.00001   0.00001   3.10072
   D32        1.06517  -0.00000   0.00000   0.00001   0.00001   1.06518
   D33        1.00357  -0.00000   0.00000   0.00001   0.00001   1.00358
   D34       -1.11613  -0.00000   0.00000   0.00001   0.00001  -1.11613
   D35        3.13151  -0.00000   0.00000   0.00001   0.00001   3.13152
   D36       -1.04841   0.00000   0.00000   0.00001   0.00001  -1.04840
   D37        3.13936  -0.00000   0.00000   0.00001   0.00001   3.13936
   D38        1.04608   0.00000   0.00000   0.00001   0.00001   1.04609
   D39        1.07001   0.00000   0.00000   0.00001   0.00001   1.07002
   D40       -1.02541  -0.00000   0.00000   0.00001   0.00001  -1.02540
[...]
 58,0.00000020,0.00000387,0.00000897,-0.00000183,0.00000074,-0.00000441
 ,0.00000101,0.00184064,-0.00072633,0.00058897,0.00265816,0.00038726,-0
 .00030905,-0.29877359,0.11787500,0.01757535,-0.01667404,0.01142242,0.0
 0088201,-0.00168229,-0.00317515,0.00132273,-0.00001459,0.00004156,0.00
 000083,-0.00001060,0.00001850,0.00000022,0.00000586,-0.00000052,-0.000
 00049,0.00001077,0.00000090,-0.00000402,-0.00000098,-0.00000026,-0.000
 00015,-0.00000140,0.00000061,-0.00000042,-0.00000009,0.00000102,-0.000
 00081,0.00000339,-0.00000121,0.00000017,-0.00000039,0.00000084,0.00000
 001,0.00025280,-0.00017396,0.00010423,0.00097969,0.00109292,-0.0006199
 9,-0.00043413,0.00058973,0.00002468,0.00064357,-0.00007677,-0.00003424
 ,0.31352380,-0.00038389,-0.00083336,-0.00003698,-0.00008626,0.00029216
 ,-0.00006133,0.00006290,-0.00020364,-0.00001168,-0.00014473,0.00015935
 ,-0.00002122,-0.00004297,0.00007952,-0.00000237,0.00001719,0.00000454,
 -0.00000442,0.00000039,-0.00000306,0.00000281,-0.00000060,0.00000269,0
 .00000025,-0.00132516,-0.00495724,0.00156012,0.02593414,-0.00747012,-0
 .00213869,0.11822580,-0.11262412,-0.00393469,-0.01687249,0.01070146,0.
 00102972,-0.00304917,-0.00218455,0.00140376,-0.00011490,0.00000158,0.0
 0002094,-0.00001026,-0.00000374,0.00001179,0.00000024,-0.00000055,0.00
 000022,-0.00000376,-0.00000129,0.00000019,-0.00000074,0.00000037,-0.00
 000019,-0.00000020,0.00000024,-0.00000050,0.00000036,-0.00000013,0.000
 00021,-0.00000126,0.00000001,0.00000024,0.00000012,-0.00000045,-0.0000
 0018,0.00131338,-0.00026183,-0.00000612,-0.00063606,0.00144787,-0.0003
 9143,-0.00061026,0.00069105,0.00003813,0.00332118,-0.00436498,0.000156
 42,-0.12329047,0.11668284,-0.00006856,0.00004225,-0.00129340,-0.000161
 76,-0.00006282,-0.00046201,0.00007966,0.00012606,-0.00008657,0.0000839
 5,-0.00010912,-0.00003613,-0.00001117,0.00000501,0.00005816,0.00000408
 ,0.00000830,0.00001623,0.00000091,0.00000084,0.00000212,-0.00000018,0.
 00000038,-0.00000007,0.00062816,0.00151937,0.00545785,-0.00370192,0.00
 103159,0.00100473,0.01750366,-0.00385958,-0.03349533,0.00454446,-0.002
 46192,0.00248576,0.00137518,0.00134621,0.00515207,0.00003113,0.0000126
 9,0.00007143,-0.00000308,-0.00000601,0.00003002,0.00000221,-0.00000940
 ,-0.00000346,-0.00000251,0.00000219,-0.00000670,-0.00000036,-0.0000024
 0,-0.00000079,-0.00000005,0.00000170,-0.00000177,0.00000110,0.00000035
 ,-0.00000121,-0.00000033,0.00000032,0.00000042,-0.00000091,-0.00000109
 ,-0.00000015,-0.00009367,0.00018294,0.00090669,-0.00038606,-0.00063037
 ,-0.00239687,0.00013062,-0.00013856,0.00024032,-0.00049766,0.00063546,
 0.00021254,-0.01974988,0.00272648,0.02475304,0.00220172,-0.00027596,0.
 00019724,-0.00077990,0.00005834,0.00018760,0.00094637,0.00029401,-0.00
 013950,-0.00027990,-0.00024724,0.00005927,-0.00037255,0.00012095,0.000
 05050,0.00015480,0.00005725,-0.00001048,-0.00001285,-0.00002515,0.0000
 0071,0.00000099,0.00001615,-0.00000589,-0.00286083,-0.00004227,0.00329
 768,-0.00083155,-0.01154753,0.00725453,0.00003178,0.00126530,0.0008878
 1,-0.00116640,0.00002098,-0.00026753,0.00025913,-0.00095544,0.00008904
 ,0.00013736,-0.00001818,-0.00013947,0.00003050,-0.00003035,-0.00003654
 ,-0.00000797,-0.00000344,0.00000107,-0.00003729,-0.00001404,0.00002229
 ,-0.00000009,0.00000250,-0.00000581,0.00000905,-0.00000110,0.00001146,
 -0.00000312,-0.00000613,0.00000827,-0.00001497,0.00000556,-0.00000206,
 0.00000007,-0.00000439,-0.00000201,-0.00012553,-0.00227022,0.00001684,
 0.00008727,-0.00054278,0.00002287,0.00008622,-0.00011298,-0.00010171,-
 0.07852036,0.02344751,-0.03111297,-0.00010466,-0.00039247,0.00015116,0
 .13303882,0.00177568,0.00013554,-0.00100892,-0.00231831,0.00011501,0.0
 0012988,0.00176287,-0.00001936,-0.00011689,-0.00058458,0.00008842,0.00
 001950,-0.00089060,0.00049439,-0.00012459,0.00021698,0.00010127,0.0000
 0929,-0.00002237,-0.00007854,0.00003147,-0.00001460,0.00004312,-0.0000
 0968,-0.00166927,-0.00375502,0.00179651,0.01345130,-0.01274540,0.01857
 941,-0.00556781,0.00143200,0.00265078,-0.00050881,-0.00007127,-0.00132
 563,-0.00009280,-0.00080896,0.00045007,-0.00007522,-0.00020471,0.00012
 700,-0.00000467,-0.00012309,0.00009901,-0.00000997,-0.00000772,0.00001
 435,-0.00005633,-0.00001674,0.00000652,-0.00000104,0.00001279,0.000012
 46,-0.00000111,0.00000222,-0.00001975,0.00000649,-0.00000559,-0.000004
 75,-0.00003045,0.00000725,0.00000120,0.00000601,-0.00000546,0.00000563
 ,-0.00118065,0.00021722,0.00071318,-0.00031576,-0.00120147,0.00005172,
 0.00016412,0.00008310,0.00003860,0.02258049,-0.10290968,0.05516215,0.0
 0021955,0.00054499,0.00025744,-0.04308338,0.12831492,-0.00139762,0.000
 29650,0.00043859,0.00182517,0.00001520,0.00005848,-0.00143871,-0.00014
 911,0.00005025,0.00046055,0.00003268,0.00004387,0.00069726,-0.00035815
 ,0.00014374,-0.00017686,-0.00008322,-0.00002812,0.00001489,0.00005460,
 -0.00004811,0.00001050,-0.00003523,0.00000874,0.00281103,0.00241537,-0
 .00089819,-0.01668836,0.01086263,-0.00786023,0.00676152,0.00016808,-0.
 00222835,-0.00069814,0.00047172,0.00082144,0.00044135,0.00028589,-0.00
 031122,-0.00000480,0.00009465,-0.00025704,-0.00001717,0.00009226,-0.00
 012119,0.00001359,0.00001523,-0.00001119,0.00003924,0.00000783,0.,0.00
 000059,0.00000037,-0.00000154,0.00000154,-0.00000784,0.00002151,-0.000
 00762,0.00000122,0.00000749,0.00002395,-0.00000643,-0.00000399,-0.0000
 0051,0.00001002,-0.00000315,0.00088718,0.00062148,-0.00134872,0.000367
 89,0.00119788,-0.00007265,-0.00012354,-0.00002921,-0.00005764,-0.03108
 340,0.05538770,-0.12729271,-0.00018251,-0.00034053,-0.00031422,0.06577
 254,-0.07213975,0.17928215,-0.00004017,-0.00128093,-0.00127061,-0.0023
 9245,-0.00036428,0.00001311,0.00210993,0.00047589,-0.00021703,-0.00066
 362,-0.00025866,0.00005429,-0.00103223,0.00040922,-0.00002668,0.000328
 76,0.00014897,-0.00002470,-0.00003167,-0.00007466,0.00003429,-0.000006
 92,0.00004864,-0.00001036,0.00016709,-0.00551921,0.00294307,-0.0122014
 0,0.01864780,0.01949573,-0.00422423,-0.00138836,0.00249528,0.00122922,
 0.00166875,-0.00081930,-0.00140969,0.00059252,0.00032950,0.00009343,-0
 .00010913,0.00005065,0.00003985,-0.00010552,0.00002843,-0.00001898,-0.
 00001363,0.00000842,-0.00007673,-0.00002652,0.00003038,0.00000018,0.00
 000388,-0.00000567,0.00000962,0.00000229,0.00000033,0.00000151,-0.0000
 0920,0.00000672,-0.00003649,0.00001102,-0.00000010,0.00000115,-0.00001
 215,-0.00000085,0.00044721,0.00014231,0.00039540,-0.00002423,-0.001207
 58,0.00013052,0.00019550,0.00001631,0.00002218,-0.08939218,0.02941485,
 0.04350337,-0.00078526,-0.00075961,0.00066017,-0.01018023,0.02249744,0
 .00611657,0.10568248,0.00000453,-0.00133398,0.00013018,-0.00026346,0.0
 0053828,0.00005087,0.00011379,-0.00023575,-0.00006842,-0.00000370,0.00
 015735,0.00003943,-0.00003947,0.00011011,-0.00000089,-0.00000863,-0.00
 001346,-0.00000670,0.00000340,-0.00001165,-0.00000582,-0.00000320,0.00
 000249,0.00000262,0.00129641,0.00160089,-0.00007837,-0.00792705,-0.003
 28216,0.00045930,0.00039055,-0.00190253,0.00238954,0.00060272,0.001350
 24,0.00046921,-0.00068390,0.00075785,0.00000064,-0.00012302,-0.0000590
 5,0.00000110,-0.00002202,-0.00001863,0.00001567,0.00000271,0.00000516,
 0.00000276,-0.00000286,-0.00000069,-0.00000231,0.00000011,0.00000814,0
 .00001046,-0.00000201,-0.00000314,-0.00000515,0.00000135,-0.00000141,-
 0.00000235,-0.00000144,-0.00000023,-0.00000075,0.00000408,0.00000419,0
 .00000370,-0.00061181,0.00005143,0.00002560,0.00005106,0.00033311,0.00
 001513,-0.00007986,0.00008184,-0.00014864,0.03013943,-0.10148669,-0.05
 048627,-0.00164497,0.00061641,-0.00058687,0.02565297,-0.02684014,-0.00
 814113,-0.03791714,0.16830363,0.00005819,-0.00047643,0.00066492,0.0019
 1664,0.00052437,0.00005206,-0.00147046,-0.00053287,0.00013060,0.000464
 66,0.00026541,0.00002155,0.00073449,-0.00024572,0.00005818,-0.00022142
 ,-0.00011411,-0.00001132,0.00002347,0.00005332,-0.00003595,0.00000613,
 -0.00003621,0.00000797,0.00216324,0.00586435,-0.00226790,0.00564611,-0
 .01923806,-0.00646079,0.00308062,0.00190004,-0.00099370,-0.00045874,-0
 .00096118,0.00042162,0.00062995,0.00004791,-0.00021708,-0.00009807,0.0
 0006448,-0.00013026,-0.00003633,0.00007462,-0.00005713,0.00001634,0.00
 001592,-0.00000687,0.00004802,0.00001386,-0.00001304,0.00000061,0.0000
 0436,0.00000709,-0.00000429,-0.00000787,0.00000713,-0.00000371,0.00000
 339,0.00000016,0.00002503,-0.00000738,-0.00000232,0.00000172,0.0000122
 0,0.00000109,-0.00034723,-0.00014230,-0.00037658,0.00006486,0.00093038
 ,-0.00009560,-0.00012259,0.00000475,-0.00006147,0.04312491,-0.05007176
 ,-0.12407627,0.00086225,0.00038016,-0.00106407,-0.00725442,0.01049382,
 0.00796823,-0.04861047,0.08781974,0.17236214,0.00231608,-0.00035575,-0
 .00051629,-0.00113008,0.00006175,0.00002176,0.00119561,0.00030590,-0.0
 0014213,-0.00036275,-0.00024284,0.00003495,-0.00050174,0.00017734,-0.0
 0004807,0.00018346,0.00007296,-0.00000925,-0.00001402,-0.00003314,0.00
 001942,-0.00000193,0.00002285,-0.00000732,-0.00389921,-0.00132725,-0.0
 0225731,0.00109767,-0.01525004,-0.00541962,-0.00174523,0.00087199,-0.0
 0120805,-0.00085902,0.00005291,0.00070323,0.00016852,-0.00101570,0.000
 04349,0.00013958,-0.00001691,0.00007954,0.00004261,-0.00004732,0.00001
 764,-0.00001334,-0.00000944,0.00000319,-0.00003989,-0.00001239,0.00001
 765,0.00000105,-0.00000165,-0.00000733,0.00000584,0.00000269,0.0000023
 6,0.00000025,-0.00000459,0.00000460,-0.00001934,0.00000703,0.00000010,
 -0.00000070,-0.00000802,-0.00000139,-0.00032330,-0.00230168,0.00036187
 ,0.00002111,-0.00075490,0.00015502,0.00012820,-0.00007588,0.00008141,-
 0.06650379,0.01317523,0.01402737,-0.00010503,-0.00035400,-0.00010781,0
 .00646946,-0.00169944,-0.01035111,0.00566697,0.00225159,0.00053316,0.1
 0471270,0.00217133,0.00026989,0.00048981,-0.00261814,0.00016874,0.0004
 9451,0.00201902,-0.00003859,-0.00027791,-0.00066283,0.00011529,0.00011
 099,-0.00102720,0.00054437,-0.00003923,0.00025298,0.00012177,-0.000025
 45,-0.00002900,-0.00009558,0.00000986,-0.00001475,0.00004987,-0.000005
 81,-0.00242743,-0.00459383,-0.00021796,0.01190874,-0.01937979,-0.01928
 810,-0.00747502,0.00073041,-0.00154700,0.00004544,0.00026090,0.0015954
 4,-0.00028796,-0.00093065,-0.00018997,-0.00010762,-0.00025563,-0.00011
 447,-0.00002259,-0.00013459,0.00003170,-0.00000614,-0.00000096,0.00001
 543,-0.00007379,-0.00002816,0.00001901,-0.00000049,0.00002615,0.000019
 08,0.00000331,-0.00000366,-0.00000867,0.00000266,-0.00001127,0.0000010
 9,-0.00003398,0.00000685,-0.00000239,0.00001043,-0.00000020,0.00000700
 ,-0.00164582,-0.00017669,-0.00080690,-0.00035235,-0.00138847,0.0003894
 4,0.00016750,0.00006832,-0.00012174,0.01260614,-0.13071192,-0.06005183
 ,0.00016031,0.00051181,-0.00054575,0.00172450,0.00682339,0.00351638,0.
 00560301,0.00105233,-0.00587475,-0.03474065,0.16718922,0.00040713,-0.0
 0016424,0.00014259,-0.00090801,0.00001671,0.00038688,0.00065727,-0.000
 00250,-0.00017955,-0.00020599,0.00007202,0.00009265,-0.00035537,0.0001
 6087,0.00004420,0.00007959,0.00004723,-0.00002700,-0.00001306,-0.00003
 696,-0.00001129,-0.00000421,0.00001767,-0.00000136,-0.00138773,-0.0012
 9721,0.00098128,0.01209637,-0.00487815,-0.00314747,-0.00514323,-0.0009
 4809,0.00024000,0.00112113,-0.00034775,0.00024461,-0.00047053,0.000122
 88,-0.00005190,-0.00005864,-0.00009586,-0.00022322,-0.00002217,-0.0000
 3968,-0.00004835,0.00000198,0.00000612,0.00000500,-0.00003164,-0.00001
 629,0.00001440,0.00000172,0.00001773,0.00001041,0.00000346,-0.00000618
 ,0.00000651,-0.00000320,-0.00000669,0.00000457,-0.00000991,0.00000027,
 -0.00000294,0.00000624,0.00000522,0.00000363,-0.00080328,-0.00043236,-
 0.00094035,-0.00027012,-0.00069123,0.00020580,0.00003434,0.00001297,-0
 .00008892,0.01434259,-0.06038797,-0.10989876,0.00008285,0.00021792,-0.
 00030694,-0.00285588,-0.01604514,-0.04305192,0.00234107,-0.00393144,-0
 .00130424,-0.04131493,0.08866688,0.16689820,0.00029617,-0.00065323,0.0
 0144399,-0.00275228,-0.00040253,0.00061980,0.00242624,0.00060711,-0.00
 019862,-0.00074321,-0.00031689,0.00012470,-0.00118780,0.00044646,-0.00
 004571,0.00037472,0.00017592,-0.00006570,-0.00004048,-0.00008753,0.000
 03171,-0.00000781,0.00005562,-0.00001086,-0.00109369,-0.00757565,-0.00
 128520,-0.01825608,0.01795462,-0.02145223,-0.00538029,-0.00232860,-0.0
 0079155,0.00141599,0.00195496,0.00007923,-0.00153598,0.00046950,-0.000
 08024,0.00011130,-0.00014129,-0.00006059,0.00004358,-0.00011961,0.0000
 1634,-0.00002149,-0.00001302,0.00001028,-0.00008782,-0.00003211,0.0000
 3990,0.00000146,0.00000854,-0.00000506,0.00001145,-0.00000060,0.000005
 43,0.00000032,-0.00001205,0.00001051,-0.00004112,0.00001164,-0.0000010
 3,0.00000298,-0.00001105,-0.00000061,0.00041271,0.00003039,-0.00056930
 ,-0.00002936,-0.00139957,0.00022527,0.00020456,-0.00000815,-0.00009835
 ,-0.11524576,0.02774359,-0.05585777,-0.00103909,-0.00089133,-0.0003778
 0,0.00425102,0.00592772,-0.00552434,0.00715392,0.00165575,0.00140942,-
 0.01018666,0.01869365,-0.00634850,0.13703266,0.00004659,-0.00109197,0.
 00016144,-0.00066026,0.00041875,0.00008231,0.00042552,-0.00007808,-0.0
 0000506,-0.00009263,0.00007657,-0.00001047,-0.00019061,0.00014455,-0.0
 0006104,0.00003476,0.00001368,0.00001362,-0.00000178,-0.00002281,0.000
 00178,-0.00000481,0.00001019,-0.00000087,0.00057849,0.00020413,-0.0005
 5368,-0.00867677,0.00069816,0.00065058,-0.00081091,-0.00299086,-0.0016
 8602,0.00041175,0.00134157,-0.00094384,-0.00075911,0.00066917,0.000040
 94,-0.00010166,-0.00007692,0.00000456,-0.00001461,-0.00003540,0.000032
 63,-0.00000123,0.00000145,0.00000300,-0.00001163,-0.00000335,-0.000002
 76,0.00000056,0.00000512,0.00000799,-0.00000158,0.00000033,-0.00000777
 ,0.00000198,-0.00000113,-0.00000359,-0.00000657,0.00000139,0.00000008,
 0.00000305,0.00000042,0.00000314,-0.00053184,0.00007081,-0.00000260,0.
 00002091,0.00012182,-0.00007988,-0.00003317,0.00011118,0.00012494,0.02
 885717,-0.08041088,0.03466862,-0.00170058,0.00071156,0.00059699,0.0026
 3782,0.00296906,0.00236486,-0.00216895,0.00604013,-0.01325086,0.029491
 38,-0.02686748,0.00952951,-0.04328165,0.12944411,0.00000451,0.00116489
 ,0.00005825,-0.00107025,-0.00045968,0.00037426,0.00079321,0.00036709,-
 0.00013333,-0.00025115,-0.00016774,0.00008733,-0.00042204,0.00009197,0
 .00005271,0.00012838,0.00007625,-0.00003959,-0.00001971,-0.00003356,0.
 00000049,-0.00000162,0.00001944,-0.00000606,-0.00252558,-0.00465077,0.
 00038817,-0.00096568,0.01350342,-0.00439236,-0.00176134,-0.00079762,0.
 00100442,0.00003639,0.00023383,0.00026260,-0.00007477,-0.00040466,0.00
 002076,0.00007946,-0.00004849,-0.00012361,0.00001455,-0.00003183,-0.00
 003979,-0.00000434,-0.00000161,0.00000313,-0.00003564,-0.00001587,0.00
 002253,0.00000073,0.00000856,-0.00000110,0.00000607,-0.00000351,0.0000
 1045,-0.00000364,-0.00000595,0.00000820,-0.00001289,0.00000234,-0.0000
 0211,0.00000205,-0.00000040,-0.00000043,0.00029624,0.00000801,-0.00031
 428,-0.00005246,-0.00063948,0.00013725,0.00006510,-0.00005408,-0.00009
 568,-0.05579718,0.03432737,-0.11886846,-0.00043768,-0.00050401,-0.0007
 6329,-0.00284940,0.00345658,-0.00178960,-0.01474233,0.00093580,-0.0430
 2401,0.00529903,-0.00727202,0.00798803,0.07311004,-0.06969470,0.179468
 60,0.00119251,-0.00048089,-0.00014094,-0.00135169,-0.00003177,0.000179
 18,0.00134184,0.00028469,-0.00015659,-0.00040322,-0.00022954,0.0000582
 1,-0.00059506,0.00024502,-0.00000772,0.00021922,0.00008114,-0.00002783
 ,-0.00001700,-0.00004172,0.00001358,-0.00000167,0.00002768,-0.00000345
 ,0.00010423,-0.00005638,0.00003743,0.00127237,-0.00119167,0.00028741,-
 0.00089989,-0.00003208,0.00011344,0.00007587,0.00060954,-0.00006923,-0
 .00030169,-0.00014367,0.00006448,0.00010216,-0.00003004,-0.00001784,0.
 00003730,-0.00006036,0.00000460,-0.00001354,-0.00000702,0.00000389,-0.
 00004840,-0.00001618,0.00002258,0.00000084,0.00000109,-0.00000540,0.00
 000818,-0.00000032,0.00000447,0.00000017,-0.00000706,0.00000663,-0.000
 02389,0.00000893,-0.00000100,0.00000078,-0.00000805,-0.00000113,0.0004
 7216,-0.00018469,-0.00005098,-0.00000311,-0.00068884,0.00008911,0.0000
 8155,-0.00001412,-0.00000899,-0.13645038,-0.05574753,0.01696768,-0.000
 04420,0.00009490,-0.00003276,-0.05240636,-0.01048152,-0.01855068,-0.00
 061033,-0.01283590,-0.00218211,-0.03644307,-0.00384325,0.02903066,0.00
 390985,-0.00345963,0.00119195,0.22079449,0.00050246,-0.00049512,0.0001
 5012,-0.00114123,0.00013078,0.00010407,0.00091113,0.00005576,-0.000146
 18,-0.00026710,-0.00001562,0.00003901,-0.00044945,0.00022918,-0.000029
 29,0.00012662,0.00005374,0.00000894,-0.00001172,-0.00003795,0.00000819
 ,-0.00000548,0.00002042,-0.00000502,-0.00040933,-0.00102578,0.00012759
 ,-0.00134101,0.00233900,0.00018229,0.00038398,-0.00000389,-0.00010304,
 0.00037203,0.00084716,-0.00006684,-0.00043539,0.00015459,-0.00005728,-
 0.00000626,-0.00007914,0.00000357,0.00000621,-0.00005872,0.00002556,-0
 .00000473,-0.00000314,0.00000557,-0.00003213,-0.00001079,0.00000878,0.
 00000012,0.00000718,0.00000565,0.00000224,-0.00000056,-0.00000471,0.00
 000145,-0.00000460,0.00000017,-0.00001676,0.00000498,-0.00000087,0.000
 00323,-0.00000220,0.00000251,-0.00008889,0.00004631,-0.00001285,-0.000
 05701,-0.00028957,0.00003763,0.00004782,0.00003130,-0.00001090,-0.0554
 1303,-0.09821049,0.01208961,-0.00001617,0.00046058,-0.00008268,0.00426
 922,0.00740845,0.00337804,-0.02846740,-0.04582405,-0.01751359,0.011757
 98,0.00667816,-0.00956628,-0.01846061,-0.03147529,0.03059042,0.0882392
 3,0.15906930,-0.00017047,0.00017902,0.00044853,0.00032598,-0.00000027,
 0.00001177,-0.00029540,-0.00007084,-0.00004178,0.00008846,0.00004820,0
 .00002734,0.00012954,-0.00006654,0.00004436,-0.00004227,-0.00001601,-0
 .00001369,0.00000215,0.00000854,-0.00001285,0.00000166,-0.00000654,0.0
 0000250,0.00003013,0.00011843,-0.00016676,0.00032426,0.00016440,0.0024
 5179,0.00003799,-0.00001351,-0.00016339,-0.00001818,-0.00014847,0.0002
 8664,0.00005280,-0.00004790,-0.00035804,-0.00002170,0.00000174,-0.0000
 8861,-0.00001226,0.00001787,-0.00003820,0.00000504,0.00000533,-0.00000
 146,0.00000556,-0.00000033,0.00000160,0.00000046,0.00000440,0.00000241
 ,0.00000017,-0.00000340,0.00000607,-0.00000224,-0.00000069,0.00000239,
 0.00000556,-0.00000246,-0.00000154,0.00000130,0.00000451,0.00000020,-0
 .00006581,-0.00000882,-0.00017359,0.00000655,0.00012214,-0.00001417,-0
 .00001811,-0.00000597,-0.00001606,0.01700932,0.01215897,-0.06108483,-0
 .00001483,-0.00009501,-0.00015841,-0.03324723,-0.00331145,-0.00314471,
 -0.01293141,-0.02890663,-0.00150412,0.03998479,0.00102332,-0.01798453,
 0.01564684,0.03801616,-0.02029348,-0.02681865,-0.01916819,0.10197461\\
 -0.00000007,-0.00000036,-0.00000174,-0.00000235,-0.00000095,0.00000040
 ,0.00000513,-0.00000275,-0.00000080,-0.00000031,-0.00000052,-0.0000025
 9,-0.00000189,0.00000148,0.00000197,-0.00000029,-0.00000240,0.00000279
 ,-0.00000025,-0.00000166,0.00000569,0.00000003,-0.00000258,0.00000588,
 0.00000004,0.00000188,-0.00000052,-0.00000020,0.00000171,-0.00000287,0
 .00000022,0.00000134,-0.00000636,0.00000104,0.00000079,-0.00000758,0.0
 0000084,-0.00000002,-0.00000551,-0.00000059,-0.00000012,0.00000228,0.0
 0000069,-0.00000089,0.00000577,0.00000010,-0.00000070,0.00000033,0.000
 00025,-0.00000503,0.00000139,0.00000009,-0.00000328,0.00000787,-0.0000
 0084,0.00000079,0.00000675,0.00000066,-0.00000545,0.00000478,-0.000000
 36,-0.00000246,0.00000815,-0.00000007,-0.00000098,0.00000368,-0.000000
 79,0.00000201,0.00000216,0.00000130,0.,-0.00001204,0.00000112,-0.00000
 068,-0.00000675,-0.00000110,0.00000362,-0.00000116,0.00000035,0.000001
 63,-0.00000806,-0.00000137,0.00000599,0.00000166,-0.00000109,0.0000059
 4,-0.00000440,0.,-0.00000044,0.00000201,0.00000058,0.00000018,-0.00000
 360,-0.00000086,0.00000393,0.00000042\\\@


 THE MORE POWERFUL THE METHOD, THE MORE CATASTROPHIC THE ERRORS.
     -- M.D. KAMEN
 Job cpu time:       0 days  5 hours 55 minutes 26.8 seconds.
 File lengths (MBytes):  RWF=    951 Int=      0 D2E=      0 Chk=     27 Scr=      1
 Normal termination of Gaussian 09 at Thu Nov 14 11:12:24 2019.
pbs_rusage has been removed.
Please contact help@nci.org.au if you require this functionality.
