 Entering Gaussian System, Link 0=/apps/gaussian/g09e01/g09/g09
 Initial command:
 /apps/gaussian/g09e01/g09/l1.exe "/jobfs/local/3579178.r-man2/Gau-27480.inp" -scrdir="/jobfs/local/3579178.r-man2/"
 Entering Link 1 = /apps/gaussian/g09e01/g09/l1.exe PID=     27485.
  
 Copyright (c) 1988,1990,1992,1993,1995,1998,2003,2009,2015,
            Gaussian, Inc.  All Rights Reserved.
  
 This is part of the Gaussian(R) 09 program.  It is based on
 the Gaussian(R) 03 system (copyright 2003, Gaussian, Inc.),
 the Gaussian(R) 98 system (copyright 1998, Gaussian, Inc.),
 the Gaussian(R) 94 system (copyright 1995, Gaussian, Inc.),
 the Gaussian 92(TM) system (copyright 1992, Gaussian, Inc.),
 the Gaussian 90(TM) system (copyright 1990, Gaussian, Inc.),
 the Gaussian 88(TM) system (copyright 1988, Gaussian, Inc.),
 the Gaussian 86(TM) system (copyright 1986, Carnegie Mellon
 University), and the Gaussian 82(TM) system (copyright 1983,
 Carnegie Mellon University). Gaussian is a federally registered
 trademark of Gaussian, Inc.
  
 This software contains proprietary and confidential information,
 including trade secrets, belonging to Gaussian, Inc.
  
 This software is provided under written license and may be
 used, copied, transmitted, or stored only in accord with that
 written license.
  
 The following legend is applicable only to US Government
 contracts under FAR:
  
                    RESTRICTED RIGHTS LEGEND
  
 Use, reproduction and disclosure by the US Government is
 subject to restrictions as set forth in subparagraphs (a)
 and (c) of the Commercial Computer Software - Restricted
 Rights clause in FAR 52.227-19.
  
 Gaussian, Inc.
 340 Quinnipiac St., Bldg. 40, Wallingford CT 06492
  
  
 ---------------------------------------------------------------
 Warning -- This program may not be used in any manner that
 competes with the business of Gaussian, Inc. or will provide
 assistance to any competitor of Gaussian, Inc.  The licensee
 of this program is prohibited from giving any competitor of
 Gaussian, Inc. access to this program.  By using this program,
 the user acknowledges that Gaussian, Inc. is engaged in the
 business of creating and licensing software in the field of
 computational chemistry and represents and warrants to the
 licensee that it is not a competitor of Gaussian, Inc. and that
 it will not use this program in any manner prohibited above.
 ---------------------------------------------------------------
  

 Cite this work as:
 Gaussian 09, Revision E.01,
 M. J. Frisch, G. W. Trucks, H. B. Schlegel, G. E. Scuseria, 
 M. A. Robb, J. R. Cheeseman, G. Scalmani, V. Barone, B. Mennucci, 
 G. A. Petersson, H. Nakatsuji, M. Caricato, X. Li, H. P. Hratchian, 
 A. F. Izmaylov, J. Bloino, G. Zheng, J. L. Sonnenberg, M. Hada, 
 M. Ehara, K. Toyota, R. Fukuda, J. Hasegawa, M. Ishida, T. Nakajima, 
 Y. Honda, O. Kitao, H. Nakai, T. Vreven, J. A. Montgomery, Jr., 
 J. E. Peralta, F. Ogliaro, M. Bearpark, J. J. Heyd, E. Brothers, 
 K. N. Kudin, V. N. Staroverov, T. Keith, R. Kobayashi, J. Normand, 
 K. Raghavachari, A. Rendell, J. C. Burant, S. S. Iyengar, J. Tomasi, 
 M. Cossi, N. Rega, J. M. Millam, M. Klene, J. E. Knox, J. B. Cross, 
 V. Bakken, C. Adamo, J. Jaramillo, R. Gomperts, R. E. Stratmann, 
 O. Yazyev, A. J. Austin, R. Cammi, C. Pomelli, J. W. Ochterski, 
 R. L. Martin, K. Morokuma, V. G. Zakrzewski, G. A. Voth, 
 P. Salvador, J. J. Dannenberg, S. Dapprich, A. D. Daniels, 
 O. Farkas, J. B. Foresman, J. V. Ortiz, J. Cioslowski, 
 and D. J. Fox, Gaussian, Inc., Wallingford CT, 2013.
 
 ******************************************
 Gaussian 09:  ES64L-G09RevE.01 30-Nov-2015
                14-Nov-2019 
 ******************************************
 %chk=CP22.M062X_6-311pGd_opt_Pentadecane_GD3.chk
 %mem=196608000
 %nproc=4
 Will use up to    4 processors via shared memory.
 ----------------------------------------------------------------------
 # M062X/6-311+G* SCF=Tight INT(grid=ultrafine) OPT IOP(2/17=4) Empiric
 alDispersion=GD3 SCRF=(SMD,Solvent=n-Pentadecane) maxdisk=2684354560
 ----------------------------------------------------------------------
 1/14=-1,18=20,19=15,26=4,38=1/1,3;
 2/9=110,12=2,17=4,18=5,40=1/2;
 3/5=4,6=6,7=11,11=2,16=1,25=1,30=1,70=32201,71=1,72=151,74=-55,75=-5,124=31/1,2,3;
 4//1;
 5/5=2,32=2,38=5,53=151/2;
 6/7=2,8=2,9=2,10=2,28=1/1;
 7//1,2,3,16;
 1/14=-1,18=20,19=15,26=4/3(2);
 2/9=110,17=4/2;
 99//99;
 2/9=110,17=4/2;
 3/5=4,6=6,7=11,11=2,16=1,25=1,30=1,70=32205,71=1,72=151,74=-55,75=-5,124=31/1,2,3;
 4/5=5,16=3,69=1/1;
 5/5=2,32=2,38=5,53=151/2;
 7//1,2,3,16;
 1/14=-1,18=20,19=15,26=4/3(-5);
 2/9=110,17=4/2;
 6/7=2,8=2,9=2,10=2,19=2,28=1/1;
 99/9=1/99;
 ---------------------------------------
 CP22.M062X_6-311pGd_opt_Pentadecane_GD3
 ---------------------------------------
 Symbolic Z-matrix:
 Charge =  0 Multiplicity = 1
 C                    -5.93326   1.19944   0.25684 
 N                    -4.67701   0.59832   0.23084 
 C                    -3.44295   1.2245    0.07049 
 O                    -3.31683   2.42142  -0.09474 
 N                    -2.3923    0.35691   0.09158 
 C                    -1.02616   0.86122   0.03544 
 C                    -0.05027  -0.28111  -0.20482 
 C                     1.3884    0.21873  -0.26862 
 C                    -6.12664   2.58599   0.27012 
 C                    -7.42693   3.05817   0.31533 
 C                    -8.55221   2.25137   0.3483 
 C                    -8.32361   0.8828    0.33431 
 C                    -7.04754   0.35189   0.28883 
 H                    -4.68118  -0.41167   0.22522 
 H                    -2.5267   -0.56748   0.47628 
 H                    -0.77502   1.39191   0.96101 
 H                    -0.97082   1.588    -0.77666 
 H                    -0.31656  -0.78742  -1.13763 
 H                    -0.14769  -1.02037   0.5989 
 H                     1.51773   0.94221  -1.07749 
 H                     2.08453  -0.60337  -0.44423 
 H                     1.67983   0.70768   0.66441 
 H                    -5.28069   3.25402   0.24032 
 Cl                   -9.68541  -0.20122   0.37336 
 H                    -6.91452  -0.72445   0.27821 
 S                    -7.66958   4.85464   0.3337 
 H                    -9.55646   2.65018   0.38257 
 F                    -6.58321   5.09348  -0.83395 
 F                    -8.84314   4.78119  -0.77657 
 F                    -6.52312   5.07628   1.44777 
 F                    -8.7832    4.76465   1.50355 
 F                    -7.89223   6.4502    0.35205 
 

 GradGradGradGradGradGradGradGradGradGradGradGradGradGradGradGradGradGrad
 Berny optimization.
 Initialization pass.
                           ----------------------------
                           !    Initial Parameters    !
                           ! (Angstroms and Degrees)  !
 --------------------------                            --------------------------
 ! Name  Definition              Value          Derivative Info.                !
 --------------------------------------------------------------------------------
 ! R1    R(1,2)                  1.3929         estimate D2E/DX2                !
 ! R2    R(1,9)                  1.4            estimate D2E/DX2                !
 ! R3    R(1,13)                 1.4004         estimate D2E/DX2                !
 ! R4    R(2,3)                  1.3931         estimate D2E/DX2                !
 ! R5    R(2,14)                 1.01           estimate D2E/DX2                !
 ! R6    R(3,4)                  1.2148         estimate D2E/DX2                !
 ! R7    R(3,5)                  1.3627         estimate D2E/DX2                !
 ! R8    R(5,6)                  1.4573         estimate D2E/DX2                !
 ! R9    R(5,15)                 1.0102         estimate D2E/DX2                !
 ! R10   R(6,7)                  1.5215         estimate D2E/DX2                !
 ! R11   R(6,16)                 1.0961         estimate D2E/DX2                !
 ! R12   R(6,17)                 1.0912         estimate D2E/DX2                !
 ! R13   R(7,8)                  1.5244         estimate D2E/DX2                !
 ! R14   R(7,18)                 1.0943         estimate D2E/DX2                !
 ! R15   R(7,19)                 1.0963         estimate D2E/DX2                !
 ! R16   R(8,20)                 1.0929         estimate D2E/DX2                !
 ! R17   R(8,21)                 1.0915         estimate D2E/DX2                !
 ! R18   R(8,22)                 1.093          estimate D2E/DX2                !
 ! R19   R(9,10)                 1.3841         estimate D2E/DX2                !
 ! R20   R(9,23)                 1.0783         estimate D2E/DX2                !
 ! R21   R(10,11)                1.385          estimate D2E/DX2                !
 ! R22   R(10,26)                1.8129         estimate D2E/DX2                !
 ! R23   R(11,12)                1.3876         estimate D2E/DX2                !
 ! R24   R(11,27)                1.0811         estimate D2E/DX2                !
 ! R25   R(12,13)                1.3829         estimate D2E/DX2                !
 ! R26   R(12,24)                1.741          estimate D2E/DX2                !
 ! R27   R(13,25)                1.0846         estimate D2E/DX2                !
 ! R28   R(26,28)                1.6127         estimate D2E/DX2                !
 ! R29   R(26,29)                1.6172         estimate D2E/DX2                !
 ! R30   R(26,30)                1.6139         estimate D2E/DX2                !
 ! R31   R(26,31)                1.6176         estimate D2E/DX2                !
 ! R32   R(26,32)                1.6111         estimate D2E/DX2                !
 ! A1    A(2,1,9)              123.5151         estimate D2E/DX2                !
 ! A2    A(2,1,13)             117.1856         estimate D2E/DX2                !
 ! A3    A(9,1,13)             119.2937         estimate D2E/DX2                !
 ! A4    A(1,2,3)              127.3797         estimate D2E/DX2                !
 ! A5    A(1,2,14)             115.3367         estimate D2E/DX2                !
 ! A6    A(3,2,14)             116.9037         estimate D2E/DX2                !
 ! A7    A(2,3,4)              123.4            estimate D2E/DX2                !
 ! A8    A(2,3,5)              113.2672         estimate D2E/DX2                !
 ! A9    A(4,3,5)              123.3213         estimate D2E/DX2                !
 ! A10   A(3,5,6)              120.1214         estimate D2E/DX2                !
 ! A11   A(3,5,15)             119.0706         estimate D2E/DX2                !
 ! A12   A(6,5,15)             117.1312         estimate D2E/DX2                !
 ! A13   A(5,6,7)              110.3364         estimate D2E/DX2                !
 ! A14   A(5,6,16)             110.4752         estimate D2E/DX2                !
 ! A15   A(5,6,17)             107.8594         estimate D2E/DX2                !
 ! A16   A(7,6,16)             110.481          estimate D2E/DX2                !
 ! A17   A(7,6,17)             110.4871         estimate D2E/DX2                !
 ! A18   A(16,6,17)            107.1186         estimate D2E/DX2                !
 ! A19   A(6,7,8)              111.4547         estimate D2E/DX2                !
 ! A20   A(6,7,18)             109.021          estimate D2E/DX2                !
 ! A21   A(6,7,19)             109.4815         estimate D2E/DX2                !
 ! A22   A(8,7,18)             110.2254         estimate D2E/DX2                !
 ! A23   A(8,7,19)             109.6119         estimate D2E/DX2                !
 ! A24   A(18,7,19)            106.9362         estimate D2E/DX2                !
 ! A25   A(7,8,20)             111.0836         estimate D2E/DX2                !
 ! A26   A(7,8,21)             111.205          estimate D2E/DX2                !
 ! A27   A(7,8,22)             111.2613         estimate D2E/DX2                !
 ! A28   A(20,8,21)            107.7013         estimate D2E/DX2                !
 ! A29   A(20,8,22)            107.7042         estimate D2E/DX2                !
 ! A30   A(21,8,22)            107.713          estimate D2E/DX2                !
 ! A31   A(1,9,10)             117.8999         estimate D2E/DX2                !
 ! A32   A(1,9,23)             120.3263         estimate D2E/DX2                !
 ! A33   A(10,9,23)            121.773          estimate D2E/DX2                !
 ! A34   A(9,10,11)            124.4243         estimate D2E/DX2                !
 ! A35   A(9,10,26)            117.6539         estimate D2E/DX2                !
 ! A36   A(11,10,26)           117.9218         estimate D2E/DX2                !
 ! A37   A(10,11,12)           116.1325         estimate D2E/DX2                !
 ! A38   A(10,11,27)           122.7232         estimate D2E/DX2                !
 ! A39   A(12,11,27)           121.1443         estimate D2E/DX2                !
 ! A40   A(11,12,13)           122.0739         estimate D2E/DX2                !
 ! A41   A(11,12,24)           119.0132         estimate D2E/DX2                !
 ! A42   A(13,12,24)           118.9129         estimate D2E/DX2                !
 ! A43   A(1,13,12)            120.1757         estimate D2E/DX2                !
 ! A44   A(1,13,25)            120.1873         estimate D2E/DX2                !
 ! A45   A(12,13,25)           119.637          estimate D2E/DX2                !
 ! A46   A(10,26,28)            92.8233         estimate D2E/DX2                !
 ! A47   A(10,26,29)            92.5885         estimate D2E/DX2                !
 ! A48   A(10,26,30)            92.7511         estimate D2E/DX2                !
 ! A49   A(10,26,31)            92.5413         estimate D2E/DX2                !
 ! A50   A(28,26,29)            89.9133         estimate D2E/DX2                !
 ! A51   A(28,26,30)            90.0534         estimate D2E/DX2                !
 ! A52   A(28,26,32)            87.4019         estimate D2E/DX2                !
 ! A53   A(29,26,31)            89.6793         estimate D2E/DX2                !
 ! A54   A(29,26,32)            87.2785         estimate D2E/DX2                !
 ! A55   A(30,26,31)            89.8544         estimate D2E/DX2                !
 ! A56   A(30,26,32)            87.381          estimate D2E/DX2                !
 ! A57   A(31,26,32)            87.2331         estimate D2E/DX2                !
 ! A58   L(10,26,32,28,-1)     180.2252         estimate D2E/DX2                !
 ! A59   L(28,26,31,10,-1)     185.3646         estimate D2E/DX2                !
 ! A60   L(29,26,30,10,-1)     185.3396         estimate D2E/DX2                !
 ! A61   L(10,26,32,28,-2)     179.8671         estimate D2E/DX2                !
 ! A62   L(28,26,31,10,-2)     180.1655         estimate D2E/DX2                !
 ! A63   L(29,26,30,10,-2)     180.2301         estimate D2E/DX2                !
 ! D1    D(9,1,2,3)             -7.4483         estimate D2E/DX2                !
 ! D2    D(9,1,2,14)           179.9024         estimate D2E/DX2                !
 ! D3    D(13,1,2,3)           173.4177         estimate D2E/DX2                !
 ! D4    D(13,1,2,14)            0.7684         estimate D2E/DX2                !
 ! D5    D(2,1,9,10)          -179.0927         estimate D2E/DX2                !
 ! D6    D(2,1,9,23)             1.2303         estimate D2E/DX2                !
 ! D7    D(13,1,9,10)            0.0241         estimate D2E/DX2                !
 ! D8    D(13,1,9,23)         -179.653          estimate D2E/DX2                !
 ! D9    D(2,1,13,12)          179.111          estimate D2E/DX2                !
 ! D10   D(2,1,13,25)           -0.8809         estimate D2E/DX2                !
 ! D11   D(9,1,13,12)           -0.0612         estimate D2E/DX2                !
 ! D12   D(9,1,13,25)          179.9469         estimate D2E/DX2                !
 ! D13   D(1,2,3,4)             -1.3063         estimate D2E/DX2                !
 ! D14   D(1,2,3,5)            179.8907         estimate D2E/DX2                !
 ! D15   D(14,2,3,4)           171.2432         estimate D2E/DX2                !
 ! D16   D(14,2,3,5)            -7.5598         estimate D2E/DX2                !
 ! D17   D(2,3,5,6)           -175.4853         estimate D2E/DX2                !
 ! D18   D(2,3,5,15)           -17.7037         estimate D2E/DX2                !
 ! D19   D(4,3,5,6)              5.7106         estimate D2E/DX2                !
 ! D20   D(4,3,5,15)           163.4922         estimate D2E/DX2                !
 ! D21   D(3,5,6,7)           -168.8195         estimate D2E/DX2                !
 ! D22   D(3,5,6,16)            68.7204         estimate D2E/DX2                !
 ! D23   D(3,5,6,17)           -48.0502         estimate D2E/DX2                !
 ! D24   D(15,5,6,7)            32.9803         estimate D2E/DX2                !
 ! D25   D(15,5,6,16)          -89.4798         estimate D2E/DX2                !
 ! D26   D(15,5,6,17)          153.7496         estimate D2E/DX2                !
 ! D27   D(5,6,7,8)            179.9795         estimate D2E/DX2                !
 ! D28   D(5,6,7,18)            58.0829         estimate D2E/DX2                !
 ! D29   D(5,6,7,19)           -58.5834         estimate D2E/DX2                !
 ! D30   D(16,6,7,8)           -57.5637         estimate D2E/DX2                !
 ! D31   D(16,6,7,18)         -179.4603         estimate D2E/DX2                !
 ! D32   D(16,6,7,19)           63.8734         estimate D2E/DX2                !
 ! D33   D(17,6,7,8)            60.7944         estimate D2E/DX2                !
 ! D34   D(17,6,7,18)          -61.1022         estimate D2E/DX2                !
 ! D35   D(17,6,7,19)         -177.7685         estimate D2E/DX2                !
 ! D36   D(6,7,8,20)           -59.8769         estimate D2E/DX2                !
 ! D37   D(6,7,8,21)          -179.8184         estimate D2E/DX2                !
 ! D38   D(6,7,8,22)            60.1059         estimate D2E/DX2                !
 ! D39   D(18,7,8,20)           61.3202         estimate D2E/DX2                !
 ! D40   D(18,7,8,21)          -58.6214         estimate D2E/DX2                !
 ! D41   D(18,7,8,22)         -178.6971         estimate D2E/DX2                !
 ! D42   D(19,7,8,20)          178.7619         estimate D2E/DX2                !
 ! D43   D(19,7,8,21)           58.8204         estimate D2E/DX2                !
 ! D44   D(19,7,8,22)          -61.2553         estimate D2E/DX2                !
 ! D45   D(1,9,10,11)           -0.0052         estimate D2E/DX2                !
 ! D46   D(1,9,10,26)          179.9494         estimate D2E/DX2                !
 ! D47   D(23,9,10,11)         179.6669         estimate D2E/DX2                !
 ! D48   D(23,9,10,26)          -0.3785         estimate D2E/DX2                !
 ! D49   D(9,10,11,12)           0.0218         estimate D2E/DX2                !
 ! D50   D(9,10,11,27)        -179.9485         estimate D2E/DX2                !
 ! D51   D(26,10,11,12)       -179.9326         estimate D2E/DX2                !
 ! D52   D(26,10,11,27)          0.0971         estimate D2E/DX2                !
 ! D53   D(9,10,26,28)          44.6989         estimate D2E/DX2                !
 ! D54   D(9,10,26,29)         134.7397         estimate D2E/DX2                !
 ! D55   D(9,10,26,30)         -45.4904         estimate D2E/DX2                !
 ! D56   D(9,10,26,31)        -135.4666         estimate D2E/DX2                !
 ! D57   D(11,10,26,28)       -135.3435         estimate D2E/DX2                !
 ! D58   D(11,10,26,29)        -45.3027         estimate D2E/DX2                !
 ! D59   D(11,10,26,30)        134.4672         estimate D2E/DX2                !
 ! D60   D(11,10,26,31)         44.4909         estimate D2E/DX2                !
 ! D61   D(10,11,12,13)         -0.0595         estimate D2E/DX2                !
 ! D62   D(10,11,12,24)       -179.9876         estimate D2E/DX2                !
 ! D63   D(27,11,12,13)        179.9113         estimate D2E/DX2                !
 ! D64   D(27,11,12,24)         -0.0168         estimate D2E/DX2                !
 ! D65   D(11,12,13,1)           0.0809         estimate D2E/DX2                !
 ! D66   D(11,12,13,25)       -179.9272         estimate D2E/DX2                !
 ! D67   D(24,12,13,1)        -179.9909         estimate D2E/DX2                !
 ! D68   D(24,12,13,25)          0.001          estimate D2E/DX2                !
 --------------------------------------------------------------------------------
 Trust Radius=3.00D-01 FncErr=1.00D-07 GrdErr=1.00D-06
 Number of steps in this run=    173 maximum allowed number of steps=    192.
 GradGradGradGradGradGradGradGradGradGradGradGradGradGradGradGradGradGrad

                          Input orientation:                          
 ---------------------------------------------------------------------
 Center     Atomic      Atomic             Coordinates (Angstroms)
 Number     Number       Type             X           Y           Z
 ---------------------------------------------------------------------
      1          6           0       -5.933256    1.199439    0.256839
      2          7           0       -4.677014    0.598316    0.230837
      3          6           0       -3.442948    1.224503    0.070493
      4          8           0       -3.316827    2.421423   -0.094738
      5          7           0       -2.392299    0.356911    0.091579
      6          6           0       -1.026158    0.861220    0.035438
      7          6           0       -0.050273   -0.281108   -0.204817
      8          6           0        1.388397    0.218726   -0.268616
      9          6           0       -6.126635    2.585992    0.270121
     10          6           0       -7.426934    3.058173    0.315332
     11          6           0       -8.552209    2.251366    0.348298
     12          6           0       -8.323611    0.882799    0.334310
     13          6           0       -7.047542    0.351887    0.288829
     14          1           0       -4.681179   -0.411666    0.225221
     15          1           0       -2.526698   -0.567477    0.476277
     16          1           0       -0.775023    1.391912    0.961005
     17          1           0       -0.970820    1.587997   -0.776663
     18          1           0       -0.316565   -0.787425   -1.137630
     19          1           0       -0.147693   -1.020367    0.598897
     20          1           0        1.517734    0.942213   -1.077485
     21          1           0        2.084533   -0.603372   -0.444227
     22          1           0        1.679830    0.707685    0.664410
     23          1           0       -5.280691    3.254024    0.240318
     24         17           0       -9.685411   -0.201217    0.373364
     25          1           0       -6.914524   -0.724452    0.278206
     26         16           0       -7.669585    4.854645    0.333700
     27          1           0       -9.556465    2.650182    0.382570
     28          9           0       -6.583211    5.093479   -0.833946
     29          9           0       -8.843135    4.781189   -0.776572
     30          9           0       -6.523122    5.076276    1.447773
     31          9           0       -8.783197    4.764648    1.503547
     32          9           0       -7.892228    6.450197    0.352048
 ---------------------------------------------------------------------
                    Distance matrix (angstroms):
                    1          2          3          4          5
     1  C    0.000000
     2  N    1.392899   0.000000
     3  C    2.497396   1.393105   0.000000
     4  O    2.909046   2.297787   1.214835   0.000000
     5  N    3.643561   2.301650   1.362726   2.269730   0.000000
     6  C    4.923721   3.665522   2.444192   2.774589   1.457334
     7  C    6.083965   4.729685   3.721949   4.241010   2.445405
     8  C    7.405708   6.097767   4.946562   5.198196   3.800329
     9  C    1.400036   2.460447   3.015905   2.838173   4.352693
    10  C    2.385244   3.690541   4.392544   4.179305   5.717904
    11  C    2.823797   4.214677   5.218828   5.256845   6.449755
    12  C    2.412480   3.659140   4.899718   5.255410   5.959525
    13  C    1.400358   2.384007   3.715135   4.283496   4.659422
    14  H    2.040675   1.010006   2.057719   3.160731   2.418169
    15  H    3.843798   2.458287   2.053136   3.143864   1.010222
    16  H    5.209632   4.048268   2.817598   2.938580   2.107774
    17  H    5.083786   3.966157   2.638412   2.581351   2.071236
    18  H    6.118774   4.775615   3.909180   4.515075   2.670044
    19  H    6.206229   4.823935   4.022108   4.729742   2.681888
    20  H    7.573892   6.340732   5.099598   5.150421   4.122820
    21  H    8.247821   6.900600   5.844579   6.200501   4.609909
    22  H    7.639831   6.372552   5.182923   5.336646   4.127156
    23  H    2.155791   2.723472   2.743191   2.159224   4.093677
    24  Cl   4.006754   5.073815   6.410363   6.903348   7.319862
    25  H    2.159792   2.599694   3.986655   4.793646   4.653461
    26  S    4.047378   5.204075   5.577783   5.005060   6.938153
    27  H    3.904882   5.295490   6.285304   6.262047   7.527884
    28  F    4.095827   4.997383   5.064409   4.284341   6.391823
    29  F    4.729087   5.988978   6.521469   6.047601   7.870273
    30  F    4.098308   4.994114   5.120598   4.439360   6.416803
    31  F    4.731507   5.986555   6.565404   6.158443   7.890841
    32  F    5.605095   6.678084   6.869006   6.112686   8.212502
                    6          7          8          9         10
     6  C    0.000000
     7  C    1.521508   0.000000
     8  C    2.517007   1.524361   0.000000
     9  C    5.389321   6.735577   7.897461   0.000000
    10  C    6.773100   8.113968   9.279737   1.384116   0.000000
    11  C    7.659754   8.888322  10.165031   2.449794   1.385015
    12  C    7.303603   8.372184   9.753339   2.780591   2.353007
    13  C    6.048198   7.043163   8.455386   2.416536   2.732879
    14  H    3.874976   4.652663   6.122175   3.328259   4.425728
    15  H    2.118286   2.584294   4.062136   4.790242   6.097832
    16  H    1.096074   2.164116   2.751131   5.526563   6.887760
    17  H    1.091226   2.160547   2.774693   5.354828   6.710833
    18  H    2.144211   1.094262   2.162041   6.864300   8.213226
    19  H    2.151641   1.096336   2.155807   6.990112   8.348787
    20  H    2.777866   2.171798   1.092901   7.934382   9.296468
    21  H    3.471528   2.172226   1.091462   8.837738  10.220169
    22  H    2.782364   2.174057   1.092955   8.038930   9.411685
    23  H    4.885544   6.328711   7.344984   1.078321   2.156465
    24  Cl   8.730729   9.652800  11.100347   4.521512   3.965817
    25  H    6.102963   6.895492   8.374193   3.402921   3.817354
    26  S    7.757030   9.204339  10.193211   2.744362   1.812878
    27  H    8.722788   9.965198  11.230584   3.432273   2.169304
    28  F    7.039082   8.482998   9.361055   2.777574   2.484991
    29  F    8.782406  10.162095  11.214203   3.646070   2.483277
    30  F    7.069512   8.563316   9.441076   2.783089   2.484359
    31  F    8.807028  10.229473  11.281281   3.650370   2.482612
    32  F    8.858884  10.349725  11.195823   4.249248   3.423985
                   11         12         13         14         15
    11  C    0.000000
    12  C    1.387598   0.000000
    13  C    2.423960   1.382856   0.000000
    14  H    4.700187   3.867150   2.487314   0.000000
    15  H    6.653498   5.977262   4.617185   2.174649   0.000000
    16  H    7.848483   7.591649   6.393588   4.364897   2.672551
    17  H    7.693052   7.469612   6.292042   4.332342   2.938823
    18  H    8.903261   8.310779   6.974157   4.587855   2.745498
    19  H    9.022356   8.398672   7.041813   4.589406   2.424831
    20  H   10.254291   9.942272   8.693633   6.477388   4.588111
    21  H   11.041643  10.542499   9.211117   6.801453   4.702346
    22  H   10.352656  10.010418   8.742693   6.473660   4.399580
    23  H    3.423420   3.858873   3.398016   3.714421   4.716357
    24  Cl   2.701840   1.741009   2.696557   5.010845   7.168815
    25  H    3.397413   2.138207   1.084579   2.255764   4.395099
    26  S    2.748872   4.025333   4.545743   6.056101   7.474558
    27  H    1.081092   2.155434   3.403769   5.759173   7.731736
    28  F    3.654074   4.703577   4.894786   5.919981   7.086494
    29  F    2.783877   4.086735   4.896729   6.729874   8.371096
    30  F    3.647760   4.697532   4.892650   5.916493   6.983349
    31  F    2.775705   4.080084   4.894946   6.727175   8.284360
    32  F    4.250384   5.584113   6.156856   7.577076   8.834710
                   16         17         18         19         20
    16  H    0.000000
    17  H    1.759624   0.000000
    18  H    3.060060   2.490176   0.000000
    19  H    2.518681   3.061579   1.760201   0.000000
    20  H    3.100711   2.588519   2.521888   3.071747   0.000000
    21  H    3.759374   3.774624   2.505984   2.498965   1.763834
    22  H    2.565627   3.142862   3.077059   2.516008   1.765072
    23  H    4.928275   4.731267   6.547870   6.689295   7.300661
    24  Cl   9.070744   8.970393   9.507997   9.575485  11.354419
    25  H    6.529830   6.464348   6.748454   6.780886   8.701646
    26  S    7.740737   7.535074   9.384277   9.548033  10.084909
    27  H    8.889969   8.728423   9.975164  10.101718  11.299858
    28  F    7.117478   6.617448   8.599308   8.991553   9.105911
    29  F    8.921928   8.495283  10.190300  10.543276  11.053320
    30  F    6.844861   6.924180   8.921247   8.862039   9.387373
    31  F    8.706351   8.736344  10.463517  10.433442  11.286359
    32  F    8.752810   8.533514  10.582674  10.763274  10.996764
                   21         22         23         24         25
    21  H    0.000000
    22  H    1.764010   0.000000
    23  H    8.342340   7.423783   0.000000
    24  Cl  11.805158  11.405240   5.599816   0.000000
    25  H    9.028820   8.721416   4.301060   2.821461   0.000000
    26  S   11.204371  10.233191   2.877067   5.443057   5.630232
    27  H   12.115363  11.406448   4.320544   2.854328   4.287061
    28  F   10.379584   9.474075   2.496837   6.254203   5.932535
    29  F   12.186791  11.375529   4.007156   5.182292   5.928252
    30  F   10.484741   9.326664   2.514395   6.245507   5.930390
    31  F   12.276685  11.253356   4.018119   5.172148   5.926518
    32  F   12.244290  11.166840   4.128938   6.888923   7.241336
                   26         27         28         29         30
    26  S    0.000000
    27  H    2.902131   0.000000
    28  F    1.612652   4.036069   0.000000
    29  F    1.617195   2.528565   2.282121   0.000000
    30  F    1.613895   4.027624   2.282576   3.227576   0.000000
    31  F    1.617645   2.515054   3.226755   2.280967   2.282139
    32  F    1.611116   4.148582   2.227283   2.227913   2.227717
                   31         32
    31  F    0.000000
    32  F    2.227297   0.000000
 Stoichiometry    C10H12ClF5N2OS
 Framework group  C1[X(C10H12ClF5N2OS)]
 Deg. of freedom    90
 Full point group                 C1      NOp   1
 Largest Abelian subgroup         C1      NOp   1
 Largest concise Abelian subgroup C1      NOp   1
                         Standard orientation:                         
 ---------------------------------------------------------------------
 Center     Atomic      Atomic             Coordinates (Angstroms)
 Number     Number       Type             X           Y           Z
 ---------------------------------------------------------------------
      1          6           0       -0.478442    1.123622    0.043895
      2          7           0       -1.870202    1.153083    0.091909
      3          6           0       -2.742782    0.071174   -0.002000
      4          8           0       -2.372651   -1.074186   -0.166245
      5          7           0       -4.054958    0.428963    0.082865
      6          6           0       -5.092340   -0.594428    0.101083
      7          6           0       -6.463826    0.039640   -0.077720
      8          6           0       -7.569422   -1.009702   -0.063038
      9          6           0        0.270011   -0.059548    0.038867
     10          6           0        1.649683    0.046961    0.008238
     11          6           0        2.342014    1.246236   -0.017936
     12          6           0        1.568913    2.398496   -0.011725
     13          6           0        0.187038    2.355469    0.017583
     14          1           0       -2.283280    2.074754    0.091454
     15          1           0       -4.293411    1.333503    0.464306
     16          1           0       -5.052309   -1.164339    1.036484
     17          1           0       -4.886367   -1.294229   -0.710475
     18          1           0       -6.480408    0.593461   -1.021339
     19          1           0       -6.637127    0.768000    0.723161
     20          1           0       -7.431927   -1.736940   -0.867185
     21          1           0       -8.550964   -0.550886   -0.194768
     22          1           0       -7.582852   -1.558065    0.882302
     23          1           0       -0.225362   -1.017241    0.053203
     24         17           0        2.362333    3.947877   -0.043665
     25          1           0       -0.378432    3.280967    0.020212
     26         16           0        2.612287   -1.489235    0.003326
     27          1           0        3.421617    1.297386   -0.042418
     28          9           0        1.660351   -2.175936   -1.102525
     29          9           0        3.589810   -0.959141   -1.170884
     30          9           0        1.720716   -2.143078    1.179016
     31          9           0        3.650499   -0.926854    1.109046
     32          9           0        3.473826   -2.850644    0.000593
 ---------------------------------------------------------------------
 Rotational constants (GHZ):      0.3769664      0.1332360      0.1026373
 Standard basis: 6-311+G(d) (5D, 7F)
 There are   512 symmetry adapted cartesian basis functions of A   symmetry.
 There are   492 symmetry adapted basis functions of A   symmetry.
   492 basis functions,   811 primitive gaussians,   512 cartesian basis functions
    86 alpha electrons       86 beta electrons
       nuclear repulsion energy      2019.7044059582 Hartrees.
 NAtoms=   32 NActive=   32 NUniq=   32 SFac= 1.00D+00 NAtFMM=   60 NAOKFM=F Big=F
 Integral buffers will be    131072 words long.
 Raffenetti 2 integral format.
 Two-electron integral symmetry is turned on.
 Nuclear repulsion after empirical dispersion term =     2019.7027562192 Hartrees.
 ------------------------------------------------------------------------------
 Polarizable Continuum Model (PCM)
 =================================
 Model                : PCM (using non-symmetric T matrix).
 Atomic radii         : SMD-Coulomb.
 Polarization charges : Total charges.
 Charge compensation  : None.
 Solution method      : On-the-fly selection.
 Cavity type          : VdW (van der Waals Surface) (Alpha=1.000).
 Cavity algorithm     : GePol (No added spheres)
                        Default sphere list used, NSphG=   32.
                        Lebedev-Laikov grids with approx.  5.0 points / Ang**2.
                        Smoothing algorithm: York/Karplus (Gamma=1.0000).
                        Polarization charges: spherical gaussians, with
                                              point-specific exponents (IZeta= 3).
                        Self-potential: point-specific (ISelfS= 7).
                        Self-field    : sphere-specific E.n sum rule (ISelfD= 2).
 1st derivatives      : Analytical E(r).r(x)/FMM algorithm (CHGder, D1EAlg=3).
                        Cavity 1st derivative terms included.
 Solvent              : n-Pentadecane, Eps=   2.033300 Eps(inf)=   2.049192
 ------------------------------------------------------------------------------
 ------------------------------------------------------------------------------
 Atomic radii for non-electrostatic terms: SMD-CDS.
 ------------------------------------------------------------------------------
 Nuclear repulsion after PCM non-electrostatic terms =     2019.6965413978 Hartrees.
 One-electron integrals computed using PRISM.
 NBasis=   492 RedAO= T EigKep=  1.19D-06  NBF=   492
 NBsUse=   490 1.00D-06 EigRej=  6.79D-07 NBFU=   490
 ExpMin= 4.05D-02 ExpMax= 1.06D+05 ExpMxC= 3.62D+03 IAcc=3 IRadAn=         5 AccDes= 0.00D+00
 Harris functional with IExCor= 1009 and IRadAn=       5 diagonalized for initial guess.
 HarFok:  IExCor= 1009 AccDes= 0.00D+00 IRadAn=         5 IDoV= 1 UseB2=F ITyADJ=14
 ICtDFT=  3500011 ScaDFX=  1.000000  1.000000  1.000000  1.000000
 FoFCou: FMM=F IPFlag=           0 FMFlag=      100000 FMFlg1=           0
         NFxFlg=           0 DoJE=T BraDBF=F KetDBF=T FulRan=T
         wScrn=  0.000000 ICntrl=     500 IOpCl=  0 I1Cent=   200000004 NGrid=           0
         NMat0=    1 NMatS0=      1 NMatT0=    0 NMatD0=    1 NMtDS0=    0 NMtDT0=    0
 Petite list used in FoFCou.
 Requested convergence on RMS density matrix=1.00D-08 within 128 cycles.
 Requested convergence on MAX density matrix=1.00D-06.
 Requested convergence on             energy=1.00D-06.
 No special actions if energy rises.
 Inv3:  Mode=1 IEnd=    21115227.
 Iteration    1 A*A^-1 deviation from unit magnitude is 6.00D-15 for   2639.
 Iteration    1 A*A^-1 deviation from orthogonality  is 7.20D-15 for   2645    771.
 Iteration    1 A^-1*A deviation from unit magnitude is 6.44D-15 for   2639.
 Iteration    1 A^-1*A deviation from orthogonality  is 2.02D-15 for   2152   1555.
 Error on total polarization charges =  0.01809
 SCF Done:  E(RM062X) =  -1930.43209107     A.U. after   15 cycles
            NFock= 15  Conv=0.53D-08     -V/T= 2.0024
 SMD-CDS (non-electrostatic) energy       (kcal/mol) =      -3.90
 (included in total energy above)

 **********************************************************************

            Population analysis using the SCF density.

 **********************************************************************

 Orbital symmetries:
       Occupied  (A) (A) (A) (A) (A) (A) (A) (A) (A) (A) (A) (A)
                 (A) (A) (A) (A) (A) (A) (A) (A) (A) (A) (A) (A)
                 (A) (A) (A) (A) (A) (A) (A) (A) (A) (A) (A) (A)
                 (A) (A) (A) (A) (A) (A) (A) (A) (A) (A) (A) (A)
                 (A) (A) (A) (A) (A) (A) (A) (A) (A) (A) (A) (A)
                 (A) (A) (A) (A) (A) (A) (A) (A) (A) (A) (A) (A)
                 (A) (A) (A) (A) (A) (A) (A) (A) (A) (A) (A) (A)
                 (A) (A)
       Virtual   (A) (A) (A) (A) (A) (A) (A) (A) (A) (A) (A) (A)
                 (A) (A) (A) (A) (A) (A) (A) (A) (A) (A) (A) (A)
                 (A) (A) (A) (A) (A) (A) (A) (A) (A) (A) (A) (A)
                 (A) (A) (A) (A) (A) (A) (A) (A) (A) (A) (A) (A)
                 (A) (A) (A) (A) (A) (A) (A) (A) (A) (A) (A) (A)
                 (A) (A) (A) (A) (A) (A) (A) (A) (A) (A) (A) (A)
                 (A) (A) (A) (A) (A) (A) (A) (A) (A) (A) (A) (A)
                 (A) (A) (A) (A) (A) (A) (A) (A) (A) (A) (A) (A)
                 (A) (A) (A) (A) (A) (A) (A) (A) (A) (A) (A) (A)
                 (A) (A) (A) (A) (A) (A) (A) (A) (A) (A) (A) (A)
                 (A) (A) (A) (A) (A) (A) (A) (A) (A) (A) (A) (A)
                 (A) (A) (A) (A) (A) (A) (A) (A) (A) (A) (A) (A)
                 (A) (A) (A) (A) (A) (A) (A) (A) (A) (A) (A) (A)
                 (A) (A) (A) (A) (A) (A) (A) (A) (A) (A) (A) (A)
                 (A) (A) (A) (A) (A) (A) (A) (A) (A) (A) (A) (A)
                 (A) (A) (A) (A) (A) (A) (A) (A) (A) (A) (A) (A)
                 (A) (A) (A) (A) (A) (A) (A) (A) (A) (A) (A) (A)
                 (A) (A) (A) (A) (A) (A) (A) (A) (A) (A) (A) (A)
                 (A) (A) (A) (A) (A) (A) (A) (A) (A) (A) (A) (A)
                 (A) (A) (A) (A) (A) (A) (A) (A) (A) (A) (A) (A)
                 (A) (A) (A) (A) (A) (A) (A) (A) (A) (A) (A) (A)
                 (A) (A) (A) (A) (A) (A) (A) (A) (A) (A) (A) (A)
                 (A) (A) (A) (A) (A) (A) (A) (A) (A) (A) (A) (A)
                 (A) (A) (A) (A) (A) (A) (A) (A) (A) (A) (A) (A)
                 (A) (A) (A) (A) (A) (A) (A) (A) (A) (A) (A) (A)
                 (A) (A) (A) (A) (A) (A) (A) (A) (A) (A) (A) (A)
                 (A) (A) (A) (A) (A) (A) (A) (A) (A) (A) (A) (A)
                 (A) (A) (A) (A) (A) (A) (A) (A) (A) (A) (A) (A)
                 (A) (A) (A) (A) (A) (A) (A) (A) (A) (A) (A) (A)
                 (A) (A) (A) (A) (A) (A) (A) (A) (A) (A) (A) (A)
                 (A) (A) (A) (A) (A) (A) (A) (A) (A) (A) (A) (A)
                 (A) (A) (A) (A) (A) (A) (A) (A) (A) (A) (A) (A)
                 (A) (A) (A) (A) (A) (A) (A) (A) (A) (A) (A) (A)
                 (A) (A) (A) (A) (A) (A) (A) (A)
 The electronic state is 1-A.
 Alpha  occ. eigenvalues -- -102.69323 -90.28166 -25.28560 -25.28556 -25.28555
 Alpha  occ. eigenvalues --  -25.28553 -25.28414 -19.60256 -14.80457 -14.78035
 Alpha  occ. eigenvalues --  -10.69059 -10.63416 -10.63028 -10.61641 -10.58181
 Alpha  occ. eigenvalues --  -10.58028 -10.57623 -10.57528 -10.54453 -10.52974
 Alpha  occ. eigenvalues --   -9.83590  -8.60476  -7.56106  -7.55423  -7.55413
 Alpha  occ. eigenvalues --   -6.52902  -6.52892  -6.52450  -1.50445  -1.40357
 Alpha  occ. eigenvalues --   -1.40299  -1.37333  -1.35864  -1.19694  -1.08236
 Alpha  occ. eigenvalues --   -1.04711  -1.02129  -0.97764  -0.93378  -0.89527
 Alpha  occ. eigenvalues --   -0.87279  -0.85871  -0.79429  -0.76745  -0.74483
 Alpha  occ. eigenvalues --   -0.73841  -0.73343  -0.69680  -0.69383  -0.68226
 Alpha  occ. eigenvalues --   -0.65012  -0.64309  -0.62439  -0.61952  -0.61653
 Alpha  occ. eigenvalues --   -0.60087  -0.58408  -0.56975  -0.56319  -0.55665
 Alpha  occ. eigenvalues --   -0.55605  -0.55506  -0.55228  -0.54583  -0.53776
 Alpha  occ. eigenvalues --   -0.53141  -0.52683  -0.51686  -0.51679  -0.51533
 Alpha  occ. eigenvalues --   -0.50102  -0.49887  -0.48053  -0.47417  -0.46682
 Alpha  occ. eigenvalues --   -0.44915  -0.43528  -0.43280  -0.41284  -0.40615
 Alpha  occ. eigenvalues --   -0.39754  -0.39690  -0.36460  -0.33633  -0.33157
 Alpha  occ. eigenvalues --   -0.29562
 Alpha virt. eigenvalues --   -0.02446  -0.02001  -0.00705  -0.00383   0.01572
 Alpha virt. eigenvalues --    0.02068   0.02824   0.03108   0.03443   0.04211
 Alpha virt. eigenvalues --    0.04382   0.04811   0.05178   0.05524   0.05895
 Alpha virt. eigenvalues --    0.06415   0.06754   0.07030   0.07214   0.07804
 Alpha virt. eigenvalues --    0.08635   0.08694   0.08935   0.09422   0.09816
 Alpha virt. eigenvalues --    0.10999   0.11280   0.11661   0.11893   0.12147
 Alpha virt. eigenvalues --    0.12493   0.12697   0.12834   0.13221   0.13838
 Alpha virt. eigenvalues --    0.14169   0.14583   0.15467   0.15987   0.16822
 Alpha virt. eigenvalues --    0.17441   0.17604   0.17820   0.18072   0.18823
 Alpha virt. eigenvalues --    0.19320   0.19729   0.20277   0.20411   0.20720
 Alpha virt. eigenvalues --    0.21185   0.21330   0.21599   0.22555   0.22623
 Alpha virt. eigenvalues --    0.23061   0.23406   0.23570   0.24049   0.24889
 Alpha virt. eigenvalues --    0.24970   0.25569   0.25982   0.26232   0.26552
 Alpha virt. eigenvalues --    0.26622   0.27295   0.27519   0.28056   0.28294
 Alpha virt. eigenvalues --    0.28709   0.29083   0.29496   0.30053   0.30199
 Alpha virt. eigenvalues --    0.31371   0.31601   0.32060   0.32319   0.32605
 Alpha virt. eigenvalues --    0.32799   0.33097   0.33753   0.33932   0.34878
 Alpha virt. eigenvalues --    0.35088   0.35802   0.36339   0.36632   0.37004
 Alpha virt. eigenvalues --    0.37601   0.38328   0.38652   0.39151   0.39750
 Alpha virt. eigenvalues --    0.40332   0.40806   0.42372   0.43139   0.43291
 Alpha virt. eigenvalues --    0.44000   0.44438   0.45886   0.46335   0.46765
 Alpha virt. eigenvalues --    0.47735   0.47841   0.48465   0.48661   0.49069
 Alpha virt. eigenvalues --    0.49423   0.50068   0.50265   0.51363   0.52195
 Alpha virt. eigenvalues --    0.52389   0.54303   0.55524   0.55873   0.57727
 Alpha virt. eigenvalues --    0.58345   0.58623   0.59065   0.59669   0.59884
 Alpha virt. eigenvalues --    0.61118   0.62036   0.62593   0.63456   0.63881
 Alpha virt. eigenvalues --    0.64394   0.65430   0.66266   0.67650   0.67907
 Alpha virt. eigenvalues --    0.67929   0.69141   0.69771   0.70878   0.71155
 Alpha virt. eigenvalues --    0.71841   0.72215   0.72575   0.72989   0.73323
 Alpha virt. eigenvalues --    0.73956   0.74839   0.75764   0.76294   0.76834
 Alpha virt. eigenvalues --    0.77666   0.78219   0.80034   0.80754   0.83168
 Alpha virt. eigenvalues --    0.84391   0.85709   0.85937   0.87345   0.88760
 Alpha virt. eigenvalues --    0.91053   0.91224   0.91367   0.92386   0.92761
 Alpha virt. eigenvalues --    0.93989   0.94670   0.95492   0.95932   0.97331
 Alpha virt. eigenvalues --    0.98702   0.99388   1.00024   1.00626   1.02266
 Alpha virt. eigenvalues --    1.04434   1.05479   1.06470   1.06708   1.07214
 Alpha virt. eigenvalues --    1.09991   1.11052   1.13182   1.15110   1.17089
 Alpha virt. eigenvalues --    1.18147   1.20504   1.21185   1.21451   1.23814
 Alpha virt. eigenvalues --    1.24321   1.24939   1.26044   1.26504   1.28542
 Alpha virt. eigenvalues --    1.30347   1.33067   1.33281   1.34379   1.35832
 Alpha virt. eigenvalues --    1.36514   1.38005   1.38672   1.39124   1.41757
 Alpha virt. eigenvalues --    1.43369   1.44807   1.45585   1.45941   1.49048
 Alpha virt. eigenvalues --    1.49377   1.50591   1.51905   1.52280   1.53316
 Alpha virt. eigenvalues --    1.53941   1.55133   1.55800   1.57710   1.58784
 Alpha virt. eigenvalues --    1.60111   1.61353   1.62483   1.63037   1.63354
 Alpha virt. eigenvalues --    1.65545   1.67835   1.69047   1.69623   1.72540
 Alpha virt. eigenvalues --    1.74179   1.75467   1.76324   1.77486   1.78417
 Alpha virt. eigenvalues --    1.78953   1.82959   1.84480   1.85657   1.88752
 Alpha virt. eigenvalues --    1.89290   1.89958   1.90724   1.90777   1.93868
 Alpha virt. eigenvalues --    1.95403   1.96809   1.99019   2.01001   2.03134
 Alpha virt. eigenvalues --    2.05418   2.06123   2.07061   2.08404   2.10311
 Alpha virt. eigenvalues --    2.12491   2.14007   2.15365   2.20782   2.22393
 Alpha virt. eigenvalues --    2.25127   2.25270   2.27436   2.29688   2.31424
 Alpha virt. eigenvalues --    2.32647   2.33452   2.37623   2.38776   2.41233
 Alpha virt. eigenvalues --    2.43917   2.46468   2.50305   2.53036   2.54480
 Alpha virt. eigenvalues --    2.55421   2.56559   2.59213   2.59600   2.60070
 Alpha virt. eigenvalues --    2.62390   2.64695   2.65472   2.67843   2.71609
 Alpha virt. eigenvalues --    2.72064   2.77899   2.78941   2.82658   2.83671
 Alpha virt. eigenvalues --    2.86137   2.86409   2.91333   2.94691   2.96667
 Alpha virt. eigenvalues --    2.98251   3.00016   3.01889   3.05700   3.10744
 Alpha virt. eigenvalues --    3.11518   3.15944   3.17980   3.22624   3.24956
 Alpha virt. eigenvalues --    3.26087   3.27257   3.28654   3.30964   3.35216
 Alpha virt. eigenvalues --    3.36294   3.40216   3.42030   3.43505   3.45834
 Alpha virt. eigenvalues --    3.56284   3.61501   3.65643   3.68236   3.71439
 Alpha virt. eigenvalues --    3.78349   3.79469   3.79960   3.80480   3.80555
 Alpha virt. eigenvalues --    3.81104   3.83139   3.83690   3.83912   3.84226
 Alpha virt. eigenvalues --    3.84689   3.85906   3.87137   3.88640   3.89333
 Alpha virt. eigenvalues --    3.89423   3.91283   3.91640   3.91989   3.94323
 Alpha virt. eigenvalues --    3.98242   3.98632   3.99989   4.01761   4.02632
 Alpha virt. eigenvalues --    4.05920   4.08051   4.10509   4.27911   4.30000
 Alpha virt. eigenvalues --    4.30725   4.33220   4.38153   4.53976   4.58014
 Alpha virt. eigenvalues --    4.77706   4.88544   5.18158   5.19820   5.42457
 Alpha virt. eigenvalues --    5.90304   6.35668   6.37136   6.39328   6.41333
 Alpha virt. eigenvalues --    6.42518   6.44005   6.48219   6.52218   6.52851
 Alpha virt. eigenvalues --    6.54824   6.56049   6.63878   6.65020   6.65673
 Alpha virt. eigenvalues --    6.71142   8.23118   9.95964  17.51640  17.56470
 Alpha virt. eigenvalues --   17.61228  23.46256  23.58157  23.73500  23.80576
 Alpha virt. eigenvalues --   23.91435  23.93331  23.96704  24.08155  24.10711
 Alpha virt. eigenvalues --   24.19298  25.92860  26.22562  26.72792  35.58673
 Alpha virt. eigenvalues --   35.68602  50.13944  66.89681  66.91410  66.96767
 Alpha virt. eigenvalues --   66.98760  67.07310 189.47121 216.06023
          Condensed to atoms (all electrons):
               1          2          3          4          5          6
     1  C   31.223693  -0.616614  -0.995935  -0.155529  -0.170239  -0.598927
     2  N   -0.616614   8.060182   0.258182  -0.083115  -0.720942  -0.513754
     3  C   -0.995935   0.258182   8.655202   0.613344   0.161586  -1.216364
     4  O   -0.155529  -0.083115   0.613344   8.087306  -0.177825  -0.084683
     5  N   -0.170239  -0.720942   0.161586  -0.177825   7.861856   0.662036
     6  C   -0.598927  -0.513754  -1.216364  -0.084683   0.662036   8.664642
     7  C    0.006345   0.038756   0.238569   0.013627  -0.159688  -0.908743
     8  C   -0.015553  -0.011462  -0.223381  -0.001890   0.003591   0.373116
     9  C   -5.419690   0.289519   0.393057   0.200503  -0.098915  -0.049302
    10  C   -3.945829   0.212637   0.943897   0.034338   0.093720   0.082358
    11  C   -6.284343   0.090820  -0.609439  -0.022888  -0.052815  -0.044221
    12  C   -0.532214  -0.108038  -0.382694   0.039926   0.093683  -0.018652
    13  C   -4.650937   0.184855  -2.000840  -0.100963  -0.370034  -0.337870
    14  H    0.045624   0.221847  -0.018619  -0.002082   0.073397   0.025407
    15  H   -0.032664   0.097440   0.035482  -0.002701   0.222979  -0.083063
    16  H    0.007602   0.004393   0.066457  -0.003715  -0.088403   0.387442
    17  H    0.002316   0.012981   0.048488  -0.000369  -0.046718   0.342478
    18  H    0.004335  -0.000534   0.031141  -0.000059   0.003930  -0.092619
    19  H   -0.003841  -0.000731  -0.020761  -0.000270   0.002012  -0.052510
    20  H   -0.000289  -0.000076  -0.008972  -0.000085  -0.000123  -0.048304
    21  H    0.000032  -0.000005   0.003268   0.000023  -0.001316   0.073224
    22  H    0.000237   0.000042   0.009022  -0.000011   0.000390  -0.042292
    23  H    0.022739  -0.023795   0.079526   0.003173   0.003469   0.006066
    24  Cl  -0.017331  -0.013630  -0.059825   0.000011  -0.000282  -0.001895
    25  H    0.158165  -0.022428   0.005893   0.000041   0.000104   0.000053
    26  S   -0.521440   0.020368  -0.057408  -0.001745  -0.000219   0.002701
    27  H   -0.003264   0.001364   0.003978  -0.000012   0.000020   0.000033
    28  F   -0.238980   0.002231   0.004138   0.000522   0.000197  -0.000028
    29  F    0.145390  -0.000202  -0.001806  -0.000017  -0.000019  -0.000024
    30  F   -0.218940   0.001659   0.005471  -0.000043   0.000198   0.000019
    31  F    0.137400  -0.000400  -0.002664   0.000035  -0.000015  -0.000029
    32  F   -0.013142  -0.000148  -0.001670   0.000031  -0.000006  -0.000027
               7          8          9         10         11         12
     1  C    0.006345  -0.015553  -5.419690  -3.945829  -6.284343  -0.532214
     2  N    0.038756  -0.011462   0.289519   0.212637   0.090820  -0.108038
     3  C    0.238569  -0.223381   0.393057   0.943897  -0.609439  -0.382694
     4  O    0.013627  -0.001890   0.200503   0.034338  -0.022888   0.039926
     5  N   -0.159688   0.003591  -0.098915   0.093720  -0.052815   0.093683
     6  C   -0.908743   0.373116  -0.049302   0.082358  -0.044221  -0.018652
     7  C    6.335253  -0.199821  -0.012606  -0.011792   0.001892  -0.000396
     8  C   -0.199821   6.080872  -0.001193   0.001629  -0.000155  -0.000843
     9  C   -0.012606  -0.001193  16.942761   2.795705  -3.093709  -4.352735
    10  C   -0.011792   0.001629   2.795705  30.841593  -2.875140  -5.532258
    11  C    0.001892  -0.000155  -3.093709  -2.875140  19.322276  -1.374871
    12  C   -0.000396  -0.000843  -4.352735  -5.532258  -1.374871  25.665098
    13  C    0.037638  -0.005301  -2.269694 -13.423605  -0.094598  -6.289367
    14  H   -0.003914   0.000148   0.113225   0.049234  -0.027087   0.027046
    15  H    0.005386   0.005365   0.026341   0.000160   0.000203  -0.004329
    16  H   -0.063459  -0.005351   0.001569   0.000567   0.000054  -0.000049
    17  H    0.000070  -0.022705  -0.000491   0.000055   0.000112  -0.000084
    18  H    0.451412  -0.054963  -0.000530  -0.000036   0.000002   0.000091
    19  H    0.447098  -0.031595   0.000800   0.000048  -0.000006  -0.000049
    20  H    0.009156   0.393550   0.000001  -0.000001   0.000000  -0.000001
    21  H   -0.115145   0.390465   0.000019   0.000000  -0.000000   0.000000
    22  H    0.015862   0.363151  -0.000029  -0.000007  -0.000000   0.000002
    23  H   -0.000397   0.000028   0.353221  -0.037693  -0.039729   0.001382
    24  Cl  -0.000016  -0.000003   0.106504  -0.054349   0.085861  -1.360546
    25  H    0.000007   0.000001  -0.028418   0.072375  -0.037771   0.166726
    26  S    0.000090   0.000003   0.165448  -2.901029   0.889975  -0.161270
    27  H   -0.000000   0.000000  -0.004806  -0.144190   0.307819   0.097788
    28  F   -0.000005   0.000003  -0.152283  -0.045608   0.303809   0.097426
    29  F    0.000000  -0.000000   0.128273   0.429233  -0.349247  -0.196316
    30  F   -0.000021   0.000003  -0.138302  -0.055118   0.289002   0.098668
    31  F    0.000000  -0.000000   0.125003   0.456993  -0.356409  -0.204692
    32  F    0.000000  -0.000000  -0.042136   0.095847   0.022544  -0.024953
              13         14         15         16         17         18
     1  C   -4.650937   0.045624  -0.032664   0.007602   0.002316   0.004335
     2  N    0.184855   0.221847   0.097440   0.004393   0.012981  -0.000534
     3  C   -2.000840  -0.018619   0.035482   0.066457   0.048488   0.031141
     4  O   -0.100963  -0.002082  -0.002701  -0.003715  -0.000369  -0.000059
     5  N   -0.370034   0.073397   0.222979  -0.088403  -0.046718   0.003930
     6  C   -0.337870   0.025407  -0.083063   0.387442   0.342478  -0.092619
     7  C    0.037638  -0.003914   0.005386  -0.063459   0.000070   0.451412
     8  C   -0.005301   0.000148   0.005365  -0.005351  -0.022705  -0.054963
     9  C   -2.269694   0.113225   0.026341   0.001569  -0.000491  -0.000530
    10  C  -13.423605   0.049234   0.000160   0.000567   0.000055  -0.000036
    11  C   -0.094598  -0.027087   0.000203   0.000054   0.000112   0.000002
    12  C   -6.289367   0.027046  -0.004329  -0.000049  -0.000084   0.000091
    13  C   34.125158  -0.236160   0.000817  -0.000492   0.001803   0.000224
    14  H   -0.236160   0.343856   0.000982   0.000233  -0.000014  -0.000011
    15  H    0.000817   0.000982   0.363537   0.001689   0.002219  -0.001030
    16  H   -0.000492   0.000233   0.001689   0.458896  -0.037171   0.006055
    17  H    0.001803  -0.000014   0.002219  -0.037171   0.423043  -0.007741
    18  H    0.000224  -0.000011  -0.001030   0.006055  -0.007741   0.443793
    19  H   -0.000379   0.000072   0.003691  -0.008962   0.005030  -0.044090
    20  H    0.000011   0.000001  -0.000019  -0.000807   0.003446  -0.008393
    21  H   -0.000007   0.000000  -0.000018  -0.000091  -0.000214  -0.003378
    22  H    0.000019  -0.000001   0.000031   0.003202  -0.000191   0.005911
    23  H   -0.059266   0.000136  -0.000049   0.000006  -0.000036   0.000000
    24  Cl   0.384841   0.000603   0.000025   0.000001   0.000001   0.000000
    25  H    0.015182   0.008371   0.000021  -0.000000  -0.000000   0.000000
    26  S    1.019279   0.000424  -0.000005  -0.000014   0.000017   0.000000
    27  H    0.016326   0.000007   0.000000  -0.000000  -0.000000   0.000000
    28  F    0.035437   0.000018   0.000000   0.000000   0.000002  -0.000000
    29  F   -0.061503  -0.000000  -0.000000   0.000000   0.000000  -0.000000
    30  F    0.028845   0.000014   0.000000   0.000000   0.000001   0.000000
    31  F   -0.062365  -0.000002  -0.000000  -0.000000   0.000000  -0.000000
    32  F    0.009033  -0.000000  -0.000000  -0.000000   0.000000   0.000000
              19         20         21         22         23         24
     1  C   -0.003841  -0.000289   0.000032   0.000237   0.022739  -0.017331
     2  N   -0.000731  -0.000076  -0.000005   0.000042  -0.023795  -0.013630
     3  C   -0.020761  -0.008972   0.003268   0.009022   0.079526  -0.059825
     4  O   -0.000270  -0.000085   0.000023  -0.000011   0.003173   0.000011
     5  N    0.002012  -0.000123  -0.001316   0.000390   0.003469  -0.000282
     6  C   -0.052510  -0.048304   0.073224  -0.042292   0.006066  -0.001895
     7  C    0.447098   0.009156  -0.115145   0.015862  -0.000397  -0.000016
     8  C   -0.031595   0.393550   0.390465   0.363151   0.000028  -0.000003
     9  C    0.000800   0.000001   0.000019  -0.000029   0.353221   0.106504
    10  C    0.000048  -0.000001   0.000000  -0.000007  -0.037693  -0.054349
    11  C   -0.000006   0.000000  -0.000000  -0.000000  -0.039729   0.085861
    12  C   -0.000049  -0.000001   0.000000   0.000002   0.001382  -1.360546
    13  C   -0.000379   0.000011  -0.000007   0.000019  -0.059266   0.384841
    14  H    0.000072   0.000001   0.000000  -0.000001   0.000136   0.000603
    15  H    0.003691  -0.000019  -0.000018   0.000031  -0.000049   0.000025
    16  H   -0.008962  -0.000807  -0.000091   0.003202   0.000006   0.000001
    17  H    0.005030   0.003446  -0.000214  -0.000191  -0.000036   0.000001
    18  H   -0.044090  -0.008393  -0.003378   0.005911   0.000000   0.000000
    19  H    0.467920   0.006458  -0.003375  -0.008443  -0.000000   0.000000
    20  H    0.006458   0.446797  -0.023835  -0.035564  -0.000000   0.000000
    21  H   -0.003375  -0.023835   0.432080  -0.025398   0.000000  -0.000000
    22  H   -0.008443  -0.035564  -0.025398   0.449329  -0.000000  -0.000000
    23  H   -0.000000  -0.000000   0.000000  -0.000000   0.334877  -0.000059
    24  Cl   0.000000   0.000000  -0.000000  -0.000000  -0.000059  17.573636
    25  H   -0.000000  -0.000000   0.000000   0.000000   0.000040  -0.017167
    26  S    0.000000  -0.000000   0.000000   0.000000   0.010808  -0.022768
    27  H    0.000000  -0.000000   0.000000  -0.000000   0.000008  -0.015915
    28  F    0.000000  -0.000000  -0.000000  -0.000000  -0.002975  -0.000447
    29  F   -0.000000   0.000000   0.000000  -0.000000  -0.000723  -0.000109
    30  F    0.000000  -0.000000  -0.000000  -0.000000  -0.000782  -0.000427
    31  F   -0.000000  -0.000000  -0.000000  -0.000000  -0.000582   0.000174
    32  F   -0.000000  -0.000000  -0.000000  -0.000000  -0.000775   0.000202
              25         26         27         28         29         30
     1  C    0.158165  -0.521440  -0.003264  -0.238980   0.145390  -0.218940
     2  N   -0.022428   0.020368   0.001364   0.002231  -0.000202   0.001659
     3  C    0.005893  -0.057408   0.003978   0.004138  -0.001806   0.005471
     4  O    0.000041  -0.001745  -0.000012   0.000522  -0.000017  -0.000043
     5  N    0.000104  -0.000219   0.000020   0.000197  -0.000019   0.000198
     6  C    0.000053   0.002701   0.000033  -0.000028  -0.000024   0.000019
     7  C    0.000007   0.000090  -0.000000  -0.000005   0.000000  -0.000021
     8  C    0.000001   0.000003   0.000000   0.000003  -0.000000   0.000003
     9  C   -0.028418   0.165448  -0.004806  -0.152283   0.128273  -0.138302
    10  C    0.072375  -2.901029  -0.144190  -0.045608   0.429233  -0.055118
    11  C   -0.037771   0.889975   0.307819   0.303809  -0.349247   0.289002
    12  C    0.166726  -0.161270   0.097788   0.097426  -0.196316   0.098668
    13  C    0.015182   1.019279   0.016326   0.035437  -0.061503   0.028845
    14  H    0.008371   0.000424   0.000007   0.000018  -0.000000   0.000014
    15  H    0.000021  -0.000005   0.000000   0.000000  -0.000000   0.000000
    16  H   -0.000000  -0.000014  -0.000000   0.000000   0.000000   0.000000
    17  H   -0.000000   0.000017  -0.000000   0.000002   0.000000   0.000001
    18  H    0.000000   0.000000   0.000000  -0.000000  -0.000000   0.000000
    19  H   -0.000000   0.000000   0.000000   0.000000  -0.000000   0.000000
    20  H   -0.000000  -0.000000  -0.000000  -0.000000   0.000000  -0.000000
    21  H    0.000000   0.000000   0.000000  -0.000000   0.000000  -0.000000
    22  H    0.000000   0.000000  -0.000000  -0.000000  -0.000000  -0.000000
    23  H    0.000040   0.010808   0.000008  -0.002975  -0.000723  -0.000782
    24  Cl  -0.017167  -0.022768  -0.015915  -0.000447  -0.000109  -0.000427
    25  H    0.402190   0.000499  -0.000187  -0.000006   0.000001  -0.000003
    26  S    0.000499  17.208224   0.048840   0.049260  -0.042270   0.042166
    27  H   -0.000187   0.048840   0.364260   0.000171  -0.001720   0.000191
    28  F   -0.000006   0.049260   0.000171   8.962947  -0.029016  -0.014755
    29  F    0.000001  -0.042270  -0.001720  -0.029016   8.976965  -0.052709
    30  F   -0.000003   0.042166   0.000191  -0.014755  -0.052709   8.963885
    31  F    0.000003  -0.041797  -0.001532  -0.052017  -0.009424  -0.028413
    32  F   -0.000000  -0.231136  -0.000940   0.008493   0.013396   0.010213
              31         32
     1  C    0.137400  -0.013142
     2  N   -0.000400  -0.000148
     3  C   -0.002664  -0.001670
     4  O    0.000035   0.000031
     5  N   -0.000015  -0.000006
     6  C   -0.000029  -0.000027
     7  C    0.000000   0.000000
     8  C   -0.000000  -0.000000
     9  C    0.125003  -0.042136
    10  C    0.456993   0.095847
    11  C   -0.356409   0.022544
    12  C   -0.204692  -0.024953
    13  C   -0.062365   0.009033
    14  H   -0.000002  -0.000000
    15  H   -0.000000  -0.000000
    16  H   -0.000000  -0.000000
    17  H    0.000000   0.000000
    18  H   -0.000000   0.000000
    19  H   -0.000000  -0.000000
    20  H   -0.000000  -0.000000
    21  H   -0.000000  -0.000000
    22  H   -0.000000  -0.000000
    23  H   -0.000582  -0.000775
    24  Cl   0.000174   0.000202
    25  H    0.000003  -0.000000
    26  S   -0.041797  -0.231136
    27  H   -0.001532  -0.000940
    28  F   -0.052017   0.008493
    29  F   -0.009424   0.013396
    30  F   -0.028413   0.010213
    31  F    8.979233   0.013998
    32  F    0.013998   9.121250
 Mulliken charges:
               1
     1  C   -1.318178
     2  N   -0.381402
     3  C    0.043679
     4  O   -0.354879
     5  N   -0.295610
     6  C   -0.526270
     7  C   -0.125158
     8  C   -1.037708
     9  C    0.022891
    10  C   -1.083736
    11  C   -0.051941
    12  C    0.256521
    13  C    0.103909
    14  H    0.377244
    15  H    0.357510
    16  H    0.270346
    17  H    0.273671
    18  H    0.266490
    19  H    0.241883
    20  H    0.267050
    21  H    0.273670
    22  H    0.264737
    23  H    0.351384
    24  Cl   0.412908
    25  H    0.276307
    26  S    0.522999
    27  H    0.331764
    28  F    0.071464
    29  F    0.051848
    30  F    0.069178
    31  F    0.047502
    32  F    0.019926
 Sum of Mulliken charges =  -0.00000
 Mulliken charges with hydrogens summed into heavy atoms:
               1
     1  C   -1.318178
     2  N   -0.004158
     3  C    0.043679
     4  O   -0.354879
     5  N    0.061900
     6  C    0.017748
     7  C    0.383215
     8  C   -0.232250
     9  C    0.374274
    10  C   -1.083736
    11  C    0.279823
    12  C    0.256521
    13  C    0.380216
    24  Cl   0.412908
    26  S    0.522999
    28  F    0.071464
    29  F    0.051848
    30  F    0.069178
    31  F    0.047502
    32  F    0.019926
 Electronic spatial extent (au):  <R**2>=           9817.9232
 Charge=             -0.0000 electrons
 Dipole moment (field-independent basis, Debye):
    X=             -7.6048    Y=              5.9807    Z=              0.8929  Tot=              9.7160
 Quadrupole moment (field-independent basis, Debye-Ang):
   XX=           -110.3925   YY=           -132.7508   ZZ=           -134.4012
   XY=             -5.3102   XZ=             -3.4690   YZ=              0.7648
 Traceless Quadrupole moment (field-independent basis, Debye-Ang):
   XX=             15.4557   YY=             -6.9027   ZZ=             -8.5531
   XY=             -5.3102   XZ=             -3.4690   YZ=              0.7648
 Octapole moment (field-independent basis, Debye-Ang**2):
  XXX=           -111.4254  YYY=            -25.1292  ZZZ=             -0.1713  XYY=            -12.4293
  XXY=             27.7638  XXZ=             11.6663  XZZ=             16.9864  YZZ=            -19.2805
  YYZ=              2.1443  XYZ=             -4.3182
 Hexadecapole moment (field-independent basis, Debye-Ang**3):
 XXXX=          -8462.1384 YYYY=          -2798.0858 ZZZZ=           -315.3549 XXXY=           -104.8378
 XXXZ=            -46.4241 YYYX=           -177.8128 YYYZ=              4.4572 ZZZX=             -1.8021
 ZZZY=             -0.0925 XXYY=          -2021.7192 XXZZ=          -1620.2321 YYZZ=           -532.7680
 XXYZ=             20.0305 YYXZ=             -9.0516 ZZXY=            -37.4512
 N-N= 2.019696541398D+03 E-N=-8.601777394998D+03  KE= 1.925777558065D+03
 D1PCM: PCM CHGder 1st derivatives, ID1Alg=3 FixD1E=F DoIter=F DoCFld=F I1PDM=0.
 Calling FoFJK, ICntrl=      2127 FMM=F ISym2X=0 I1Cent= 0 IOpClX= 0 NMat=1 NMatS=1 NMatT=0.
 ***** Axes restored to original set *****
 -------------------------------------------------------------------
 Center     Atomic                   Forces (Hartrees/Bohr)
 Number     Number              X              Y              Z
 -------------------------------------------------------------------
      1        6           0.000005911   -0.000002736   -0.000002519
      2        7           0.000001981    0.000010324    0.000001181
      3        6          -0.000003065   -0.000006411    0.000000705
      4        8           0.000003215   -0.000000666    0.000001919
      5        7          -0.000002524    0.000000596   -0.000002357
      6        6          -0.000002042   -0.000000240    0.000004851
      7        6          -0.000005005   -0.000010022    0.000001171
      8        6          -0.000003266   -0.000004599    0.000008222
      9        6          -0.000006317    0.000009756   -0.000001028
     10        6           0.000007930    0.000003281   -0.000000189
     11        6          -0.000002848    0.000005838   -0.000006232
     12        6           0.000003103    0.000005364   -0.000009655
     13        6          -0.000007857    0.000003950   -0.000004123
     14        1           0.000000336   -0.000004148   -0.000003525
     15        1           0.000000111   -0.000008137    0.000001281
     16        1          -0.000001096   -0.000007166    0.000007961
     17        1          -0.000000157   -0.000003897    0.000002573
     18        1          -0.000000924   -0.000004275    0.000001490
     19        1          -0.000003550   -0.000005631    0.000005161
     20        1           0.000000983   -0.000005021    0.000006285
     21        1          -0.000001305   -0.000008720    0.000005431
     22        1          -0.000001426   -0.000009133    0.000009805
     23        1           0.000001359    0.000000618   -0.000000512
     24       17          -0.000003332    0.000006225   -0.000009697
     25        1          -0.000004491    0.000001538   -0.000009524
     26       16           0.000001483    0.000002514    0.000000172
     27        1           0.000001844    0.000006707   -0.000005376
     28        9           0.000003488    0.000007765    0.000008563
     29        9           0.000002480    0.000009132   -0.000009665
     30        9           0.000000458   -0.000001167   -0.000003478
     31        9           0.000002816    0.000003398    0.000003699
     32        9           0.000011709    0.000004965   -0.000002591
 -------------------------------------------------------------------
 Cartesian Forces:  Max     0.000011709 RMS     0.000005185

 GradGradGradGradGradGradGradGradGradGradGradGradGradGradGradGradGradGrad
 Berny optimization.
 FormGI is forming the generalized inverse of G from B-inverse, IUseBI=4.
 GSVD:  received Info=                   1 from GESDD.
 Internal  Forces:  Max     0.000008164 RMS     0.000002461
 Search for a local minimum.
 Step number   1 out of a maximum of  173
 All quantities printed in internal units (Hartrees-Bohrs-Radians)
 Mixed Optimization -- En-DIIS/RFO-DIIS
 Second derivative matrix not updated -- first step.
 ITU=  0
     Eigenvalues ---    0.00230   0.00444   0.00481   0.00933   0.01381
     Eigenvalues ---    0.01696   0.01783   0.01786   0.01813   0.01985
     Eigenvalues ---    0.02003   0.02114   0.02185   0.02185   0.02205
     Eigenvalues ---    0.02261   0.02270   0.02284   0.02290   0.03728
     Eigenvalues ---    0.04455   0.04936   0.05517   0.05533   0.05551
     Eigenvalues ---    0.08181   0.09061   0.09079   0.09205   0.12076
     Eigenvalues ---    0.12655   0.13566   0.13598   0.13617   0.13630
     Eigenvalues ---    0.15240   0.15943   0.16000   0.16000   0.16000
     Eigenvalues ---    0.16000   0.16000   0.16000   0.16719   0.21893
     Eigenvalues ---    0.21904   0.22022   0.22172   0.23483   0.23510
     Eigenvalues ---    0.23523   0.24996   0.24997   0.25000   0.25000
     Eigenvalues ---    0.25000   0.25000   0.25000   0.25128   0.29950
     Eigenvalues ---    0.30222   0.31375   0.34091   0.34120   0.34325
     Eigenvalues ---    0.34473   0.34480   0.34644   0.34671   0.35447
     Eigenvalues ---    0.35863   0.36198   0.37300   0.42481   0.43109
     Eigenvalues ---    0.45935   0.45972   0.46330   0.46783   0.46818
     Eigenvalues ---    0.47043   0.47952   0.48031   0.48116   0.48481
     Eigenvalues ---    0.48622   0.48847   0.49127   0.52400   0.97709
 RFO step:  Lambda= 0.00000000D+00 EMin= 2.30000000D-03
 Linear search not attempted -- first point.
 Iteration  1 RMS(Cart)=  0.00006522 RMS(Int)=  0.00000000
 Iteration  2 RMS(Cart)=  0.00000000 RMS(Int)=  0.00000000
 Variable       Old X    -DE/DX   Delta X   Delta X   Delta X     New X
                                 (Linear)    (Quad)   (Total)
    R1        2.63220   0.00000   0.00000   0.00001   0.00001   2.63221
    R2        2.64568   0.00001   0.00000   0.00002   0.00002   2.64570
    R3        2.64629   0.00000   0.00000   0.00001   0.00001   2.64630
    R4        2.63259  -0.00000   0.00000  -0.00001  -0.00001   2.63258
    R5        1.90863   0.00000   0.00000   0.00001   0.00001   1.90864
    R6        2.29570   0.00000   0.00000   0.00000   0.00000   2.29571
    R7        2.57518   0.00000   0.00000   0.00000   0.00000   2.57518
    R8        2.75396  -0.00000   0.00000  -0.00001  -0.00001   2.75395
    R9        1.90904   0.00000   0.00000   0.00001   0.00001   1.90905
   R10        2.87523   0.00000   0.00000   0.00000   0.00000   2.87523
   R11        2.07128   0.00000   0.00000   0.00001   0.00001   2.07128
   R12        2.06212   0.00000   0.00000   0.00000   0.00000   2.06212
   R13        2.88062   0.00000   0.00000   0.00000   0.00000   2.88063
   R14        2.06785   0.00000   0.00000   0.00000   0.00000   2.06786
   R15        2.07177   0.00000   0.00000   0.00000   0.00000   2.07178
   R16        2.06528   0.00000   0.00000   0.00001   0.00001   2.06529
   R17        2.06256   0.00000   0.00000   0.00000   0.00000   2.06257
   R18        2.06539   0.00000   0.00000   0.00001   0.00001   2.06539
   R19        2.61560  -0.00000   0.00000  -0.00000  -0.00000   2.61560
   R20        2.03773  -0.00000   0.00000  -0.00000  -0.00000   2.03773
   R21        2.61730   0.00000   0.00000   0.00000   0.00000   2.61730
   R22        3.42584   0.00000   0.00000   0.00001   0.00001   3.42585
   R23        2.62218   0.00000   0.00000   0.00000   0.00000   2.62218
   R24        2.04297  -0.00000   0.00000  -0.00000  -0.00000   2.04297
   R25        2.61322  -0.00000   0.00000  -0.00000  -0.00000   2.61322
   R26        3.29003   0.00000   0.00000   0.00000   0.00000   3.29003
   R27        2.04956   0.00000   0.00000   0.00000   0.00000   2.04956
   R28        3.04747  -0.00001   0.00000  -0.00001  -0.00001   3.04746
   R29        3.05606   0.00001   0.00000   0.00001   0.00001   3.05607
   R30        3.04982  -0.00001   0.00000  -0.00001  -0.00001   3.04981
   R31        3.05691   0.00000   0.00000   0.00001   0.00001   3.05691
   R32        3.04457  -0.00000   0.00000  -0.00000  -0.00000   3.04457
    A1        2.15574   0.00000   0.00000   0.00002   0.00002   2.15576
    A2        2.04528   0.00000   0.00000   0.00000   0.00000   2.04528
    A3        2.08207  -0.00001   0.00000  -0.00002  -0.00002   2.08205
    A4        2.22320   0.00001   0.00000   0.00002   0.00002   2.22322
    A5        2.01301   0.00000   0.00000   0.00001   0.00001   2.01301
    A6        2.04035  -0.00001   0.00000  -0.00003  -0.00003   2.04032
    A7        2.15374   0.00000   0.00000   0.00000   0.00000   2.15374
    A8        1.97689   0.00000   0.00000   0.00001   0.00001   1.97690
    A9        2.15236  -0.00000   0.00000  -0.00001  -0.00001   2.15235
   A10        2.09651  -0.00001   0.00000  -0.00003  -0.00003   2.09649
   A11        2.07817   0.00001   0.00000   0.00004   0.00004   2.07821
   A12        2.04433  -0.00000   0.00000  -0.00002  -0.00002   2.04431
   A13        1.92573   0.00000   0.00000  -0.00000  -0.00000   1.92573
   A14        1.92816  -0.00000   0.00000  -0.00000  -0.00000   1.92815
   A15        1.88250  -0.00000   0.00000  -0.00001  -0.00001   1.88249
   A16        1.92826  -0.00000   0.00000  -0.00001  -0.00001   1.92825
   A17        1.92836  -0.00000   0.00000  -0.00000  -0.00000   1.92836
   A18        1.86957   0.00000   0.00000   0.00002   0.00002   1.86960
   A19        1.94525  -0.00001   0.00000  -0.00003  -0.00003   1.94522
   A20        1.90277   0.00000   0.00000   0.00001   0.00001   1.90279
   A21        1.91081   0.00000   0.00000   0.00000   0.00000   1.91081
   A22        1.92380   0.00000   0.00000   0.00001   0.00001   1.92380
   A23        1.91309   0.00000   0.00000  -0.00001  -0.00001   1.91308
   A24        1.86639  -0.00000   0.00000   0.00002   0.00002   1.86641
   A25        1.93877  -0.00000   0.00000  -0.00000  -0.00000   1.93877
   A26        1.94089   0.00000   0.00000  -0.00000  -0.00000   1.94089
   A27        1.94188  -0.00000   0.00000  -0.00000  -0.00000   1.94188
   A28        1.87974  -0.00000   0.00000  -0.00000  -0.00000   1.87974
   A29        1.87979   0.00000   0.00000   0.00001   0.00001   1.87980
   A30        1.87995   0.00000   0.00000  -0.00000  -0.00000   1.87995
   A31        2.05774   0.00000   0.00000   0.00001   0.00001   2.05775
   A32        2.10009  -0.00000   0.00000  -0.00001  -0.00001   2.10008
   A33        2.12534  -0.00000   0.00000  -0.00001  -0.00001   2.12533
   A34        2.17161   0.00000   0.00000  -0.00000  -0.00000   2.17161
   A35        2.05345  -0.00000   0.00000  -0.00000  -0.00000   2.05344
   A36        2.05812   0.00000   0.00000   0.00000   0.00000   2.05813
   A37        2.02689  -0.00000   0.00000  -0.00001  -0.00001   2.02689
   A38        2.14192   0.00000   0.00000   0.00000   0.00000   2.14192
   A39        2.11437   0.00000   0.00000   0.00001   0.00001   2.11437
   A40        2.13059   0.00000   0.00000   0.00001   0.00001   2.13060
   A41        2.07717  -0.00000   0.00000  -0.00000  -0.00000   2.07717
   A42        2.07542  -0.00000   0.00000  -0.00001  -0.00001   2.07542
   A43        2.09746   0.00000   0.00000   0.00000   0.00000   2.09747
   A44        2.09766   0.00000   0.00000   0.00001   0.00001   2.09767
   A45        2.08806  -0.00000   0.00000  -0.00001  -0.00001   2.08805
   A46        1.62007   0.00000   0.00000  -0.00000  -0.00000   1.62007
   A47        1.61597   0.00001   0.00000   0.00003   0.00003   1.61601
   A48        1.61881  -0.00001   0.00000  -0.00003  -0.00003   1.61878
   A49        1.61515   0.00000   0.00000   0.00002   0.00002   1.61517
   A50        1.56928  -0.00000   0.00000   0.00000   0.00000   1.56929
   A51        1.57173  -0.00000   0.00000  -0.00003  -0.00003   1.57169
   A52        1.52545  -0.00001   0.00000  -0.00005  -0.00005   1.52540
   A53        1.56520   0.00000   0.00000   0.00004   0.00004   1.56524
   A54        1.52330  -0.00000   0.00000   0.00001   0.00001   1.52330
   A55        1.56825  -0.00000   0.00000  -0.00001  -0.00001   1.56824
   A56        1.52509   0.00000   0.00000  -0.00001  -0.00001   1.52508
   A57        1.52251   0.00001   0.00000   0.00003   0.00003   1.52254
   A58        3.14552  -0.00001   0.00000  -0.00005  -0.00005   3.14548
   A59        3.23522   0.00000   0.00000   0.00002   0.00002   3.23524
   A60        3.23479   0.00000   0.00000   0.00000   0.00000   3.23479
   A61        3.13927   0.00000   0.00000   0.00004   0.00004   3.13931
   A62        3.14448  -0.00000   0.00000  -0.00005  -0.00005   3.14443
   A63        3.14561  -0.00000   0.00000  -0.00003  -0.00003   3.14558
    D1       -0.13000  -0.00000   0.00000  -0.00006  -0.00006  -0.13006
    D2        3.13989   0.00000   0.00000   0.00000   0.00000   3.13989
    D3        3.02671  -0.00000   0.00000  -0.00009  -0.00009   3.02662
    D4        0.01341  -0.00000   0.00000  -0.00002  -0.00002   0.01339
    D5       -3.12576   0.00000   0.00000   0.00002   0.00002  -3.12574
    D6        0.02147   0.00000   0.00000   0.00002   0.00002   0.02149
    D7        0.00042   0.00000   0.00000   0.00004   0.00004   0.00046
    D8       -3.13554   0.00000   0.00000   0.00005   0.00005  -3.13549
    D9        3.12608  -0.00000   0.00000  -0.00001  -0.00001   3.12607
   D10       -0.01537  -0.00000   0.00000  -0.00004  -0.00004  -0.01541
   D11       -0.00107  -0.00000   0.00000  -0.00003  -0.00003  -0.00110
   D12        3.14067  -0.00000   0.00000  -0.00006  -0.00006   3.14060
   D13       -0.02280   0.00000   0.00000   0.00005   0.00005  -0.02275
   D14        3.13969   0.00000   0.00000   0.00008   0.00008   3.13976
   D15        2.98876  -0.00000   0.00000  -0.00002  -0.00002   2.98874
   D16       -0.13194   0.00000   0.00000   0.00002   0.00002  -0.13193
   D17       -3.06280   0.00000   0.00000   0.00001   0.00001  -3.06279
   D18       -0.30899  -0.00000   0.00000  -0.00001  -0.00001  -0.30900
   D19        0.09967   0.00000   0.00000   0.00004   0.00004   0.09971
   D20        2.85348  -0.00000   0.00000   0.00002   0.00002   2.85350
   D21       -2.94646   0.00000   0.00000   0.00001   0.00001  -2.94644
   D22        1.19940   0.00000   0.00000   0.00002   0.00002   1.19942
   D23       -0.83863  -0.00000   0.00000   0.00000   0.00000  -0.83863
   D24        0.57562  -0.00000   0.00000   0.00002   0.00002   0.57564
   D25       -1.56172   0.00000   0.00000   0.00003   0.00003  -1.56169
   D26        2.68344  -0.00000   0.00000   0.00001   0.00001   2.68345
   D27        3.14123   0.00000   0.00000   0.00000   0.00000   3.14124
   D28        1.01374   0.00000   0.00000   0.00000   0.00000   1.01374
   D29       -1.02247  -0.00000   0.00000  -0.00002  -0.00002  -1.02250
   D30       -1.00468  -0.00000   0.00000  -0.00001  -0.00001  -1.00468
   D31       -3.13217   0.00000   0.00000  -0.00000  -0.00000  -3.13218
   D32        1.11480  -0.00000   0.00000  -0.00003  -0.00003   1.11477
   D33        1.06106   0.00000   0.00000   0.00002   0.00002   1.06108
   D34       -1.06643   0.00000   0.00000   0.00002   0.00002  -1.06641
   D35       -3.10265  -0.00000   0.00000  -0.00001  -0.00001  -3.10265
   D36       -1.04505  -0.00000   0.00000   0.00008   0.00008  -1.04497
   D37       -3.13842   0.00000   0.00000   0.00009   0.00009  -3.13833
   D38        1.04905   0.00000   0.00000   0.00009   0.00009   1.04914
   D39        1.07024  -0.00000   0.00000   0.00008   0.00008   1.07032
   D40       -1.02314   0.00000   0.00000   0.00009   0.00009  -1.02305
[...]
 936,0.00011821,-0.00000902,0.00002933,0.00000688,-0.00000827,0.0000172
 3,0.00000319,0.00000985,0.00000074,0.00000126,0.00000496,0.00000046,-0
 .00000191,-0.00000115,0.00000018,0.00000020,-0.00000079,0.00000022,0.0
 0000004,-0.00000026,0.00000061,-0.00000013,0.00000243,-0.00000063,-0.0
 0000027,0.,0.00000057,0.00000027,-0.00036621,0.00060520,0.00002496,0.0
 0091835,-0.00099095,-0.00011217,0.00020737,-0.00008007,0.00000410,-0.0
 0380086,-0.00085918,0.00015547,0.33107247,-0.00041126,-0.00129404,0.00
 000307,-0.00001657,0.00031900,-0.00001428,0.00007418,-0.00023742,0.000
 03680,-0.00017606,0.00018716,0.00001893,-0.00005537,0.00008240,0.00000
 590,0.00002031,0.00000735,-0.00000530,-0.00000013,-0.00000370,-0.00000
 153,-0.00000041,0.00000284,-0.00000011,-0.00326379,-0.00283056,0.00006
 312,-0.01686598,0.01163519,0.00060305,0.10241887,-0.09671180,-0.003540
 37,0.02820387,-0.00719580,-0.00094774,-0.00045433,-0.00523288,-0.00002
 865,-0.00012425,-0.00000375,0.00000671,-0.00001132,-0.00000376,-0.0000
 0683,-0.00000417,-0.00000263,-0.00000094,0.00000009,0.00000002,-0.0000
 0059,0.00000016,0.00000035,0.00000009,-0.00000066,0.00000088,0.0000002
 2,0.00000010,-0.00000035,0.00000039,-0.00000161,-0.00000007,0.00000012
 ,-0.00000002,-0.00000019,-0.00000034,-0.00067693,0.00064255,-0.0000089
 2,0.00059448,0.00107476,0.00001226,0.00135807,-0.00024913,-0.00004936,
 -0.00484465,-0.00052207,0.00017673,-0.10839560,0.10329316,-0.00000273,
 -0.00001584,-0.00128487,-0.00003812,-0.00003329,-0.00047970,-0.0000270
 7,-0.00005375,-0.00007299,-0.00008618,0.00004137,-0.00007442,0.0000044
 4,-0.00000151,0.00006227,0.00000321,-0.00000502,0.00001491,-0.00000103
 ,-0.00000148,0.00000159,0.00000023,0.00000045,0.00000101,0.00010992,0.
 00015552,0.00574525,0.00055761,-0.00024363,0.00080000,0.00950414,-0.00
 354699,-0.03211350,0.00017097,-0.00001903,0.00260157,0.00018512,-0.000
 06337,0.00551860,-0.00000034,-0.00000842,0.00008474,0.00001038,0.00000
 723,0.00003004,0.00000040,-0.00000365,-0.00000721,-0.00000424,0.000008
 69,-0.00000451,0.00000025,-0.00000231,-0.00000173,0.00000002,0.0000023
 5,-0.00000117,0.00000077,0.00000098,-0.00000045,-0.00000026,0.00000001
 ,0.00000038,-0.00000126,-0.00000088,-0.00000108,0.00008621,-0.00000695
 ,0.00088712,-0.00009103,0.00004759,-0.00262525,0.00001006,-0.00000680,
 0.00029884,0.00015280,0.00009456,0.00025596,-0.01036222,0.00376757,0.0
 2365985,0.00046137,0.00051912,-0.00075212,0.00134560,-0.00011011,-0.00
 023837,-0.00116368,-0.00187092,0.00032015,0.00023648,0.00124767,-0.000
 39277,0.00020069,0.00028560,-0.00007498,-0.00004328,-0.00007258,0.0000
 4568,0.00002969,0.00000565,0.00000289,-0.00000391,-0.00000832,0.000006
 95,-0.00196550,-0.00094242,-0.00105363,-0.00755142,0.00483264,0.009457
 60,0.00267886,-0.00285401,0.00066085,-0.00031759,0.00035153,-0.0006372
 6,0.00017685,-0.00024428,0.00014858,0.00005938,0.00000280,0.00007482,-
 0.00004820,0.00002650,0.00000920,0.00002057,-0.00000679,0.00001248,0.0
 0003217,-0.00000156,-0.00002568,-0.00000383,-0.00000412,0.00000785,-0.
 00000670,0.00001885,-0.00001531,0.00001082,0.00000276,-0.00001517,-0.0
 0000282,0.00001058,0.00000144,0.00000445,-0.00000692,0.00000365,0.0011
 2767,0.00027752,0.00072172,-0.00018201,-0.00051901,-0.00006990,0.00013
 793,0.00000972,0.00008695,-0.11455457,-0.02233440,0.06214677,0.0003018
 4,0.00063735,0.00017030,0.17262209,-0.00210072,0.00273371,-0.00019621,
 0.00240351,-0.00038503,-0.00013995,-0.00234855,-0.00084026,0.00021399,
 0.00083998,0.00062425,-0.00017234,0.00096365,-0.00027208,-0.00013144,-
 0.00031621,-0.00017620,0.00005367,0.00003718,0.00007009,0.00001532,0.0
 0000222,-0.00004561,-0.00000038,0.00083132,-0.00543237,0.00285088,-0.0
 2130729,-0.00753489,0.01869834,0.00469147,-0.00286449,0.00219071,0.000
 53170,-0.00067648,-0.00155109,-0.00094132,-0.00099490,0.00034799,0.000
 04763,0.00008550,-0.00000682,-0.00003304,0.00009212,0.00001503,0.00008
 233,0.00002899,0.00002715,0.00002138,0.00001008,-0.00000953,-0.0000097
 5,-0.00000236,0.00000886,-0.00000177,0.00000281,-0.00001250,0.00000215
 ,0.00001000,-0.00001231,0.00002819,-0.00000058,-0.00000225,0.00000413,
 0.00000404,0.00000996,-0.00089817,-0.00207358,0.00049388,-0.00088944,-
 0.00112355,-0.00010049,-0.00001098,-0.00006761,-0.00002041,-0.02146002
 ,-0.07498476,0.02596786,0.00005418,0.00015868,0.00040720,0.01301765,0.
 09191682,0.00064478,-0.00072675,0.00012341,-0.00143019,0.00021795,0.00
 030721,0.00137843,0.00113183,-0.00039564,-0.00041724,-0.00081170,0.000
 50972,-0.00042226,-0.00000385,0.00013584,0.00011492,0.00008871,-0.0000
 9045,-0.00002372,-0.00003046,-0.00001410,-0.00000111,0.00002270,-0.000
 01091,-0.00024317,0.00280495,0.00028531,0.01565448,-0.00493040,-0.0060
 8340,-0.00361326,0.00499998,-0.00071257,0.00093268,-0.00041852,0.00044
 480,-0.00021206,0.00044924,-0.00002106,-0.00007914,-0.00001980,-0.0001
 0631,0.00003210,-0.00005959,-0.00005309,-0.00002387,-0.00000307,0.0000
 0542,-0.00002460,-0.00001055,0.00001216,0.00000252,0.00001532,0.000003
 36,0.00000273,-0.00001834,0.00001524,-0.00000918,-0.00001123,0.0000124
 3,-0.00000967,-0.00000356,-0.00000070,0.00000282,0.00000418,0.00000253
 ,0.00010820,0.00122049,-0.00116695,0.00047595,0.00090298,0.00010187,-0
 .00005689,0.00004897,-0.00006999,0.06169772,0.02613265,-0.12662825,-0.
 00014094,-0.00034350,-0.00033435,-0.09998135,-0.01866160,0.18394754,-0
 .00028485,-0.00045390,0.00083883,-0.00051606,0.00069281,0.00023823,0.0
 0118353,-0.00057488,-0.00002400,-0.00058729,0.00044290,0.00004159,-0.0
 0069857,0.00045691,0.00011934,0.00021938,0.00009697,-0.00005727,-0.000
 01088,-0.00005707,-0.00001647,-0.00000741,0.00003495,0.00000427,0.0025
 0349,0.00455787,-0.00135870,-0.01311376,-0.00661552,-0.01383658,-0.002
 66156,0.00204711,0.00035172,0.00026103,-0.00049909,0.00096814,-0.00014
 509,0.00059340,-0.00022650,-0.00015456,-0.00001649,-0.00000213,-0.0000
 0113,-0.00007790,-0.00003765,-0.00004620,-0.00002833,-0.00000017,-0.00
 000392,-0.00001828,-0.00000838,0.00000448,0.00000665,0.00000590,-0.000
 00388,0.00000780,-0.00000011,0.00000391,-0.00001047,-0.00000261,-0.000
 02883,0.00001071,0.00000279,0.00000398,-0.00000801,0.00000111,0.000739
 25,-0.00055903,-0.00035556,0.00076775,0.00079284,0.00003032,0.00009709
 ,0.00003744,-0.00011590,-0.12603031,0.00896796,-0.06327559,0.00076425,
 0.00051426,-0.00093748,-0.04341781,-0.00325275,-0.00982071,0.18005205,
 -0.00107762,-0.00067366,-0.00108236,0.00199504,-0.00043965,-0.00028420
 ,-0.00197330,-0.00070647,0.00020985,0.00063401,0.00046106,-0.00013793,
 0.00082983,-0.00025436,-0.00010916,-0.00026589,-0.00013955,0.00004040,
 0.00002729,0.00006128,0.00001199,0.00000311,-0.00003860,0.00000013,-0.
 00295880,-0.00271371,0.00193470,0.02097972,-0.00331913,0.01442619,0.00
 038142,-0.00503249,0.00277639,0.00065461,0.00249808,0.00011559,0.00173
 478,-0.00064185,0.00014379,0.00009167,0.00006779,-0.00001410,-0.000028
 14,0.00008185,0.00001545,0.00006960,0.00002550,0.00002121,0.00001856,0
 .00001098,-0.00000685,-0.00000801,-0.00000149,0.00000659,-0.00000034,-
 0.00000065,-0.00000851,0.00000065,0.00000831,-0.00000757,0.00002545,-0
 .00000264,-0.00000235,0.00000173,0.00000528,0.00000783,-0.00017754,-0.
 00005580,0.00041807,-0.00058337,-0.00055875,0.00003553,0.00007483,-0.0
 0003359,-0.00007662,0.00839584,-0.06625471,0.00789671,0.00121819,-0.00
 180461,0.00032222,-0.01067559,0.00592208,-0.00115223,0.01064397,0.0909
 6309,-0.00076295,-0.00066716,0.00029432,-0.00071936,0.00067764,0.00023
 716,0.00108213,0.00004256,-0.00015965,-0.00043834,-0.00000731,0.000211
 08,-0.00052084,0.00023473,0.00013150,0.00015363,0.00008457,-0.00007234
 ,-0.00001271,-0.00004307,-0.00001541,-0.00000543,0.00002746,-0.0000022
 3,0.00172854,0.00537370,-0.00076958,-0.01361125,-0.00870378,-0.0046834
 0,-0.00064653,0.00286830,0.00014148,-0.00022144,-0.00051034,0.00029023
 ,-0.00004908,0.00045073,-0.00005824,-0.00015875,-0.00001602,-0.0000318
 2,0.00000975,-0.00006194,-0.00004536,-0.00003023,-0.00001576,0.0000051
 1,-0.00001361,-0.00001569,-0.00000160,0.00000314,0.00001248,0.00000655
 ,-0.00000067,-0.00000369,0.00000617,-0.00000117,-0.00001092,0.00000295
 ,-0.00001890,0.00000476,0.00000063,0.00000476,-0.00000199,0.00000308,0
 .00042898,-0.00022585,-0.00039734,0.00051469,0.00057549,0.00001660,0.0
 0002253,0.00005898,-0.00006510,-0.06331302,0.00777644,-0.11700677,-0.0
 0023338,0.00113293,-0.00116466,0.01219978,0.00168027,0.00800667,0.0982
 2778,0.00879281,0.17118067,0.00042300,0.00054190,0.00077932,0.00137671
 ,-0.00019455,0.00001045,-0.00117109,-0.00165156,0.00012364,0.00028695,
 0.00109952,0.00012574,0.00026980,0.00022221,0.00002844,-0.00008975,-0.
 00008726,-0.00004534,0.00003601,0.00001057,0.00000233,-0.00000570,-0.0
 0000659,-0.00000521,-0.00183012,-0.00118355,0.00124750,-0.00882886,0.0
 0517882,-0.00926757,0.00282111,-0.00308332,-0.00090446,-0.00032474,0.0
 0036172,0.00065527,0.00019757,-0.00026175,-0.00016961,0.00005230,0.000
 00162,-0.00005729,-0.00004496,0.00000162,-0.00006515,0.00005296,0.0000
 0206,0.00004257,0.00002289,-0.00001103,-0.00002003,-0.00000707,0.00001
 519,0.00001937,-0.00000591,0.00000298,-0.00000862,0.00000455,-0.000005
 38,-0.00001031,-0.00000282,0.00001145,0.00000108,0.00001350,-0.0000025
 1,0.00001327,0.00116521,0.00007668,-0.00093794,-0.00020123,-0.00056196
 ,0.00009252,0.00012986,0.00000554,-0.00009716,-0.12003214,-0.02220471,
 -0.06202127,0.00029805,0.00066295,-0.00020332,0.00648666,0.00001894,0.
 00880405,-0.00087508,0.00044707,-0.00463905,0.18182411,-0.00201695,0.0
 0276475,0.00027323,0.00236374,-0.00041388,-0.00007443,-0.00234346,-0.0
 0079418,0.00012902,0.00084946,0.00055062,-0.00005715,0.00098176,-0.000
 29431,-0.00011421,-0.00032636,-0.00017873,0.00003297,0.00003784,0.0000
 6970,0.00001647,0.00000168,-0.00004521,-0.00000463,0.00060843,-0.00523
 752,-0.00286105,-0.02201596,-0.00750246,-0.01756192,0.00448425,-0.0026
 6834,-0.00253203,0.00070456,-0.00073787,0.00151113,-0.00100531,-0.0009
 8701,-0.00029391,0.00005196,0.00008407,-0.00000427,-0.00002800,0.00009
 107,0.00000875,0.00008589,0.00003036,0.00003260,0.00001775,0.00001189,
 -0.00000837,-0.00001066,0.00000348,0.00001159,-0.00000112,-0.00000221,
 -0.00001071,0.00000073,0.00000796,-0.00001061,0.00002847,-0.00000070,-
 0.00000251,0.00000562,0.00000564,0.00001255,-0.00102419,-0.00175064,-0
 .00025930,-0.00087899,-0.00110837,0.00015841,-0.00001184,-0.00006643,0
 .00002869,-0.02148907,-0.07425398,-0.02396650,0.00002401,0.00015654,-0
 .00040194,0.00038077,0.00817780,0.00440266,-0.00296896,0.00795836,-0.0
 0187169,0.01223127,0.09100821,-0.00071942,0.00075847,0.00027372,0.0013
 3703,-0.00031260,0.00012451,-0.00129208,-0.00065584,-0.00010265,0.0005
 1132,0.00045249,0.00032875,0.00051257,-0.00010428,0.00002398,-0.000176
 70,-0.00009743,-0.00006652,0.00002804,0.00003453,0.00000419,-0.0000020
 8,-0.00001760,-0.00000983,0.00040550,-0.00285511,0.00007122,-0.0159002
 5,0.00455781,-0.00502655,0.00347799,-0.00486880,-0.00100291,-0.0008606
 8,0.00036802,0.00050018,0.00017118,-0.00044135,-0.00008787,0.00005925,
 0.00002062,-0.00010509,-0.00002293,0.00002098,-0.00006371,0.00007013,0
 .00001985,0.00003943,0.00000258,-0.00000295,0.00000067,-0.00000644,0.0
 0001837,0.00001688,-0.00000128,-0.00001171,-0.00000106,-0.00000216,-0.
 00000445,-0.00000272,0.00000944,0.00000397,-0.00000124,0.00001200,0.00
 000482,0.00001431,-0.00036417,-0.00101392,-0.00105437,-0.00047809,-0.0
 0089717,0.00013200,0.00004530,-0.00005008,-0.00005670,-0.06136872,-0.0
 2393185,-0.12038699,0.00009628,0.00031192,-0.00033586,-0.01150425,-0.0
 0362820,-0.04426447,-0.00505251,0.00069344,-0.00161047,0.09963004,0.01
 624112,0.17339552,-0.00034738,-0.00042823,-0.00093003,-0.00047279,0.00
 069267,-0.00014850,0.00114190,-0.00059071,0.00003419,-0.00055726,0.000
 44651,0.00001725,-0.00067776,0.00043366,0.00007545,0.00021651,0.000093
 65,-0.00003521,-0.00001047,-0.00005623,-0.00000795,-0.00000693,0.00003
 331,0.00000511,0.00251154,0.00426696,0.00125285,-0.01169348,-0.0064039
 3,0.01414233,-0.00267336,0.00188452,-0.00012180,0.00024012,-0.00047818
 ,-0.00092694,-0.00013475,0.00055955,0.00024892,-0.00015457,-0.00001426
 ,0.00001801,-0.00000234,-0.00007054,-0.00001572,-0.00004644,-0.0000297
 3,-0.00000550,-0.00000353,-0.00001487,-0.00000862,0.00000523,0.0000016
 3,0.00000115,-0.00000424,0.00001244,-0.00000356,0.00000519,-0.00000675
 ,-0.00000416,-0.00002731,0.00001012,0.00000416,0.00000204,-0.00001044,
 -0.00000189,0.00075835,-0.00053425,0.00029415,0.00073740,0.00076303,-0
 .00008291,0.00010572,0.00003437,0.00009792,-0.11969378,0.00778747,0.06
 359613,0.00105476,0.00059287,0.00079713,-0.00038795,-0.00295363,0.0049
 0711,0.00684156,-0.00051620,-0.01207121,-0.04339093,-0.00350774,0.0122
 6529,0.16998048,-0.00099656,-0.00066518,0.00107078,0.00200002,-0.00048
 095,0.00007206,-0.00198053,-0.00068226,0.00014207,0.00065281,0.0004381
 8,-0.00006683,0.00082928,-0.00026041,-0.00013067,-0.00027088,-0.000141
 71,0.00002659,0.00002824,0.00006151,0.00001136,0.00000283,-0.00003828,
 -0.00000121,-0.00302364,-0.00263703,-0.00172771,0.02003830,-0.00325438
 ,-0.01541262,0.00013501,-0.00514088,-0.00301973,0.00066697,0.00250391,
 -0.00010413,0.00173202,-0.00062333,-0.00028980,0.00010345,0.00007076,0
 .00002299,-0.00002824,0.00008175,0.00001083,0.00006998,0.00002582,0.00
 002437,0.00002021,0.00000969,-0.00000654,-0.00000803,-0.00000029,0.000
 00773,-0.00000086,-0.00000151,-0.00000767,0.00000021,0.00000749,-0.000
 00722,0.00002544,-0.00000262,-0.00000233,0.00000256,0.00000550,0.00000
 885,-0.00021569,-0.00005028,-0.00037619,-0.00058125,-0.00055360,-0.000
 00094,0.00008470,-0.00003743,0.00008289,0.00703561,-0.06642475,-0.0075
 8833,0.00135786,-0.00179164,-0.00043172,0.00037468,0.00795585,-0.00056
 827,-0.00060674,0.00789401,0.00159331,-0.01043123,0.00595488,0.0017620
 4,0.01141931,0.09199706,0.00081173,0.00069921,0.00033905,0.00073889,-0
 .00076764,0.00022148,-0.00115805,0.00014440,-0.00006760,0.00049846,-0.
 00011641,0.00010022,0.00060644,-0.00027877,-0.00002305,-0.00019434,-0.
 00010199,-0.00000844,0.00001617,0.00004984,0.00000059,0.00000415,-0.00
 002749,-0.00000934,-0.00194212,-0.00568238,-0.00074250,0.01431892,0.00
 915112,-0.00639540,0.00080040,-0.00308572,0.00001016,0.00025475,0.0005
 5881,0.00031566,0.00005296,-0.00049782,-0.00010348,0.00016407,0.000015
 00,-0.00005800,-0.00000784,0.00004932,-0.00002323,0.00005466,0.0000286
 2,0.00001824,0.00000356,0.00000655,0.00000718,-0.00000539,0.00000637,0
 .00000732,0.00000127,-0.00001475,0.00000305,-0.00000518,0.00000109,0.0
 0000253,0.00001965,-0.00000446,-0.00000359,0.00000396,0.00000917,0.000
 00725,-0.00051057,0.00027413,-0.00037442,-0.00056108,-0.00062626,0.000
 05298,-0.00003129,-0.00006157,-0.00006459,0.06345481,-0.00763724,-0.12
 399485,0.00016336,-0.00118563,-0.00127454,0.00457196,0.00216354,-0.002
 10015,0.00936159,-0.00076058,-0.04476397,-0.00972462,-0.00139680,0.008
 06313,-0.09799780,-0.01061683,0.18149395,0.00026307,-0.00038161,-0.000
 06011,0.00016354,0.00008644,0.00000745,0.00002164,-0.00066135,0.000056
 51,-0.00007499,0.00047464,-0.00002522,-0.00014354,0.00021807,0.0000359
 0,0.00004917,0.00000788,-0.00001903,0.00000687,-0.00001523,-0.00000268
 ,-0.00000348,0.00000814,0.00000226,-0.00026711,-0.00073392,0.00004094,
 0.00312649,0.00037608,-0.00001148,-0.00059810,0.00074306,0.00002449,-0
 .00001413,0.00028863,-0.00001673,0.00024914,0.00007088,0.00000685,-0.0
 0000289,-0.00001768,-0.00000387,-0.00001374,-0.00001946,-0.00001980,-0
 .00000316,-0.00000922,0.00000659,0.00000427,-0.00000550,-0.00000717,-0
 .00000009,0.00000273,0.00000459,-0.00000320,0.00000577,-0.00000412,0.0
 0000351,-0.00000301,-0.00000464,-0.00000979,0.00000684,0.00000153,0.00
 000367,-0.00000438,0.00000208,0.00031915,-0.00025990,-0.00002215,0.000
 21355,0.00016941,-0.00000273,0.00004106,0.00001307,-0.00000234,-0.0608
 7701,0.01658703,0.00027831,0.00017061,0.00022554,-0.00000870,-0.016283
 83,0.03294604,0.02175089,-0.00485456,-0.02996255,-0.01690776,-0.018650
 82,0.03477044,-0.02088219,-0.00331552,-0.02843582,0.01623653,0.1004802
 1,-0.00130720,0.00064932,0.00004452,0.00162305,-0.00032559,-0.00005945
 ,-0.00163265,-0.00000994,0.00005997,0.00062986,0.00000632,-0.00002714,
 0.00080415,-0.00037002,-0.00011431,-0.00027916,-0.00013569,0.00004602,
 0.00002024,0.00005973,0.00001093,0.00000343,-0.00003968,-0.00000181,-0
 .00028435,-0.00058308,-0.00002797,0.00047395,0.00050580,-0.00001838,0.
 00022047,-0.00039670,-0.00000479,0.00054254,0.00089095,-0.00002309,0.0
 0034232,-0.00037808,-0.00002038,0.00003308,0.00006320,0.00000083,-0.00
 001002,0.00007824,0.00002444,0.00006285,0.00002773,0.00002034,0.000008
 61,0.00001042,-0.00000412,-0.00000711,-0.00000050,0.00000551,0.0000021
 9,-0.00000292,-0.00000648,-0.00000246,0.00000888,-0.00000753,0.0000283
 5,-0.00000562,-0.00000309,0.00000113,0.00000643,0.00000937,-0.00045284
 ,0.00014979,0.00002616,-0.00049807,-0.00054127,0.00001773,0.00001301,-
 0.00004932,0.00000145,0.01699805,-0.17811168,-0.00145748,0.00028824,0.
 00032355,-0.00000919,0.01764966,-0.02031806,-0.01466919,-0.01415713,-0
 .03328597,-0.01923196,0.01879329,-0.02083347,0.01362488,-0.01341639,-0
 .03421988,0.01970517,-0.02649106,0.28682709,-0.00000127,0.00000987,0.0
 0038523,-0.00000931,-0.00002491,0.00003682,-0.00000618,0.00009041,-0.0
 0013948,0.00003151,-0.00007101,0.00017741,0.00002680,-0.00002270,0.000
 03018,-0.00001796,-0.00000390,-0.00003773,0.00000191,0.00000075,-0.000
 00155,-0.00000092,0.00000133,-0.00000407,0.00000963,0.00001656,0.00005
 119,-0.00001916,-0.00002215,0.00234797,0.00001447,-0.00002898,-0.00019
 822,0.00001405,-0.00000279,0.00045943,-0.00002048,0.00000138,-0.000450
 23,-0.00000144,0.00000221,-0.00003087,0.00000137,-0.00000778,-0.000026
 00,0.00001032,0.00000379,0.00000983,-0.00000294,-0.00000324,0.00000230
 ,-0.00000042,0.00000704,0.00000480,-0.00000027,-0.00000662,0.00000332,
 -0.00000249,-0.00000368,0.00000202,0.00000013,0.00000010,-0.00000073,0
 .00000313,0.00000237,0.00000400,-0.00001759,0.00002796,-0.00023447,-0.
 00001007,-0.00000931,-0.00002243,-0.00000266,-0.00000040,-0.00003238,0
 .00021668,-0.00140977,-0.05768998,-0.00001643,-0.00000570,-0.00018583,
 0.02411115,-0.03049912,-0.01186110,-0.01506331,-0.03422641,-0.00968622
 ,-0.02339862,0.02857281,-0.00880951,0.01460464,0.03552284,-0.01063564,
 -0.00045423,0.00208904,0.09653194\\-0.00000591,0.00000271,0.00000252,-
 0.00000199,-0.00001032,-0.00000118,0.00000308,0.00000640,-0.00000071,-
 0.00000322,0.00000066,-0.00000192,0.00000252,-0.00000059,0.00000236,0.
 00000204,0.00000024,-0.00000485,0.00000501,0.00001002,-0.00000117,0.00
 000327,0.00000460,-0.00000822,0.00000630,-0.00000974,0.00000103,-0.000
 00791,-0.00000328,0.00000019,0.00000285,-0.00000584,0.00000623,-0.0000
 0310,-0.00000537,0.00000966,0.00000787,-0.00000393,0.00000412,-0.00000
 033,0.00000415,0.00000352,-0.00000011,0.00000814,-0.00000128,0.0000011
 0,0.00000717,-0.00000796,0.00000016,0.00000390,-0.00000257,0.00000092,
 0.00000428,-0.00000149,0.00000355,0.00000563,-0.00000516,-0.00000098,0
 .00000502,-0.00000629,0.00000130,0.00000872,-0.00000543,0.00000143,0.0
 0000913,-0.00000980,-0.00000136,-0.00000062,0.00000051,0.00000333,-0.0
 0000622,0.00000970,0.00000449,-0.00000154,0.00000952,-0.00000147,-0.00
 000252,-0.00000017,-0.00000185,-0.00000671,0.00000538,-0.00000349,-0.0
 0000776,-0.00000857,-0.00000249,-0.00000913,0.00000966,-0.00000046,0.0
 0000117,0.00000348,-0.00000282,-0.00000340,-0.00000370,-0.00001171,-0.
 00000496,0.00000259\\\@


 THE TEST OF A FIRST RATE INTELLIGENCE IS THE ABILITY TO HOLD TWO OPPOSED
 IDEAS IN THE MIND AT THE SAME TIME, AND STILL RETAIN THE ABILITY TO FUNCTION.
 ONE SHOULD, FOR EXAMPLE, BE ABLE TO SEE THAT THINGS ARE HOPELESS AND YET BE
 DETERMINED TO MAKE THEM OTHERWISE.

                                                       -- F. SCOTT FITZGERALD
 Job cpu time:       0 days  6 hours  7 minutes 41.3 seconds.
 File lengths (MBytes):  RWF=    949 Int=      0 D2E=      0 Chk=     27 Scr=      1
 Normal termination of Gaussian 09 at Thu Nov 14 11:12:12 2019.
pbs_rusage has been removed.
Please contact help@nci.org.au if you require this functionality.
