Process 0 of 1 is on r4152 - thread support 0
initial socket setup ...start
initial socket setup ...done 
now start server 0 ... 
r4152 10.9.71
Q-Chem Developer Version! Running on 10.9.71.*
                  Welcome to Q-Chem
     A Quantum Leap Into The Future Of Chemistry


 Q-Chem 5.0, Q-Chem, Inc., Pleasanton, CA (2017)

 Yihan Shao,  Zhengting Gan,  E. Epifanovsky,  A. T. B. Gilbert,  M. Wormit,  
 J. Kussmann,  A. W. Lange,  A. Behn,  Jia Deng,  Xintian Feng,  D. Ghosh,  
 M. Goldey,  P. R. Horn,  L. D. Jacobson,  I. Kaliman,  T. Kus,  A. Landau,  
 Jie Liu,  E. I. Proynov,  R. M. Richard,  R. P. Steele,  E. J. Sundstrom,  
 H. L. Woodcock III,  P. M. Zimmerman,  D. Zuev,  B. Albrecht,  E. Alguire,  
 S. A. Baeppler,  Z. Benda,  Y. A. Bernard,  E. J. Berquist,  K. B. Bravaya,  
 D. Casanova,  Chun-Min Chang,  Yunqing Chen,  A. Chien,  K. D. Closser,  
 M. P. Coons,  S. Dasgupta,  M. Diedenhofen,  Hainam Do,  R. G. Edgar,  
 Po-Tung Fang,  S. Fatehi,  Qingguo Feng,  Qinghui Ge,  A. Ghysels,  
 J. Gomes,  J. Gonthier,  A. Gunina,  M. W. D. Hanson-Heine,  
 P. H. P. Harbach,  A. W. Hauser,  J. E. Herr,  E. G. Hohenstein,  
 Z. C. Holden,  Kerwin Hui,  T.-C. Jagau,  Hyunjun Ji,  B. Kaduk,  
 K. Khistyaev,  Jaehoon Kim,  P. Klunzinger,  K. Koh,  D. Kosenkov,  
 T. Kowalczyk,  C. M. Krauter,  A. Kunitsa,  Ka Un Lao,  A. Laurent,  
 K. V. Lawler,  Joonho Lee,  D. Lefrancois,  S. Lehtola,  D. S. Levine,  
 Yi-Pei Li,  You-Sheng Lin,  Fenglai Liu,  E. Livshits,  A. Luenser,  
 P. Manohar,  E. Mansoor,  S. F. Manzer,  Shan-Ping Mao,  Yuezhi Mao,  
 N. Mardirossian,  A. V. Marenich,  L. A. Martinez-Martinez,  S. A. Maurer,  
 N. J. Mayhall,  S. C. McKenzie,  J.-M. Mewes,  A. F. Morrison,  K. Nanda,  
 T. S. Nguyen-Beck,  R. Olivares-Amaya,  J. A. Parkhill,  T. M. Perrine,  
 F. Plasser,  S. Prager,  A. Prociuk,  D. R. Rehn,  F. Rob,  M. Schneider,  
 N. Sergueev,  S. M. Sharada,  S. Sharma,  D. W. Small,  T. Stauch,  
 T. Stein,  Yu-Chuan Su,  A. J. W. Thom,  T. Tsuchimochi,  L. Vogt,  
 O. Vydrov,  M. A. Watson,  J. Wenzel,  M. de Wergifosse,  T. A. Wesolowski,  
 A. White,  J. Witte,  A. Yamada,  Jun Yang,  K. Yao,  S. Yeganeh,  
 S. R. Yost,  Zhi-Qiang You,  A. Zech,  Igor Ying Zhang,  Xing Zhang,  
 Yan Zhao,  Ying Zhu,  B. R. Brooks,  G. K. L. Chan,  C. J. Cramer,  
 M. S. Gordon,  W. J. Hehre,  A. Klamt,  M. W. Schmidt,  C. D. Sherrill,  
 D. G. Truhlar,  A. Aspuru-Guzik,  R. Baer,  A. T. Bell,  N. A. Besley,  
 Jeng-Da Chai,  A. Dreuw,  B. D. Dunietz,  T. R. Furlani,  Chao-Ping Hsu,  
 Yousung Jung,  Jing Kong,  D. S. Lambrecht,  WanZhen Liang,  C. Ochsenfeld,  
 V. A. Rassolov,  L. V. Slipchenko,  J. E. Subotnik,  T. Van Voorhis,  
 J. M. Herbert,  A. I. Krylov,  P. M. W. Gill,  M. Head-Gordon

 Contributors to earlier versions of Q-Chem not listed above: 
 R. D. Adamson,  B. Austin,  J. Baker,  G. J. O. Beran,  K. Brandhorst,  
 S. T. Brown,  E. F. C. Byrd,  A. K. Chakraborty,  C.-L. Cheng,  
 Siu Hung Chien,  D. M. Chipman,  D. L. Crittenden,  H. Dachsel,  
 R. A. DiStasio Jr.,  R. J. Doerksen,  A. D. Dutoi,  L. Fusti-Molnar,  
 W. A. Goddard III,  A. Golubeva-Zadorozhnaya,  S. R. Gwaltney,  G. Hawkins,  
 A. Heyden,  S. Hirata,  G. Kedziora,  F. J. Keil,  C. Kelley,  Jihan Kim,  
 R. A. King,  R. Z. Khaliullin,  P. P. Korambath,  W. Kurlancheek,  
 A. M. Lee,  M. S. Lee,  S. V. Levchenko,  Ching Yeh Lin,  D. Liotard,  
 R. C. Lochan,  I. Lotan,  P. E. Maslen,  N. Nair,  D. P. O'Neill,  
 D. Neuhauser,  E. Neuscamman,  C. M. Oana,  R. Olson,  B. Peters,  
 R. Peverati,  P. A. Pieniazek,  Y. M. Rhee,  J. Ritchie,  M. A. Rohrdanz,  
 E. Rosta,  N. J. Russ,  H. F. Schaefer III,  N. E. Schultz,  N. Shenvi,  
 A. C. Simmonett,  A. Sodt,  D. Stuck,  K. S. Thanthiriwatte,  V. Vanovschi,  
 Tao Wang,  A. Warshel,  C. F. Williams,  Q. Wu,  X. Xu,  W. Zhang

 Please cite Q-Chem as follows:
 Y. Shao et al., Mol. Phys. 113, 184-215 (2015)
 DOI: 10.1080/00268976.2014.952696

 Q-Chem 5.0.0 for Intel X86 EM64T Linux

 Parts of Q-Chem use Armadillo 5.200.1 (Boston Tea Smuggler).
 http://arma.sourceforge.net/

 Q-Chem begins on Mon Dec  9 10:13:44 2019  

Host: r4152
0

     Scratch files written to /jobfs/local/4046350.r-man2/CP22_c2.CCSD-T_6-31pGd.mo//
 Parallel job on  1  processors
Core orbitals will be frozen

Checking the input file for inconsistencies... 	...done.

--------------------------------------------------------------
User input:
--------------------------------------------------------------
$molecule
  0 1
    C     -5.9286419743    1.4199467089    0.3515334142
    N     -4.7012333765    0.7531887212    0.3602557310
    C     -3.4537066723    1.2828126907    0.0351216639
    O     -3.2844584977    2.4223218776   -0.3386736204
    N     -2.4358024631    0.3732090485    0.1525047662
    C     -1.0621254658    0.8171195865   -0.0512339121
    C     -0.1206670757   -0.3769670700   -0.1048904808
    C      1.3240131000    0.0600420145   -0.3257606922
    C     -7.0724701868    0.6452797662    0.5758402703
    C     -8.3081775427    1.2611512814    0.5973993595
    C     -8.4775023079    2.6224656316    0.4067512601
    C     -7.3253615959    3.3639953635    0.1870175277
    C     -6.0586037630    2.7985742413    0.1549598070
    H     -4.7552337412   -0.2479610642    0.4726093448
    H     -2.5667442108   -0.4195011013    0.7641340313
    H     -0.7600056162    1.5117429626    0.7413172028
    H     -1.0311635228    1.3730699919   -0.9895662463
    H     -0.4413969769   -1.0477241525   -0.9074073986
    H     -0.1926109378   -0.9442488440    0.8307251471
    H      1.4282518422    0.6079313839   -1.2651417863
    H      1.9951652794   -0.7989997389   -0.3654469727
    H      1.6666872168    0.7136591306    0.4798830046
    H     -6.9894210667   -0.4233008500    0.7316570649
    Cl    -7.4759037931    5.0781374192   -0.0585301882
    H     -5.1899231620    3.4119262800   -0.0272143493
    S     -9.7734808973    0.2393156020    0.8894509720
    H     -9.4508298994    3.0919793099    0.4253871198
    F     -9.0631115854   -0.5508785474    2.1088463591
    F    -10.3888824641    1.3005835649    1.9366800450
    F     -9.2643450051   -0.9044361955   -0.1339815401
    F    -10.5896281900    0.9474200674   -0.3078211058
    F    -11.0713054480   -0.6694750804    1.1490042015

$end

$rem

    JOBTYPE               sp
    METHOD                CCSD(T)
    BASIS                 6-31+G*
    CC_BACKEND            XM

    MEM_TOTAL             60000
$end
--------------------------------------------------------------
 ----------------------------------------------------------------
             Standard Nuclear Orientation (Angstroms)
    I     Atom           X                Y                Z
 ----------------------------------------------------------------
    1      C       0.5705935107    -0.2137786729    -0.0445584032
    2      N       1.8035154885     0.4414913626    -0.0857741299
    3      C       3.0673456623    -0.1361401425     0.0219835815
    4      O       3.2518772731    -1.3194170459     0.2026847178
    5      N       4.0854537578     0.7763840202    -0.0676942653
    6      C       5.4636756406     0.3010893240    -0.0800999579
    7      C       6.4295218260     1.4696879839     0.0486796564
    8      C       7.8802798709     0.9983516703     0.0465407659
    9      C      -0.5745726582     0.5906378132    -0.0280060640
   10      C      -1.8179008042    -0.0097584599    -0.0081409315
   11      C      -1.9937442087    -1.3835332540    -0.0041102777
   12      C      -0.8401238527    -2.1545374355    -0.0211426872
   13      C       0.4341595768    -1.6057274547    -0.0414772951
   14      H       1.7582654165     1.4484164747    -0.0422480881
   15      H       3.9069784065     1.6521108124    -0.5376672594
   16      H       5.6666505737    -0.2686717352    -0.9944788837
   17      H       5.5818960999    -0.3888977405     0.7568282580
   18      H       6.2086091091     2.0144426794     0.9713150286
   19      H       6.2710701436     2.1706506211    -0.7795145112
   20      H       8.0716290622     0.3158617526     0.8778519685
   21      H       8.5691264134     1.8389215328     0.1409109406
   22      H       8.1230285310     0.4709166699    -0.8789796604
   23      H      -0.4867682460     1.6701357622    -0.0318953561
   24      Cl     -0.9986575635    -3.8854598823    -0.0173788237
   25      H       1.3045934075    -2.2431578023    -0.0461282632
   26      S      -3.2848169600     1.0505597607     0.0127990814
   27      H      -2.9729330501    -1.8407854703     0.0122180244
   28      F      -2.6907902288     2.0109342917    -1.1451169198
   29      F      -4.0282890424     0.1602734051    -1.1080653067
   30      F      -2.6478331743     2.0264174946     1.1338499178
   31      F      -3.9846790970     0.1751148669     1.1724360904
   32      F      -4.5840869263     1.9935242446     0.0310332409
 ----------------------------------------------------------------
 Molecular Point Group                 C1    NOp =  1
 Largest Abelian Subgroup              C1    NOp =  1
 Nuclear Repulsion Energy =  2000.4627184292 hartrees
 There are       86 alpha and       86 beta electrons
 Requested basis set is 6-31+G(d)
 There are 126 shells and 412 basis functions
 Total memory of 50485MB is distributed as follows: 
   QALLOC including MEM_STATIC uses 30062MB
   MEM_STATIC is set to 62MB
   CCMAN JOB total memory use is  50423MB
 Warning: actual memory use might exceed 50485MB

 Total QAlloc Memory Limit  30062 MB
 Mega-Array Size        61 MB
 MEM_STATIC part        62 MB
 A cutoff of  1.0D-14 yielded   5703 shell pairs
 There are     65687 function pairs
 
 -------------------------------------------------------
 OpenMP Integral Computing Module                       
 Release: version 1.0, May 2013, Q-Chem Inc. Pittsburgh 
 -------------------------------------------------------
 Integral Job Info:
 Integral job number is                      11
 Integral operator is                         1
 short-range coefficients                     0
 long-range coefficients              100000000
 Omega coefficients                           0
 if combine SR and LR in K                    0
 Integral screening is                        0
 Integral computing path is                   2
 max size of driver memory is            800000
 size of driver memory is                593474
 size of scratch memory is             15166112
 max col of scratch BK array               1296
 max len of scratch array in speh3          155
 max len of scratch index in speh4           18
 max int batch size is                      520
 min int batch size is                       52
 fixed nKL is                                52
 max L of basis functions is                  2
 order of int derivative is                   0
 number of shells is                        126
 number of basis is                         412
 number of cartesian basis is               412
 number of contracted shell pairs          5703
 number of primitive shell pairs          18488
 maxK2 (contraction) of shell pair           36
 max number of K2 of shell pair               1
 max number of CS2 of shell pair            831
 max number of PS2 of shell pair           4686
 mem total for path MDJ                  164312
 -------------------------------------------------------
 Smallest overlap matrix eigenvalue = 6.92E-07
 Linear dependence detected in AO basis
 Number of orthogonalized atomic orbitals = 411
 Maximum deviation from orthogonality = 2.951E-10

 Scale SEOQF with 1.000000e-02/1.000000e-01/1.000000e-01

 Standard Electronic Orientation quadrupole field applied
 Nucleus-field energy     =     0.0000000390 hartrees
 Guess from superposition of atomic densities
 Warning:  Energy on first SCF cycle will be non-variational
 A restricted Hartree-Fock SCF calculation will be
 performed using Pulay DIIS extrapolation
 SCF converges when DIIS error is below 1.0E-08
 -------------------------------------------------------
 OpenMP Integral computing Module                
 Release: version 1.0, May 2013, Q-Chem Inc. Pittsburgh 
 -------------------------------------------------------
 ---------------------------------------
  Cycle       Energy         DIIS Error
 ---------------------------------------
    1   -1930.2254680152      3.66E-02
    2   -1923.0299090456      4.91E-03
    3   -1923.3563041908      3.22E-03
    4   -1923.5110532923      4.77E-04
    5   -1923.5168686009      1.86E-04
    6   -1923.5177053809      4.80E-05
    7   -1923.5177956101      2.08E-05
    8   -1923.5178199536      7.25E-06
    9   -1923.5178243870      3.44E-06
   10   -1923.5178253001      1.57E-06
   11   -1923.5178255211      6.70E-07
   12   -1923.5178255702      2.68E-07
   13   -1923.5178255761      1.01E-07
   14   -1923.5178255770      3.72E-08
   15   -1923.5178255770      1.30E-08
   16   -1923.5178255770      4.59E-09 Convergence criterion met
 ---------------------------------------
 SCF time:  CPU 299.81 s  wall 76.61 s
 SCF   energy in the final basis set = -1923.5178255770
 Total energy in the final basis set = -1923.5178255770


 ------------------------------------------------------------------------------

   CCMAN2: suite of methods based on coupled cluster
           and equation of motion theories.

   Components:
   * libvmm-1.3-trunk
     by Evgeny Epifanovsky, Ilya Kaliman.
   * libtensor-2.5-release
     by Evgeny Epifanovsky, Michael Wormit, Dmitry Zuev, Sam Manzer, 
        Ilya Kaliman.
   * libcc-2.5-trunk
     by Evgeny Epifanovsky, Arik Landau, Tomasz Kus, Kirill Khistyaev, 
        Dmitry Zuev, Prashant Manohar, Xintian Feng, Anna Krylov, 
        Matthew Goldey, Alec White, Thomas Jagau, Kaushik Nanda, 
        Anastasia Gunina, Alexander Kunitsa, Joonho Lee.

   CCMAN original authors:
   Anna I. Krylov, C. David Sherrill, Steven R. Gwaltney,
   Edward F. C. Byrd (2000)
   Sergey V. Levchenko, Lyudmila V. Slipchenko, Tao Wang,
   Ana-Maria C. Cristian (2003)
   Piotr A. Pieniazek, C. Melania Oana, Evgeny Epifanovsky (2007)
   Prashant Manohar (2009)

 ------------------------------------------------------------------------------


================================================================================
This program uses libxm tensor contraction code.
See https://github.com/ilyak/libxm for more info.
libxm is (c) Ilya Kaliman 2014-2016.
================================================================================

 Calculation will run on 4 cores using libxm for tensor contractions

 
 Alpha MOs, Restricted
 -- Occupied --                  
-104.84  -92.41  -26.36  -26.36  -26.36  -26.36  -26.36  -20.55
  1 A     2 A     3 A     4 A     5 A     6 A     7 A     8 A                  
-15.636 -15.611 -11.412 -11.333 -11.332 -11.318 -11.285 -11.281
  9 A    10 A    11 A    12 A    13 A    14 A    15 A    16 A                  
-11.278 -11.269 -11.246 -11.233 -10.575  -9.349  -8.045  -8.041
 17 A    18 A    19 A    20 A    21 A    22 A    23 A    24 A                  
 -8.041  -7.038  -7.038  -7.035  -1.763  -1.663  -1.662  -1.633
 25 A    26 A    27 A    28 A    29 A    30 A    31 A    32 A                  
 -1.619  -1.430  -1.294  -1.253  -1.215  -1.157  -1.103  -1.075
 33 A    34 A    35 A    36 A    37 A    38 A    39 A    40 A                  
 -1.042  -1.028  -0.954  -0.909  -0.881  -0.869  -0.865  -0.842
 41 A    42 A    43 A    44 A    45 A    46 A    47 A    48 A                  
 -0.836  -0.802  -0.784  -0.778  -0.764  -0.754  -0.728  -0.717
 49 A    50 A    51 A    52 A    53 A    54 A    55 A    56 A                  
 -0.697  -0.691  -0.688  -0.685  -0.682  -0.676  -0.675  -0.659
 57 A    58 A    59 A    60 A    61 A    62 A    63 A    64 A                  
 -0.655  -0.652  -0.650  -0.635  -0.630  -0.620  -0.601  -0.588
 65 A    66 A    67 A    68 A    69 A    70 A    71 A    72 A                  
 -0.574  -0.569  -0.559  -0.539  -0.527  -0.512  -0.504  -0.497
 73 A    74 A    75 A    76 A    77 A    78 A    79 A    80 A                  
 -0.468  -0.466  -0.464  -0.420  -0.371  -0.338
 81 A    82 A    83 A    84 A    85 A    86 A                                  
 -- Virtual --                   
  0.042   0.068   0.074   0.075   0.080   0.085   0.086   0.094
 87 A    88 A    89 A    90 A    91 A    92 A    93 A    94 A                  
  0.098   0.103   0.105   0.107   0.117   0.119   0.124   0.127
 95 A    96 A    97 A    98 A    99 A   100 A   101 A   102 A                  
  0.132   0.137   0.143   0.144   0.148   0.153   0.156   0.159
103 A   104 A   105 A   106 A   107 A   108 A   109 A   110 A                  
  0.177   0.179   0.183   0.187   0.192   0.198   0.205   0.206
111 A   112 A   113 A   114 A   115 A   116 A   117 A   118 A                  
  0.209   0.212   0.229   0.234   0.240   0.243   0.248   0.252
119 A   120 A   121 A   122 A   123 A   124 A   125 A   126 A                  
  0.255   0.264   0.267   0.273   0.280   0.285   0.292   0.294
127 A   128 A   129 A   130 A   131 A   132 A   133 A   134 A                  
  0.301   0.309   0.317   0.317   0.321   0.327   0.331   0.336
135 A   136 A   137 A   138 A   139 A   140 A   141 A   142 A                  
  0.340   0.349   0.353   0.357   0.359   0.362   0.366   0.369
143 A   144 A   145 A   146 A   147 A   148 A   149 A   150 A                  
  0.377   0.384   0.392   0.394   0.404   0.409   0.411   0.413
151 A   152 A   153 A   154 A   155 A   156 A   157 A   158 A                  
  0.422   0.422   0.426   0.432   0.437   0.441   0.444   0.448
159 A   160 A   161 A   162 A   163 A   164 A   165 A   166 A                  
  0.453   0.458   0.461   0.465   0.470   0.470   0.473   0.482
167 A   168 A   169 A   170 A   171 A   172 A   173 A   174 A                  
  0.492   0.496   0.500   0.505   0.517   0.525   0.529   0.530
175 A   176 A   177 A   178 A   179 A   180 A   181 A   182 A                  
  0.537   0.553   0.566   0.573   0.591   0.610   0.614   0.616
183 A   184 A   185 A   186 A   187 A   188 A   189 A   190 A                  
  0.629   0.634   0.647   0.680   0.686   0.695   0.720   0.749
191 A   192 A   193 A   194 A   195 A   196 A   197 A   198 A                  
  0.752   0.756   0.760   0.793   0.812   0.815   0.845   0.847
199 A   200 A   201 A   202 A   203 A   204 A   205 A   206 A                  
  0.866   0.877   0.886   0.901   0.910   0.925   0.929   0.938
207 A   208 A   209 A   210 A   211 A   212 A   213 A   214 A                  
  0.948   0.959   0.967   0.970   0.975   0.979   0.984   1.008
215 A   216 A   217 A   218 A   219 A   220 A   221 A   222 A                  
  1.013   1.045   1.047   1.064   1.068   1.071   1.091   1.097
223 A   224 A   225 A   226 A   227 A   228 A   229 A   230 A                  
  1.124   1.143   1.145   1.157   1.166   1.178   1.182   1.188
231 A   232 A   233 A   234 A   235 A   236 A   237 A   238 A                  
  1.197   1.202   1.213   1.218   1.222   1.229   1.239   1.249
239 A   240 A   241 A   242 A   243 A   244 A   245 A   246 A                  
  1.255   1.265   1.280   1.296   1.309   1.319   1.337   1.348
247 A   248 A   249 A   250 A   251 A   252 A   253 A   254 A                  
  1.361   1.369   1.375   1.393   1.399   1.413   1.435   1.463
255 A   256 A   257 A   258 A   259 A   260 A   261 A   262 A                  
  1.476   1.490   1.497   1.509   1.529   1.569   1.587   1.596
263 A   264 A   265 A   266 A   267 A   268 A   269 A   270 A                  
  1.610   1.629   1.641   1.649   1.669   1.682   1.692   1.704
271 A   272 A   273 A   274 A   275 A   276 A   277 A   278 A                  
  1.707   1.726   1.731   1.766   1.770   1.776   1.790   1.812
279 A   280 A   281 A   282 A   283 A   284 A   285 A   286 A                  
  1.843   1.845   1.864   1.870   1.879   1.894   1.927   1.965
287 A   288 A   289 A   290 A   291 A   292 A   293 A   294 A                  
  1.966   1.972   1.998   2.018   2.020   2.031   2.034   2.043
295 A   296 A   297 A   298 A   299 A   300 A   301 A   302 A                  
  2.053   2.059   2.065   2.069   2.073   2.096   2.105   2.113
303 A   304 A   305 A   306 A   307 A   308 A   309 A   310 A                  
  2.122   2.123   2.129   2.137   2.150   2.153   2.162   2.172
311 A   312 A   313 A   314 A   315 A   316 A   317 A   318 A                  
  2.185   2.204   2.211   2.221   2.240   2.258   2.260   2.275
319 A   320 A   321 A   322 A   323 A   324 A   325 A   326 A                  
  2.285   2.286   2.300   2.303   2.306   2.310   2.319   2.323
327 A   328 A   329 A   330 A   331 A   332 A   333 A   334 A                  
  2.328   2.328   2.354   2.365   2.382   2.390   2.392   2.422
335 A   336 A   337 A   338 A   339 A   340 A   341 A   342 A                  
  2.433   2.439   2.454   2.464   2.495   2.511   2.521   2.527
343 A   344 A   345 A   346 A   347 A   348 A   349 A   350 A                  
  2.543   2.562   2.573   2.595   2.600   2.636   2.660   2.668
351 A   352 A   353 A   354 A   355 A   356 A   357 A   358 A                  
  2.684   2.700   2.714   2.725   2.739   2.745   2.785   2.827
359 A   360 A   361 A   362 A   363 A   364 A   365 A   366 A                  
  2.878   2.944   2.947   2.952   2.964   3.012   3.027   3.050
367 A   368 A   369 A   370 A   371 A   372 A   373 A   374 A                  
  3.088   3.097   3.131   3.153   3.159   3.203   3.227   3.279
375 A   376 A   377 A   378 A   379 A   380 A   381 A   382 A                  
  3.306   3.314   3.391   3.443   3.470   3.600   3.680   3.732
383 A   384 A   385 A   386 A   387 A   388 A   389 A   390 A                  
  3.810   4.545   4.650   4.660   4.694   4.709   4.748   4.766
391 A   392 A   393 A   394 A   395 A   396 A   397 A   398 A                  
  4.803   4.814   4.854   4.880   4.915   4.969   5.047   5.165
399 A   400 A   401 A   402 A   403 A   404 A   405 A   406 A                  
  6.329   6.410   6.572   7.716   9.409
407 A   408 A   409 A   410 A   411 A                                          
 
 Beta MOs, Restricted
 -- Occupied --                  
-104.84  -92.41  -26.36  -26.36  -26.36  -26.36  -26.36  -20.55
  1 A     2 A     3 A     4 A     5 A     6 A     7 A     8 A                  
-15.636 -15.611 -11.412 -11.333 -11.332 -11.318 -11.285 -11.281
  9 A    10 A    11 A    12 A    13 A    14 A    15 A    16 A                  
-11.278 -11.269 -11.246 -11.233 -10.575  -9.349  -8.045  -8.041
 17 A    18 A    19 A    20 A    21 A    22 A    23 A    24 A                  
 -8.041  -7.038  -7.038  -7.035  -1.763  -1.663  -1.662  -1.633
 25 A    26 A    27 A    28 A    29 A    30 A    31 A    32 A                  
 -1.619  -1.430  -1.294  -1.253  -1.215  -1.157  -1.103  -1.075
 33 A    34 A    35 A    36 A    37 A    38 A    39 A    40 A                  
 -1.042  -1.028  -0.954  -0.909  -0.881  -0.869  -0.865  -0.842
 41 A    42 A    43 A    44 A    45 A    46 A    47 A    48 A                  
 -0.836  -0.802  -0.784  -0.778  -0.764  -0.754  -0.728  -0.717
 49 A    50 A    51 A    52 A    53 A    54 A    55 A    56 A                  
 -0.697  -0.691  -0.688  -0.685  -0.682  -0.676  -0.675  -0.659
 57 A    58 A    59 A    60 A    61 A    62 A    63 A    64 A                  
 -0.655  -0.652  -0.650  -0.635  -0.630  -0.620  -0.601  -0.588
 65 A    66 A    67 A    68 A    69 A    70 A    71 A    72 A                  
 -0.574  -0.569  -0.559  -0.539  -0.527  -0.512  -0.504  -0.497
 73 A    74 A    75 A    76 A    77 A    78 A    79 A    80 A                  
 -0.468  -0.466  -0.464  -0.420  -0.371  -0.338
 81 A    82 A    83 A    84 A    85 A    86 A                                  
 -- Virtual --                   
  0.042   0.068   0.074   0.075   0.080   0.085   0.086   0.094
 87 A    88 A    89 A    90 A    91 A    92 A    93 A    94 A                  
  0.098   0.103   0.105   0.107   0.117   0.119   0.124   0.127
 95 A    96 A    97 A    98 A    99 A   100 A   101 A   102 A                  
  0.132   0.137   0.143   0.144   0.148   0.153   0.156   0.159
103 A   104 A   105 A   106 A   107 A   108 A   109 A   110 A                  
  0.177   0.179   0.183   0.187   0.192   0.198   0.205   0.206
111 A   112 A   113 A   114 A   115 A   116 A   117 A   118 A                  
  0.209   0.212   0.229   0.234   0.240   0.243   0.248   0.252
119 A   120 A   121 A   122 A   123 A   124 A   125 A   126 A                  
  0.255   0.264   0.267   0.273   0.280   0.285   0.292   0.294
127 A   128 A   129 A   130 A   131 A   132 A   133 A   134 A                  
  0.301   0.309   0.317   0.317   0.321   0.327   0.331   0.336
135 A   136 A   137 A   138 A   139 A   140 A   141 A   142 A                  
  0.340   0.349   0.353   0.357   0.359   0.362   0.366   0.369
143 A   144 A   145 A   146 A   147 A   148 A   149 A   150 A                  
  0.377   0.384   0.392   0.394   0.404   0.409   0.411   0.413
151 A   152 A   153 A   154 A   155 A   156 A   157 A   158 A                  
  0.422   0.422   0.426   0.432   0.437   0.441   0.444   0.448
159 A   160 A   161 A   162 A   163 A   164 A   165 A   166 A                  
  0.453   0.458   0.461   0.465   0.470   0.470   0.473   0.482
167 A   168 A   169 A   170 A   171 A   172 A   173 A   174 A                  
  0.492   0.496   0.500   0.505   0.517   0.525   0.529   0.530
175 A   176 A   177 A   178 A   179 A   180 A   181 A   182 A                  
  0.537   0.553   0.566   0.573   0.591   0.610   0.614   0.616
183 A   184 A   185 A   186 A   187 A   188 A   189 A   190 A                  
  0.629   0.634   0.647   0.680   0.686   0.695   0.720   0.749
191 A   192 A   193 A   194 A   195 A   196 A   197 A   198 A                  
  0.752   0.756   0.760   0.793   0.812   0.815   0.845   0.847
199 A   200 A   201 A   202 A   203 A   204 A   205 A   206 A                  
  0.866   0.877   0.886   0.901   0.910   0.925   0.929   0.938
207 A   208 A   209 A   210 A   211 A   212 A   213 A   214 A                  
  0.948   0.959   0.967   0.970   0.975   0.979   0.984   1.008
215 A   216 A   217 A   218 A   219 A   220 A   221 A   222 A                  
  1.013   1.045   1.047   1.064   1.068   1.071   1.091   1.097
223 A   224 A   225 A   226 A   227 A   228 A   229 A   230 A                  
  1.124   1.143   1.145   1.157   1.166   1.178   1.182   1.188
231 A   232 A   233 A   234 A   235 A   236 A   237 A   238 A                  
  1.197   1.202   1.213   1.218   1.222   1.229   1.239   1.249
239 A   240 A   241 A   242 A   243 A   244 A   245 A   246 A                  
  1.255   1.265   1.280   1.296   1.309   1.319   1.337   1.348
247 A   248 A   249 A   250 A   251 A   252 A   253 A   254 A                  
  1.361   1.369   1.375   1.393   1.399   1.413   1.435   1.463
255 A   256 A   257 A   258 A   259 A   260 A   261 A   262 A                  
  1.476   1.490   1.497   1.509   1.529   1.569   1.587   1.596
263 A   264 A   265 A   266 A   267 A   268 A   269 A   270 A                  
  1.610   1.629   1.641   1.649   1.669   1.682   1.692   1.704
271 A   272 A   273 A   274 A   275 A   276 A   277 A   278 A                  
  1.707   1.726   1.731   1.766   1.770   1.776   1.790   1.812
279 A   280 A   281 A   282 A   283 A   284 A   285 A   286 A                  
  1.843   1.845   1.864   1.870   1.879   1.894   1.927   1.965
287 A   288 A   289 A   290 A   291 A   292 A   293 A   294 A                  
  1.966   1.972   1.998   2.018   2.020   2.031   2.034   2.043
295 A   296 A   297 A   298 A   299 A   300 A   301 A   302 A                  
  2.053   2.059   2.065   2.069   2.073   2.096   2.105   2.113
303 A   304 A   305 A   306 A   307 A   308 A   309 A   310 A                  
  2.122   2.123   2.129   2.137   2.150   2.153   2.162   2.172
311 A   312 A   313 A   314 A   315 A   316 A   317 A   318 A                  
  2.185   2.204   2.211   2.221   2.240   2.258   2.260   2.275
319 A   320 A   321 A   322 A   323 A   324 A   325 A   326 A                  
  2.285   2.286   2.300   2.303   2.306   2.310   2.319   2.323
327 A   328 A   329 A   330 A   331 A   332 A   333 A   334 A                  
  2.328   2.328   2.354   2.365   2.382   2.390   2.392   2.422
335 A   336 A   337 A   338 A   339 A   340 A   341 A   342 A                  
  2.433   2.439   2.454   2.464   2.495   2.511   2.521   2.527
343 A   344 A   345 A   346 A   347 A   348 A   349 A   350 A                  
  2.543   2.562   2.573   2.595   2.600   2.636   2.660   2.668
351 A   352 A   353 A   354 A   355 A   356 A   357 A   358 A                  
  2.684   2.700   2.714   2.725   2.739   2.745   2.785   2.827
359 A   360 A   361 A   362 A   363 A   364 A   365 A   366 A                  
  2.878   2.944   2.947   2.952   2.964   3.012   3.027   3.050
367 A   368 A   369 A   370 A   371 A   372 A   373 A   374 A                  
  3.088   3.097   3.131   3.153   3.159   3.203   3.227   3.279
375 A   376 A   377 A   378 A   379 A   380 A   381 A   382 A                  
  3.306   3.314   3.391   3.443   3.470   3.600   3.680   3.732
383 A   384 A   385 A   386 A   387 A   388 A   389 A   390 A                  
  3.810   4.545   4.650   4.660   4.694   4.709   4.748   4.766
391 A   392 A   393 A   394 A   395 A   396 A   397 A   398 A                  
  4.803   4.814   4.854   4.880   4.915   4.969   5.047   5.165
399 A   400 A   401 A   402 A   403 A   404 A   405 A   406 A                  
  6.329   6.410   6.572   7.716   9.409
407 A   408 A   409 A   410 A   411 A                                          

 Occupation and symmetry of molecular orbitals

 Point group: C1 (1 irreducible representation).

                           A     All 
 -------------------------------------
 All molecular orbitals:
  - Alpha                  411   411 
  - Beta                   411   411 
 -------------------------------------
 Alpha orbitals:
  - Frozen occupied        28    28  
  - Active occupied        58    58  
  - Active virtual         325   325 
  - Frozen virtual         0     0   
 -------------------------------------
 Beta orbitals:
  - Frozen occupied        28    28  
  - Active occupied        58    58  
  - Active virtual         325   325 
  - Frozen virtual         0     0   
 -------------------------------------

 Import integrals:   CPU 0.00 s  wall 0.00 s

 Import integrals:   CPU 2077.33 s  wall 910.66 s

 MP2 amplitudes:   CPU 34.14 s  wall 94.82 s

           CCSD T amplitudes will be solved using DIIS.

           Start     Size      MaxIter   EConv     TConv     
           3         7         100       1.00e-06  1.00e-04  
 ------------------------------------------------------------------------------
           Energy (a.u.)   Ediff      Tdiff       Comment
 ------------------------------------------------------------------------------
         -1926.51823632                           
     1   -1926.48925981   2.90e-02   1.58e+00     Step took 1:15.28.
     2   -1926.58190186   9.26e-02   2.15e-01     
     3   -1926.57900932   2.89e-03   8.11e-02     
     4   -1926.58813836   9.13e-03   2.72e-02     Switched to DIIS steps.
     5   -1926.59110714   2.97e-03   1.74e-02     
     6   -1926.59129576   1.89e-04   3.69e-03     
     7   -1926.59128175   1.40e-05   1.76e-03     
     8   -1926.59127103   1.07e-05   4.98e-04     
     9   -1926.59127200   9.69e-07   1.90e-04     
    10   -1926.59127221   2.09e-07   6.28e-05     
 ------------------------------------------------------------------------------
         -1926.59127221                           CCSD T converged.


 ------------------------------------------------------------------------------
 == (T) code is based on LIBPT ==
 == Author: Ilya Kaliman, 2016 ==

 Starting (T) calculation...
 (T) calculation completed in 132915 sec
 ------------------------------------------------------------------------------

 SCF energy                 = -1923.51782558
 MP2 energy                 = -1926.51823632
 CCSD correlation energy     =    -3.07344663
 CCSD total energy           = -1926.59127221
 CCSD(T) correlation energy =    -0.11301066
 CCSD(T) total energy       = -1926.70428286

 CCSD  T1^2 = 0.0429  T2^2 = 1.0034  Leading amplitudes:

 Amplitude    Orbitals with energies
  0.0179       78 (A) A                  ->    94 (A) A                   
              -0.5124                          0.0941                     
  0.0179       78 (A) B                  ->    94 (A) B                   
              -0.5124                          0.0941                     
 -0.0146       68 (A) A                  ->    120 (A) A                  
              -0.6353                          0.2124                     
 -0.0146       68 (A) B                  ->    120 (A) B                  
              -0.6353                          0.2124                     

 Amplitude    Orbitals with energies
 -0.0513       85 (A) A      85 (A) B    ->    89 (A) A      89 (A) B     
              -0.3709       -0.3709            0.0745        0.0745       
  0.0513       85 (A) A      85 (A) B    ->    89 (A) B      89 (A) A     
              -0.3709       -0.3709            0.0745        0.0745       
  0.0513       85 (A) B      85 (A) A    ->    89 (A) A      89 (A) B     
              -0.3709       -0.3709            0.0745        0.0745       
 -0.0513       85 (A) B      85 (A) A    ->    89 (A) B      89 (A) A     
              -0.3709       -0.3709            0.0745        0.0745       

 CCSD calculation:   CPU 646940.83 s  wall 184623.18 s

 Total ccman2 time:   CPU 649071.12 s  wall 185649.75 s

 
 --------------------------------------------------------------
 
                    Orbital Energies (a.u.)
 --------------------------------------------------------------
 
 Alpha MOs
 -- Occupied --
******* -92.409 -26.363 -26.363 -26.363 -26.363 -26.363 -20.554
-15.636 -15.611 -11.412 -11.333 -11.332 -11.318 -11.285 -11.281
-11.278 -11.269 -11.246 -11.233 -10.575  -9.349  -8.045  -8.041
 -8.041  -7.038  -7.038  -7.035  -1.763  -1.663  -1.662  -1.633
 -1.619  -1.430  -1.294  -1.253  -1.215  -1.157  -1.103  -1.075
 -1.042  -1.028  -0.954  -0.909  -0.881  -0.869  -0.865  -0.842
 -0.836  -0.802  -0.784  -0.778  -0.764  -0.754  -0.728  -0.717
 -0.697  -0.691  -0.688  -0.685  -0.682  -0.676  -0.675  -0.659
 -0.655  -0.652  -0.650  -0.635  -0.630  -0.620  -0.601  -0.588
 -0.574  -0.569  -0.559  -0.539  -0.527  -0.512  -0.504  -0.497
 -0.468  -0.466  -0.464  -0.420  -0.371  -0.338
 -- Virtual --
  0.042   0.068   0.074   0.075   0.080   0.085   0.086   0.094
  0.098   0.103   0.105   0.107   0.117   0.119   0.124   0.127
  0.132   0.137   0.143   0.144   0.148   0.153   0.156   0.159
  0.177   0.179   0.183   0.187   0.192   0.198   0.205   0.206
  0.209   0.212   0.229   0.234   0.240   0.243   0.248   0.252
  0.255   0.264   0.267   0.273   0.280   0.285   0.292   0.294
  0.301   0.309   0.317   0.317   0.321   0.327   0.331   0.336
  0.340   0.349   0.353   0.357   0.359   0.362   0.366   0.369
  0.377   0.384   0.392   0.394   0.404   0.409   0.411   0.413
  0.422   0.422   0.426   0.432   0.437   0.441   0.444   0.448
  0.453   0.458   0.461   0.465   0.470   0.470   0.473   0.482
  0.492   0.496   0.500   0.505   0.517   0.525   0.529   0.530
  0.537   0.553   0.566   0.573   0.591   0.610   0.614   0.616
  0.629   0.634   0.647   0.680   0.686   0.695   0.720   0.749
  0.752   0.756   0.760   0.793   0.812   0.815   0.845   0.847
  0.866   0.877   0.886   0.901   0.910   0.925   0.929   0.938
  0.948   0.959   0.967   0.970   0.975   0.979   0.984   1.008
  1.013   1.045   1.047   1.064   1.068   1.071   1.091   1.097
  1.124   1.143   1.145   1.157   1.166   1.178   1.182   1.188
  1.197   1.202   1.213   1.218   1.222   1.229   1.239   1.249
  1.255   1.265   1.280   1.296   1.309   1.319   1.337   1.348
  1.361   1.369   1.375   1.393   1.399   1.413   1.435   1.463
  1.476   1.490   1.497   1.509   1.529   1.569   1.587   1.596
  1.610   1.629   1.641   1.649   1.669   1.682   1.692   1.704
  1.707   1.726   1.731   1.766   1.770   1.776   1.790   1.812
  1.843   1.845   1.864   1.870   1.879   1.894   1.927   1.965
  1.966   1.972   1.998   2.018   2.020   2.031   2.034   2.043
  2.053   2.059   2.065   2.069   2.073   2.096   2.105   2.113
  2.122   2.123   2.129   2.137   2.150   2.153   2.162   2.172
  2.185   2.204   2.211   2.221   2.240   2.258   2.260   2.275
  2.285   2.286   2.300   2.303   2.306   2.310   2.319   2.323
  2.328   2.328   2.354   2.365   2.382   2.390   2.392   2.422
  2.433   2.439   2.454   2.464   2.495   2.511   2.521   2.527
  2.543   2.562   2.573   2.595   2.600   2.636   2.660   2.668
  2.684   2.700   2.714   2.725   2.739   2.745   2.785   2.827
  2.878   2.944   2.947   2.952   2.964   3.012   3.027   3.050
  3.088   3.097   3.131   3.153   3.159   3.203   3.227   3.279
  3.306   3.314   3.391   3.443   3.470   3.600   3.680   3.732
  3.810   4.545   4.650   4.660   4.694   4.709   4.748   4.766
  4.803   4.814   4.854   4.880   4.915   4.969   5.047   5.165
  6.329   6.410   6.572   7.716   9.409
 --------------------------------------------------------------
 
          Ground-State Mulliken Net Atomic Charges

     Atom                 Charge (a.u.)
  ----------------------------------------
      1 C                     0.246470
      2 N                    -0.805366
      3 C                     0.714480
      4 O                    -0.634303
      5 N                    -0.696754
      6 C                    -0.085849
      7 C                    -0.274788
      8 C                    -0.673770
      9 C                    -0.551572
     10 C                    -0.790850
     11 C                    -0.231666
     12 C                     0.291694
     13 C                     0.180812
     14 H                     0.461574
     15 H                     0.420018
     16 H                     0.203576
     17 H                     0.226297
     18 H                     0.207867
     19 H                     0.181805
     20 H                     0.198951
     21 H                     0.200717
     22 H                     0.197228
     23 H                     0.264304
     24 Cl                    0.258628
     25 H                     0.338613
     26 S                     3.067161
     27 H                     0.300011
     28 F                    -0.650049
     29 F                    -0.640887
     30 F                    -0.651832
     31 F                    -0.640712
     32 F                    -0.631811
  ----------------------------------------
  Sum of atomic charges =     0.000000

 -----------------------------------------------------------------
                    Cartesian Multipole Moments
 -----------------------------------------------------------------
    Charge (ESU x 10^10)
                -0.0000
    Dipole Moment (Debye)
         X       5.1719      Y       3.4384      Z      -0.9385
       Tot       6.2810
    Quadrupole Moments (Debye-Ang)
        XX    -126.0180     XY      19.1046     YY    -133.8976
        XZ      -3.5000     YZ      -0.7779     ZZ    -134.1632
    Octopole Moments (Debye-Ang^2)
       XXX      52.2297    XXY      36.6124    XYY     -22.7146
       YYY      54.4234    XXZ     -10.9932    XYZ      -3.0300
       YYZ      -3.1998    XZZ     -25.8162    YZZ      11.5527
       ZZZ       0.9834
    Hexadecapole Moments (Debye-Ang^3)
      XXXX   -9991.3203   XXXY     163.7780   XXYY   -2163.6972
      XYYY     -85.7516   YYYY   -2360.7667   XXXZ     -32.5808
      XXYZ     -13.9857   XYYZ     -13.3906   YYYZ      -5.6366
      XXZZ   -1813.5498   XYZZ     -47.8157   YYZZ    -456.9964
      XZZZ      -2.1080   YZZZ      -0.9252   ZZZZ    -309.5498
 -----------------------------------------------------------------
Archival summary:
1\1\r4152\SP\ProcedureUnspecified\6-31+G*\l115121012\hio507\WedDec1113:49:112019WedDec1113:49:112019\0\\#,ProcedureUnspecified,6-31+G*,\\0,1\S\F,1,1.6055\F,1,1.61275,2,87.6772\F,1,1.61298,2,87.6535,3,90.0968,0\F,1,1.61703,2,87.5048,3,-90.1034,0\F,1,1.61739,2,87.5129,3,-179.828,0\C,1,1.81013,2,179.889,3,-140.246,0\C,7,1.38085,1,118.37,2,5.65592,0\H,8,1.08307,7,120.425,1,-0.0626905,0\C,7,1.38499,1,118.562,2,-174.316,0\H,10,1.08081,7,122.324,1,-0.0734051,0\C,10,1.38765,7,116.457,1,179.977,0\C,12,1.38759,10,122.949,7,-0.00854217,0\H,13,1.07889,12,120.484,10,179.498,0\C,13,1.39862,12,118.897,10,0.0254382,0\N,15,1.39684,13,123.575,12,-178.944,0\H,16,1.00888,15,115.299,13,-177.434,0\C,16,1.39375,15,127.133,13,-7.8271,0\O,18,1.21114,16,123.684,15,-1.86326,0\N,18,1.37014,16,113.124,15,179.502,0\H,20,1.00977,18,118.472,16,-23.2263,0\C,20,1.45793,18,119.07,16,-175.085,0\H,22,1.0911,20,107.581,18,-49.8155,0\H,22,1.09632,20,110.582,18,66.6145,0\C,22,1.52153,20,110.425,18,-170.613,0\H,25,1.09399,22,109.005,20,57.6554,0\H,25,1.09652,22,109.592,20,-58.9331,0\C,25,1.52541,22,111.487,20,179.668,0\H,28,1.09086,25,111.245,22,-179.893,0\H,28,1.09247,25,111.011,22,-59.9058,0\H,28,1.09257,25,111.202,22,59.9891,0\Cl,12,1.73817,10,118.519,7,-179.987,0\\HF=-1923.51783\\@

 Total job time:  185727.29s(wall), 649371.98s(cpu) 
 Wed Dec 11 13:49:11 2019

        *************************************************************
        *                                                           *
        *  Thank you very much for using Q-Chem.  Have a nice day.  *
        *                                                           *
        *************************************************************


0 sent ACK to 0 
now end server 0 ... 
