 Entering Gaussian System, Link 0=/apps/gaussian/g16c01/g16/g16
 Initial command:
 /apps/gaussian/g16c01/g16/l1.exe "/jobfs/11098697.gadi-pbs/Gau-1606204.inp" -scrdir="/jobfs/11098697.gadi-pbs/"
 Entering Link 1 = /apps/gaussian/g16c01/g16/l1.exe PID=   1606205.
  
 Copyright (c) 1988-2019, Gaussian, Inc.  All Rights Reserved.
  
 This is part of the Gaussian(R) 16 program.  It is based on
 the Gaussian(R) 09 system (copyright 2009, Gaussian, Inc.),
 the Gaussian(R) 03 system (copyright 2003, Gaussian, Inc.),
 the Gaussian(R) 98 system (copyright 1998, Gaussian, Inc.),
 the Gaussian(R) 94 system (copyright 1995, Gaussian, Inc.),
 the Gaussian 92(TM) system (copyright 1992, Gaussian, Inc.),
 the Gaussian 90(TM) system (copyright 1990, Gaussian, Inc.),
 the Gaussian 88(TM) system (copyright 1988, Gaussian, Inc.),
 the Gaussian 86(TM) system (copyright 1986, Carnegie Mellon
 University), and the Gaussian 82(TM) system (copyright 1983,
 Carnegie Mellon University). Gaussian is a federally registered
 trademark of Gaussian, Inc.
  
 This software contains proprietary and confidential information,
 including trade secrets, belonging to Gaussian, Inc.
  
 This software is provided under written license and may be
 used, copied, transmitted, or stored only in accord with that
 written license.
  
 The following legend is applicable only to US Government
 contracts under FAR:
  
                    RESTRICTED RIGHTS LEGEND
  
 Use, reproduction and disclosure by the US Government is
 subject to restrictions as set forth in subparagraphs (a)
 and (c) of the Commercial Computer Software - Restricted
 Rights clause in FAR 52.227-19.
  
 Gaussian, Inc.
 340 Quinnipiac St., Bldg. 40, Wallingford CT 06492
  
  
 ---------------------------------------------------------------
 Warning -- This program may not be used in any manner that
 competes with the business of Gaussian, Inc. or will provide
 assistance to any competitor of Gaussian, Inc.  The licensee
 of this program is prohibited from giving any competitor of
 Gaussian, Inc. access to this program.  By using this program,
 the user acknowledges that Gaussian, Inc. is engaged in the
 business of creating and licensing software in the field of
 computational chemistry and represents and warrants to the
 licensee that it is not a competitor of Gaussian, Inc. and that
 it will not use this program in any manner prohibited above.
 ---------------------------------------------------------------
  

 Cite this work as:
 Gaussian 16, Revision C.01,
 M. J. Frisch, G. W. Trucks, H. B. Schlegel, G. E. Scuseria, 
 M. A. Robb, J. R. Cheeseman, G. Scalmani, V. Barone, 
 G. A. Petersson, H. Nakatsuji, X. Li, M. Caricato, A. V. Marenich, 
 J. Bloino, B. G. Janesko, R. Gomperts, B. Mennucci, H. P. Hratchian, 
 J. V. Ortiz, A. F. Izmaylov, J. L. Sonnenberg, D. Williams-Young, 
 F. Ding, F. Lipparini, F. Egidi, J. Goings, B. Peng, A. Petrone, 
 T. Henderson, D. Ranasinghe, V. G. Zakrzewski, J. Gao, N. Rega, 
 G. Zheng, W. Liang, M. Hada, M. Ehara, K. Toyota, R. Fukuda, 
 J. Hasegawa, M. Ishida, T. Nakajima, Y. Honda, O. Kitao, H. Nakai, 
 T. Vreven, K. Throssell, J. A. Montgomery, Jr., J. E. Peralta, 
 F. Ogliaro, M. J. Bearpark, J. J. Heyd, E. N. Brothers, K. N. Kudin, 
 V. N. Staroverov, T. A. Keith, R. Kobayashi, J. Normand, 
 K. Raghavachari, A. P. Rendell, J. C. Burant, S. S. Iyengar, 
 J. Tomasi, M. Cossi, J. M. Millam, M. Klene, C. Adamo, R. Cammi, 
 J. W. Ochterski, R. L. Martin, K. Morokuma, O. Farkas, 
 J. B. Foresman, and D. J. Fox, Gaussian, Inc., Wallingford CT, 2019.
 
 ******************************************
 Gaussian 16:  ES64L-G16RevC.01  3-Jul-2019
                10-Sep-2020 
 ******************************************
 %NprocShared=6
 Will use up to    6 processors via shared memory.
 %Mem=192000MB
 %chk=CP22CA_c2.DSDPBEP86_AUG-cc-PVTZ.chk
 ---------------------------------------------------------------------
 # DSDPBEP86/AUG-cc-PVTZ SCF=Tight INT(grid=ultrafine) MaxDisk=60000MB
 ---------------------------------------------------------------------
 1/38=1,172=1/1;
 2/12=2,17=6,18=5,40=1/2;
 3/5=16,6=1,7=10,11=9,25=1,30=1,74=-77,75=-5/1,2,3;
 4//1;
 5/5=2,32=2,38=5/2;
 8/10=1/1;
 9/16=-3/6;
 6/7=2,8=2,9=2,10=2/1;
 99/5=1,9=1/99;
 -------------------------------
 CP22CA_c2.DSDPBEP86_AUG-cc-PVTZ
 -------------------------------
 Symbolic Z-matrix:
 Charge =  0 Multiplicity = 1
 C                    -5.89402   1.46352   0.31896 
 N                    -4.65949   0.82543   0.17304 
 C                    -3.41221   1.40234   0.20912 
 O                    -3.17209   2.56946   0.37435 
 O                    -2.4888    0.44704   0.02868 
 C                    -1.12372   0.89708   0.04083 
 C                    -0.23999  -0.31188  -0.17616 
 C                     1.23405   0.08408  -0.17625 
 C                    -7.03603   0.65959   0.24498 
 C                    -8.27764   1.24783   0.38373 
 C                    -8.45099   2.60605   0.59434 
 C                    -7.29892   3.3761    0.66282 
 C                    -6.0262    2.83841   0.53039 
 H                    -4.66721  -0.17288   0.02383 
 H                    -0.92212   1.38129   0.99933 
 H                    -0.99285   1.64302  -0.74675 
 H                    -0.50827  -0.78325  -1.12548 
 H                    -0.43818  -1.04375   0.61153 
 H                     1.45232   0.80206  -0.97046 
 H                     1.8723   -0.7863   -0.33252 
 H                     1.52267   0.54052   0.77363 
 H                    -6.94627  -0.40712   0.08146 
 Cl                   -7.45531   5.08636   0.92551 
 H                    -5.15577   3.47381   0.59018 
 S                    -9.74571   0.19279   0.28544 
 H                    -9.42939   3.05291   0.70118 
 F                    -9.08537  -0.92922   1.24336 
 F                    -10.41802   0.89524   1.57223 
 F                    -9.17742  -0.59132  -1.00868 
 F                    -10.51015   1.23331  -0.68112 
 F                    -11.04536  -0.74409   0.198 
 
                          Input orientation:                          
 ---------------------------------------------------------------------
 Center     Atomic      Atomic             Coordinates (Angstroms)
 Number     Number       Type             X           Y           Z
 ---------------------------------------------------------------------
      1          6           0       -5.894024    1.463516    0.318964
      2          7           0       -4.659486    0.825428    0.173038
      3          6           0       -3.412212    1.402336    0.209122
      4          8           0       -3.172091    2.569463    0.374349
      5          8           0       -2.488798    0.447041    0.028678
      6          6           0       -1.123719    0.897077    0.040832
      7          6           0       -0.239991   -0.311880   -0.176159
      8          6           0        1.234045    0.084081   -0.176246
      9          6           0       -7.036032    0.659594    0.244978
     10          6           0       -8.277638    1.247834    0.383726
     11          6           0       -8.450994    2.606049    0.594345
     12          6           0       -7.298918    3.376099    0.662824
     13          6           0       -6.026201    2.838408    0.530390
     14          1           0       -4.667211   -0.172883    0.023828
     15          1           0       -0.922123    1.381292    0.999334
     16          1           0       -0.992849    1.643015   -0.746747
     17          1           0       -0.508271   -0.783247   -1.125484
     18          1           0       -0.438182   -1.043755    0.611533
     19          1           0        1.452322    0.802061   -0.970455
     20          1           0        1.872299   -0.786301   -0.332519
     21          1           0        1.522667    0.540516    0.773634
     22          1           0       -6.946274   -0.407120    0.081463
     23         17           0       -7.455313    5.086358    0.925510
     24          1           0       -5.155773    3.473810    0.590180
     25         16           0       -9.745709    0.192792    0.285439
     26          1           0       -9.429387    3.052906    0.701175
     27          9           0       -9.085368   -0.929216    1.243359
     28          9           0      -10.418019    0.895239    1.572234
     29          9           0       -9.177417   -0.591316   -1.008685
     30          9           0      -10.510148    1.233312   -0.681115
     31          9           0      -11.045357   -0.744090    0.197998
 ---------------------------------------------------------------------
                    Distance matrix (angstroms):
                    1          2          3          4          5
     1  C    0.000000
     2  N    1.397332   0.000000
     3  C    2.484995   1.374706   0.000000
     4  O    2.938555   2.300984   1.202973   0.000000
     5  O    3.565537   2.208144   1.340837   2.256337   0.000000
     6  C    4.811862   3.538962   2.349640   2.665321   1.437400
     7  C    5.946870   4.576826   3.626288   4.147579   2.382236
     8  C    7.277187   5.950235   4.844999   5.088646   3.746104
     9  C    1.398551   2.383411   3.699327   4.312119   4.557335
    10  C    2.394228   3.648814   4.871009   5.273841   5.854742
    11  C    2.814127   4.209947   5.194868   5.283612   6.366246
    12  C    2.397904   3.703029   4.382702   4.214805   5.667344
    13  C    1.397319   2.459208   2.999743   2.870997   4.299253
    14  H    2.066393   1.009429   2.022540   3.143041   2.264909
    15  H    5.018911   3.867768   2.612551   2.620060   2.066270
    16  H    5.018912   3.867645   2.612457   2.619973   2.066277
    17  H    6.011715   4.637518   3.871798   4.537192   2.601574
    18  H    6.011507   4.637405   3.871712   4.537165   2.601388
    19  H    7.487919   6.217903   5.041371   5.130050   4.081266
    20  H    8.111836   6.746664   5.745396   6.099729   4.546511
    21  H    7.487721   6.217789   5.041274   5.129992   4.081121
    22  H    2.159379   2.599415   3.972408   4.815629   4.538884
    23  Cl   3.991304   5.151543   5.516511   4.998452   6.855206
    24  H    2.158670   2.726580   2.734267   2.190758   4.073006
    25  S    4.056025   5.126649   6.448411   6.990631   7.265902
    26  H    3.895001   5.290798   6.258825   6.284447   7.444096
    27  F    4.094429   4.879836   6.220167   6.925516   6.847209
    28  F    4.728653   5.926494   7.155177   7.532690   8.090488
    29  F    4.094589   4.880096   6.220554   6.925839   6.847768
    30  F    4.728821   5.926736   7.155542   7.533019   8.090988
    31  F    5.605746   6.575969   7.929197   8.543948   8.640727
                    6          7          8          9         10
     6  C    0.000000
     7  C    1.513155   0.000000
     8  C    2.503426   1.526292   0.000000
     9  C    5.920600   6.878029   8.300772   0.000000
    10  C    7.170715   8.206701   9.598959   1.380892   0.000000
    11  C    7.544264   8.748060  10.037636   2.431638   1.385337
    12  C    6.683226   8.008342   9.184383   2.760997   2.359089
    13  C    5.295542   6.625991   7.797232   2.418356   2.760508
    14  H    3.701545   4.433913   5.910235   2.520563   3.896556
    15  H    1.092626   2.171157   2.777375   6.202401   7.382438
    16  H    1.092626   2.171170   2.777554   6.202475   7.382566
    17  H    2.136015   1.093334   2.165404   6.824340   8.171051
    18  H    2.135999   1.093334   2.165399   6.824030   8.170701
    19  H    2.769065   2.176166   1.092661   8.576114   9.833852
    20  H    3.456773   2.170552   1.090575   9.043367  10.376509
    21  H    2.769025   2.176155   1.092661   8.575837   9.833530
    22  H    5.966969   6.711905   8.199104   1.082901   2.145406
    23  Cl   7.643416   9.078299  10.086704   4.498351   3.962829
    24  H    4.816513   6.251691   7.273751   3.402109   3.839744
    25  S    8.654164   9.530291  10.989994   2.749890   1.810527
    26  H    8.606263   9.825298  11.103719   3.415290   2.164621
    27  F    8.256468   8.979801  10.465770   2.778644   2.476075
    28  F    9.419618  10.397416  11.810409   3.640738   2.473480
    29  F    8.257048   8.980465  10.466501   2.778845   2.476062
    30  F    9.420154  10.398015  11.811084   3.640918   2.473499
    31  F   10.057685  10.820477  12.312987   4.248203   3.415044
                   11         12         13         14         15
    11  C    0.000000
    12  C    1.387424   0.000000
    13  C    2.436740   1.387970   0.000000
    14  H    4.729162   4.464244   3.342355   0.000000
    15  H    7.638583   6.689993   5.328669   4.170462   0.000000
    16  H    7.638710   6.690066   5.328666   4.170396   1.767004
    17  H    8.805225   8.161563   6.804841   4.357779   3.061267
    18  H    8.804915   8.161339   6.804685   4.357579   2.503087
    19  H   10.187181   9.267011   7.894780   6.275970   3.139040
    20  H   10.905848  10.120648   8.733238   6.577876   3.779033
    21  H   10.186879   9.266778   7.894611   6.275805   2.595158
    22  H    3.406820   3.843838   3.403164   2.291794   6.350693
    23  Cl   2.693137   1.737368   2.692909   6.020479   7.511027
    24  H    3.407567   2.146601   1.079331   3.722609   4.740235
    25  S    2.755996   4.032697   4.570998   5.098363   8.931845
    26  H    1.080900   2.155184   3.414213   5.791618   8.675063
    27  F    3.649897   4.697251   4.905285   4.645365   8.487436
    28  F    2.784299   4.087846   4.914205   6.050640   9.525571
    29  F    3.649731   4.697136   4.905295   4.645764   8.721995
    30  F    2.784118   4.087750   4.914250   6.050971   9.735298
    31  F    4.255730   5.588186   6.175492   6.406041  10.374934
                   16         17         18         19         20
    16  H    0.000000
    17  H    2.503000   0.000000
    18  H    3.061260   1.757841   0.000000
    19  H    2.595402   2.526096   3.079566   0.000000
    20  H    3.779185   2.509167   2.509151   1.762453   0.000000
    21  H    3.139249   3.079563   2.526088   1.764994   1.762459
    22  H    6.350768   6.560951   6.560605   8.550150   8.836424
    23  Cl   7.511091   9.323102   9.322928  10.064584  11.093923
    24  H    4.740161   6.531870   6.531808   7.296626   8.270050
    25  S    8.932027   9.395404   9.394969  11.284697  11.675556
    26  H    8.675220   9.881248   9.880912  11.237092  11.980657
    27  F    8.721569   8.899400   8.670995  10.906017  11.071327
    28  F    9.735023  10.406638  10.211748  12.139973  12.550203
    29  F    8.488109   8.672057   8.899665  10.720742  11.072102
    30  F    9.526339  10.212811  10.406751  11.973737  12.550911
    31  F   10.375150  10.619949  10.619462  12.647049  12.928615
                   21         22         23         24         25
    21  H    0.000000
    22  H    8.549858   0.000000
    23  Cl  10.064386   5.581204   0.000000
    24  H    7.296536   4.304220   2.828540   0.000000
    25  S   11.284305   2.870251   5.440826   5.650262   0.000000
    26  H   11.236763   4.303682   2.842925   4.295725   2.907430
    27  F   10.719662   2.489640   6.240612   5.937592   1.616343
    28  F   11.972618   3.996442   5.173138   5.941775   1.612847
    29  F   10.906397   2.490050   6.240412   5.937612   1.616335
    30  F   12.140218   3.996717   5.172932   5.941830   1.612847
    31  F   12.646612   4.114561   6.885624   7.254770   1.604518
                   26         27         28         29         30
    26  H    0.000000
    27  F    4.033561   0.000000
    28  F    2.528174   2.283146   0.000000
    29  F    4.033295   2.279112   3.226466   0.000000
    30  F    2.527784   3.226473   2.280431   2.283143   0.000000
    31  F    4.157129   2.229038   2.229232   2.229041   2.229217
                   31
    31  F    0.000000
 Stoichiometry    C10H11ClF5NO2S
 Framework group  C1[X(C10H11ClF5NO2S)]
 Deg. of freedom    87
 Full point group                 C1      NOp   1
 Largest Abelian subgroup         C1      NOp   1
 Largest concise Abelian subgroup C1      NOp   1
                         Standard orientation:                         
 ---------------------------------------------------------------------
 Center     Atomic      Atomic             Coordinates (Angstroms)
 Number     Number       Type             X           Y           Z
 ---------------------------------------------------------------------
      1          6           0        0.592396    0.239894   -0.000344
      2          7           0        1.835707   -0.397848   -0.000563
      3          6           0        3.076949    0.193028   -0.000250
      4          8           0        3.303048    1.374562   -0.000094
      5          8           0        4.012731   -0.767261   -0.000111
      6          6           0        5.373424   -0.303973    0.000061
      7          6           0        6.272583   -1.520998    0.000039
      8          6           0        7.742968   -1.111686    0.000489
      9          6           0       -0.540747   -0.579820   -0.000286
     10          6           0       -1.790525    0.007478   -0.000065
     11          6           0       -1.980562    1.379719    0.000071
     12          6           0       -0.836928    2.165244   -0.000012
     13          6           0        0.443369    1.629243   -0.000226
     14          1           0        1.840129   -1.407268   -0.000554
     15          1           0        5.532214    0.318843    0.883643
     16          1           0        5.532386    0.319027   -0.883360
     17          1           0        6.046711   -2.130556   -0.879052
     18          1           0        6.046271   -2.130884    0.878788
     19          1           0        7.989701   -0.516262   -0.881838
     20          1           0        8.392332   -1.987860    0.000504
     21          1           0        7.989230   -0.516569    0.883156
     22          1           0       -0.437927   -1.657829   -0.000375
     23         17           0       -1.014277    3.893537    0.000149
     24          1           0        1.306765    2.276934   -0.000266
     25         16           0       -3.246940   -1.068096    0.000066
     26          1           0       -2.965189    1.825649    0.000239
     27          9           0       -2.620205   -2.028350    1.139224
     28          9           0       -3.976203   -0.191499    1.140691
     29          9           0       -2.620813   -2.027788   -1.139888
     30          9           0       -3.976837   -0.190959   -1.139739
     31          9           0       -4.536235   -2.023187    0.000184
 ---------------------------------------------------------------------
 Rotational constants (GHZ):           0.4461125           0.1174702           0.0966648
 Standard basis: Aug-CC-pVTZ (5D, 7F)
 There are  1383 symmetry adapted cartesian basis functions of A   symmetry.
 There are  1181 symmetry adapted basis functions of A   symmetry.
  1181 basis functions,  1821 primitive gaussians,  1383 cartesian basis functions
    86 alpha electrons       86 beta electrons
       nuclear repulsion energy      2007.5868350824 Hartrees.
 NAtoms=   31 NActive=   31 NUniq=   31 SFac= 1.00D+00 NAtFMM=   60 NAOKFM=F Big=F
 Integral buffers will be    131072 words long.
 Regular integral format.
 Two-electron integral symmetry is turned on.
 Nuclear repulsion after empirical dispersion term =     2007.5612213309 Hartrees.
 One-electron integrals computed using PRISM.
 NBasis=  1181 RedAO= T EigKep=  1.21D-06  NBF=  1181
 NBsUse=  1178 1.00D-06 EigRej=  9.48D-07 NBFU=  1178
 ExpMin= 2.53D-02 ExpMax= 4.56D+05 ExpMxC= 1.44D+03 IAcc=3 IRadAn=         5 AccDes= 0.00D+00
 Harris functional with IExCor= 1004 and IRadAn=       5 diagonalized for initial guess.
 HarFok:  IExCor= 1004 AccDes= 0.00D+00 IRadAn=         5 IDoV= 1 UseB2=F ITyADJ=14
 ICtDFT=  3500011 ScaDFX=  1.000000  1.000000  1.000000  1.000000
 FoFCou: FMM=F IPFlag=           0 FMFlag=      100000 FMFlg1=           0
         NFxFlg=           0 DoJE=T BraDBF=F KetDBF=T FulRan=T
         wScrn=  0.000000 ICntrl=       500 IOpCl=  0 I1Cent=   200000004 NGrid=           0
         NMat0=    1 NMatS0=      1 NMatT0=    0 NMatD0=    1 NMtDS0=    0 NMtDT0=    0
 Petite list used in FoFCou.
 Requested convergence on RMS density matrix=1.00D-08 within 128 cycles.
 Requested convergence on MAX density matrix=1.00D-06.
 Requested convergence on             energy=1.00D-06.
 No special actions if energy rises.
 SCF Done:  E(RDSDPBEP86) =  -1946.60417284     A.U. after   14 cycles
            NFock= 14  Conv=0.27D-08     -V/T= 2.0025
 DoSCS=T DFT=T ScalE2(SS,OS)=  0.220000  0.520000
 ExpMin= 2.53D-02 ExpMax= 4.56D+05 ExpMxC= 1.44D+03 IAcc=3 IRadAn=         5 AccDes= 0.00D+00
 HarFok:  IExCor=  205 AccDes= 0.00D+00 IRadAn=         5 IDoV=-2 UseB2=F ITyADJ=14
 ICtDFT= 12500011 ScaDFX=  1.000000  1.000000  1.000000  1.000000
 GSVD:  LWork=       -1008 too small for GESVD, short by        4340 words or        4340 for optimal perf.
 Range of M.O.s used for correlation:    29  1178
 NBasis=  1181 NAE=    86 NBE=    86 NFC=    28 NFV=     0
 NROrb=   1150 NOA=    58 NOB=    58 NVA=  1092 NVB=  1092

 **** Warning!!: The largest alpha MO coefficient is  0.12762040D+03

 DoSCS=T DFT=T ScalE2(SS,OS)=  0.220000  0.520000
 Fully direct method using O(OVN) memory.
 JobTyp=1 Pass  1:  I=   1 to  58 NPSUse=  6 ParTrn=T ParDer=T DoDerP=F.
 Spin components of T(2) and E(2):
     alpha-alpha T2 =       0.2002367752D+00 E2=     -0.1317398023D+00
     alpha-beta  T2 =       0.1026591018D+01 E2=     -0.1743161006D+01
     beta-beta   T2 =       0.2002367752D+00 E2=     -0.1317398023D+00
 E2(DSDPBEP86) =    -0.2006640610D+01 E(DSDPBEP86) =    -0.19486108134508D+04

 **********************************************************************

            Population analysis using the SCF Density.

 **********************************************************************

 Orbital symmetries:
       Occupied  (A) (A) (A) (A) (A) (A) (A) (A) (A) (A) (A) (A)
                 (A) (A) (A) (A) (A) (A) (A) (A) (A) (A) (A) (A)
                 (A) (A) (A) (A) (A) (A) (A) (A) (A) (A) (A) (A)
                 (A) (A) (A) (A) (A) (A) (A) (A) (A) (A) (A) (A)
                 (A) (A) (A) (A) (A) (A) (A) (A) (A) (A) (A) (A)
                 (A) (A) (A) (A) (A) (A) (A) (A) (A) (A) (A) (A)
                 (A) (A) (A) (A) (A) (A) (A) (A) (A) (A) (A) (A)
                 (A) (A)
       Virtual   (A) (A) (A) (A) (A) (A) (A) (A) (A) (A) (A) (A)
                 (A) (A) (A) (A) (A) (A) (A) (A) (A) (A) (A) (A)
                 (A) (A) (A) (A) (A) (A) (A) (A) (A) (A) (A) (A)
                 (A) (A) (A) (A) (A) (A) (A) (A) (A) (A) (A) (A)
                 (A) (A) (A) (A) (A) (A) (A) (A) (A) (A) (A) (A)
                 (A) (A) (A) (A) (A) (A) (A) (A) (A) (A) (A) (A)
                 (A) (A) (A) (A) (A) (A) (A) (A) (A) (A) (A) (A)
                 (A) (A) (A) (A) (A) (A) (A) (A) (A) (A) (A) (A)
                 (A) (A) (A) (A) (A) (A) (A) (A) (A) (A) (A) (A)
                 (A) (A) (A) (A) (A) (A) (A) (A) (A) (A) (A) (A)
                 (A) (A) (A) (A) (A) (A) (A) (A) (A) (A) (A) (A)
                 (A) (A) (A) (A) (A) (A) (A) (A) (A) (A) (A) (A)
                 (A) (A) (A) (A) (A) (A) (A) (A) (A) (A) (A) (A)
                 (A) (A) (A) (A) (A) (A) (A) (A) (A) (A) (A) (A)
                 (A) (A) (A) (A) (A) (A) (A) (A) (A) (A) (A) (A)
                 (A) (A) (A) (A) (A) (A) (A) (A) (A) (A) (A) (A)
                 (A) (A) (A) (A) (A) (A) (A) (A) (A) (A) (A) (A)
                 (A) (A) (A) (A) (A) (A) (A) (A) (A) (A) (A) (A)
                 (A) (A) (A) (A) (A) (A) (A) (A) (A) (A) (A) (A)
                 (A) (A) (A) (A) (A) (A) (A) (A) (A) (A) (A) (A)
                 (A) (A) (A) (A) (A) (A) (A) (A) (A) (A) (A) (A)
                 (A) (A) (A) (A) (A) (A) (A) (A) (A) (A) (A) (A)
                 (A) (A) (A) (A) (A) (A) (A) (A) (A) (A) (A) (A)
                 (A) (A) (A) (A) (A) (A) (A) (A) (A) (A) (A) (A)
                 (A) (A) (A) (A) (A) (A) (A) (A) (A) (A) (A) (A)
                 (A) (A) (A) (A) (A) (A) (A) (A) (A) (A) (A) (A)
                 (A) (A) (A) (A) (A) (A) (A) (A) (A) (A) (A) (A)
                 (A) (A) (A) (A) (A) (A) (A) (A) (A) (A) (A) (A)
                 (A) (A) (A) (A) (A) (A) (A) (A) (A) (A) (A) (A)
                 (A) (A) (A) (A) (A) (A) (A) (A) (A) (A) (A) (A)
                 (A) (A) (A) (A) (A) (A) (A) (A) (A) (A) (A) (A)
                 (A) (A) (A) (A) (A) (A) (A) (A) (A) (A) (A) (A)
                 (A) (A) (A) (A) (A) (A) (A) (A) (A) (A) (A) (A)
                 (A) (A) (A) (A) (A) (A) (A) (A) (A) (A) (A) (A)
                 (A) (A) (A) (A) (A) (A) (A) (A) (A) (A) (A) (A)
                 (A) (A) (A) (A) (A) (A) (A) (A) (A) (A) (A) (A)
                 (A) (A) (A) (A) (A) (A) (A) (A) (A) (A) (A) (A)
                 (A) (A) (A) (A) (A) (A) (A) (A) (A) (A) (A) (A)
                 (A) (A) (A) (A) (A) (A) (A) (A) (A) (A) (A) (A)
                 (A) (A) (A) (A) (A) (A) (A) (A) (A) (A) (A) (A)
                 (A) (A) (A) (A) (A) (A) (A) (A) (A) (A) (A) (A)
                 (A) (A) (A) (A) (A) (A) (A) (A) (A) (A) (A) (A)
                 (A) (A) (A) (A) (A) (A) (A) (A) (A) (A) (A) (A)
                 (A) (A) (A) (A) (A) (A) (A) (A) (A) (A) (A) (A)
                 (A) (A) (A) (A) (A) (A) (A) (A) (A) (A) (A) (A)
                 (A) (A) (A) (A) (A) (A) (A) (A) (A) (A) (A) (A)
                 (A) (A) (A) (A) (A) (A) (A) (A) (A) (A) (A) (A)
                 (A) (A) (A) (A) (A) (A) (A) (A) (A) (A) (A) (A)
                 (A) (A) (A) (A) (A) (A) (A) (A) (A) (A) (A) (A)
                 (A) (A) (A) (A) (A) (A) (A) (A) (A) (A) (A) (A)
                 (A) (A) (A) (A) (A) (A) (A) (A) (A) (A) (A) (A)
                 (A) (A) (A) (A) (A) (A) (A) (A) (A) (A) (A) (A)
                 (A) (A) (A) (A) (A) (A) (A) (A) (A) (A) (A) (A)
                 (A) (A) (A) (A) (A) (A) (A) (A) (A) (A) (A) (A)
                 (A) (A) (A) (A) (A) (A) (A) (A) (A) (A) (A) (A)
                 (A) (A) (A) (A) (A) (A) (A) (A) (A) (A) (A) (A)
                 (A) (A) (A) (A) (A) (A) (A) (A) (A) (A) (A) (A)
                 (A) (A) (A) (A) (A) (A) (A) (A) (A) (A) (A) (A)
                 (A) (A) (A) (A) (A) (A) (A) (A) (A) (A) (A) (A)
                 (A) (A) (A) (A) (A) (A) (A) (A) (A) (A) (A) (A)
                 (A) (A) (A) (A) (A) (A) (A) (A) (A) (A) (A) (A)
                 (A) (A) (A) (A) (A) (A) (A) (A) (A) (A) (A) (A)
                 (A) (A) (A) (A) (A) (A) (A) (A) (A) (A) (A) (A)
                 (A) (A) (A) (A) (A) (A) (A) (A) (A) (A) (A) (A)
                 (A) (A) (A) (A) (A) (A) (A) (A) (A) (A) (A) (A)
                 (A) (A) (A) (A) (A) (A) (A) (A) (A) (A) (A) (A)
                 (A) (A) (A) (A) (A) (A) (A) (A) (A) (A) (A) (A)
                 (A) (A) (A) (A) (A) (A) (A) (A) (A) (A) (A) (A)
                 (A) (A) (A) (A) (A) (A) (A) (A) (A) (A) (A) (A)
                 (A) (A) (A) (A) (A) (A) (A) (A) (A) (A) (A) (A)
                 (A) (A) (A) (A) (A) (A) (A) (A) (A) (A) (A) (A)
                 (A) (A) (A) (A) (A) (A) (A) (A) (A) (A) (A) (A)
                 (A) (A) (A) (A) (A) (A) (A) (A) (A) (A) (A) (A)
                 (A) (A) (A) (A) (A) (A) (A) (A) (A) (A) (A) (A)
                 (A) (A) (A) (A) (A) (A) (A) (A) (A) (A) (A) (A)
                 (A) (A) (A) (A) (A) (A) (A) (A) (A) (A) (A) (A)
                 (A) (A) (A) (A) (A) (A) (A) (A) (A) (A) (A) (A)
                 (A) (A) (A) (A) (A) (A) (A) (A) (A) (A) (A) (A)
                 (A) (A) (A) (A) (A) (A) (A) (A) (A) (A) (A) (A)
                 (A) (A) (A) (A) (A) (A) (A) (A) (A) (A) (A) (A)
                 (A) (A) (A) (A) (A) (A) (A) (A) (A) (A) (A) (A)
                 (A) (A) (A) (A) (A) (A) (A) (A) (A) (A) (A) (A)
                 (A) (A) (A) (A) (A) (A) (A) (A) (A) (A) (A) (A)
                 (A) (A) (A) (A) (A) (A) (A) (A) (A) (A) (A) (A)
                 (A) (A) (A) (A) (A) (A) (A) (A) (A) (A) (A) (A)
                 (A) (A) (A) (A) (A) (A) (A) (A) (A) (A) (A) (A)
                 (A) (A) (A) (A) (A) (A) (A) (A) (A) (A) (A) (A)
                 (A) (A) (A) (A) (A) (A) (A) (A) (A) (A) (A) (A)
                 (A) (A) (A) (A) (A) (A) (A) (A) (A) (A) (A) (A)
                 (A) (A) (A) (A) (A) (A) (A) (A) (A) (A) (A) (A)
                 (A) (A) (A) (A) (A) (A) (A) (A) (A) (A) (A) (A)
 The electronic state is 1-A.
 Alpha  occ. eigenvalues -- -103.58418 -91.17311 -25.71839 -25.71838 -25.71831
 Alpha  occ. eigenvalues --  -25.71830 -25.71720 -20.06911 -20.00306 -15.14858
 Alpha  occ. eigenvalues --  -11.00618 -10.91483 -10.91457 -10.89799 -10.88777
 Alpha  occ. eigenvalues --  -10.86576 -10.86209 -10.85347 -10.83052 -10.82036
 Alpha  occ. eigenvalues --  -10.15915  -8.91798  -7.73597  -7.73119  -7.73103
 Alpha  occ. eigenvalues --   -6.70906  -6.70894  -6.70495  -1.60103  -1.50497
 Alpha  occ. eigenvalues --   -1.50415  -1.47536  -1.46116  -1.36150  -1.25884
 Alpha  occ. eigenvalues --   -1.17798  -1.10620  -1.05122  -1.00248  -0.98183
 Alpha  occ. eigenvalues --   -0.94508  -0.93012  -0.87527  -0.82240  -0.79981
 Alpha  occ. eigenvalues --   -0.77895  -0.77798  -0.76263  -0.74698  -0.71757
 Alpha  occ. eigenvalues --   -0.70402  -0.68998  -0.67085  -0.66645  -0.65667
 Alpha  occ. eigenvalues --   -0.64759  -0.64322  -0.62103  -0.61352  -0.60289
 Alpha  occ. eigenvalues --   -0.60008  -0.59834  -0.59702  -0.59536  -0.58425
 Alpha  occ. eigenvalues --   -0.57000  -0.56847  -0.56051  -0.55940  -0.55546
 Alpha  occ. eigenvalues --   -0.53673  -0.53630  -0.51205  -0.51032  -0.50177
 Alpha  occ. eigenvalues --   -0.48267  -0.47774  -0.46628  -0.45026  -0.44761
 Alpha  occ. eigenvalues --   -0.42341  -0.42155  -0.41885  -0.41428  -0.34148
 Alpha  occ. eigenvalues --   -0.31334
 Alpha virt. eigenvalues --    0.00887   0.01593   0.01755   0.02442   0.02556
 Alpha virt. eigenvalues --    0.02941   0.03404   0.03414   0.04435   0.04892
 Alpha virt. eigenvalues --    0.04921   0.05158   0.05778   0.06194   0.06480
 Alpha virt. eigenvalues --    0.06799   0.07280   0.07317   0.08331   0.08677
 Alpha virt. eigenvalues --    0.09231   0.09247   0.09466   0.09650   0.10132
 Alpha virt. eigenvalues --    0.10521   0.10823   0.10986   0.11387   0.11472
 Alpha virt. eigenvalues --    0.11834   0.12115   0.12338   0.12825   0.12920
 Alpha virt. eigenvalues --    0.13097   0.13259   0.13762   0.13921   0.14363
 Alpha virt. eigenvalues --    0.14934   0.15194   0.15219   0.15659   0.15714
 Alpha virt. eigenvalues --    0.16725   0.16843   0.17027   0.17430   0.17652
 Alpha virt. eigenvalues --    0.18461   0.18864   0.19035   0.19074   0.19159
 Alpha virt. eigenvalues --    0.19343   0.19507   0.19886   0.20228   0.20544
 Alpha virt. eigenvalues --    0.21196   0.21307   0.21563   0.22511   0.22702
 Alpha virt. eigenvalues --    0.22885   0.23429   0.23654   0.23794   0.24039
 Alpha virt. eigenvalues --    0.24582   0.24585   0.25263   0.25357   0.25522
 Alpha virt. eigenvalues --    0.25950   0.26287   0.26338   0.26525   0.27278
 Alpha virt. eigenvalues --    0.27616   0.27774   0.27793   0.28078   0.28602
 Alpha virt. eigenvalues --    0.28640   0.28938   0.29295   0.29562   0.29843
 Alpha virt. eigenvalues --    0.29994   0.30615   0.30866   0.31192   0.31286
 Alpha virt. eigenvalues --    0.31330   0.31404   0.31597   0.31704   0.31915
 Alpha virt. eigenvalues --    0.32150   0.32801   0.33156   0.33563   0.34037
 Alpha virt. eigenvalues --    0.34255   0.34275   0.34667   0.34851   0.35040
 Alpha virt. eigenvalues --    0.35062   0.35434   0.35672   0.36238   0.36530
 Alpha virt. eigenvalues --    0.36893   0.36991   0.37271   0.38470   0.38725
 Alpha virt. eigenvalues --    0.38739   0.39033   0.39070   0.39509   0.39763
 Alpha virt. eigenvalues --    0.40370   0.40499   0.40737   0.40824   0.41005
 Alpha virt. eigenvalues --    0.41663   0.41872   0.41957   0.42064   0.42286
 Alpha virt. eigenvalues --    0.42567   0.43532   0.43747   0.43892   0.44086
 Alpha virt. eigenvalues --    0.44342   0.44985   0.45033   0.45300   0.45840
 Alpha virt. eigenvalues --    0.45843   0.45911   0.46108   0.46756   0.46971
 Alpha virt. eigenvalues --    0.47421   0.47841   0.47959   0.48152   0.48401
 Alpha virt. eigenvalues --    0.48454   0.48628   0.49208   0.49556   0.49679
 Alpha virt. eigenvalues --    0.50158   0.50528   0.50579   0.51250   0.51905
 Alpha virt. eigenvalues --    0.51983   0.51986   0.52298   0.52594   0.52823
 Alpha virt. eigenvalues --    0.53290   0.53952   0.54455   0.55149   0.55335
 Alpha virt. eigenvalues --    0.55366   0.55621   0.56133   0.56220   0.56569
 Alpha virt. eigenvalues --    0.57053   0.58196   0.58332   0.59036   0.59178
 Alpha virt. eigenvalues --    0.59567   0.60074   0.60533   0.60753   0.61135
 Alpha virt. eigenvalues --    0.61897   0.62333   0.62788   0.62960   0.63097
 Alpha virt. eigenvalues --    0.63767   0.64545   0.64574   0.64721   0.65254
 Alpha virt. eigenvalues --    0.66326   0.66369   0.66527   0.66890   0.68144
 Alpha virt. eigenvalues --    0.68246   0.68493   0.68922   0.69893   0.70441
 Alpha virt. eigenvalues --    0.70512   0.70812   0.71511   0.71815   0.72004
 Alpha virt. eigenvalues --    0.72322   0.72891   0.73086   0.73639   0.73744
 Alpha virt. eigenvalues --    0.74479   0.74768   0.75264   0.75995   0.76849
 Alpha virt. eigenvalues --    0.76862   0.77622   0.77855   0.78092   0.78496
 Alpha virt. eigenvalues --    0.79118   0.79213   0.79696   0.79858   0.80204
 Alpha virt. eigenvalues --    0.80298   0.80856   0.81180   0.81888   0.82335
 Alpha virt. eigenvalues --    0.82434   0.83193   0.83666   0.83817   0.84282
 Alpha virt. eigenvalues --    0.84404   0.84986   0.85031   0.85597   0.85810
 Alpha virt. eigenvalues --    0.85950   0.86200   0.86744   0.87384   0.87496
 Alpha virt. eigenvalues --    0.87751   0.88209   0.88607   0.88824   0.89788
 Alpha virt. eigenvalues --    0.90211   0.90416   0.90631   0.91076   0.91505
 Alpha virt. eigenvalues --    0.91575   0.91598   0.92032   0.93588   0.93632
 Alpha virt. eigenvalues --    0.94052   0.94209   0.94638   0.95023   0.95501
 Alpha virt. eigenvalues --    0.95655   0.96247   0.96626   0.96926   0.97582
 Alpha virt. eigenvalues --    0.97706   0.98286   0.98299   0.98686   0.98794
 Alpha virt. eigenvalues --    0.99744   0.99803   1.00003   1.00244   1.00667
 Alpha virt. eigenvalues --    1.00848   1.01058   1.01951   1.02534   1.03295
 Alpha virt. eigenvalues --    1.03403   1.03536   1.03586   1.04352   1.04354
 Alpha virt. eigenvalues --    1.04712   1.05542   1.06219   1.06378   1.06575
 Alpha virt. eigenvalues --    1.06793   1.07278   1.07583   1.08047   1.08325
 Alpha virt. eigenvalues --    1.08747   1.08809   1.09124   1.09681   1.09989
 Alpha virt. eigenvalues --    1.10730   1.10989   1.11756   1.11976   1.12254
 Alpha virt. eigenvalues --    1.12493   1.12755   1.13404   1.13500   1.14209
 Alpha virt. eigenvalues --    1.14337   1.14491   1.14907   1.15415   1.15945
 Alpha virt. eigenvalues --    1.16094   1.16531   1.16795   1.17182   1.17419
 Alpha virt. eigenvalues --    1.18060   1.18707   1.18872   1.18996   1.20158
 Alpha virt. eigenvalues --    1.20475   1.20477   1.20976   1.21153   1.21715
 Alpha virt. eigenvalues --    1.22068   1.22358   1.23256   1.23613   1.24154
 Alpha virt. eigenvalues --    1.24561   1.24619   1.25622   1.25635   1.25784
 Alpha virt. eigenvalues --    1.26724   1.26780   1.27170   1.28171   1.28319
 Alpha virt. eigenvalues --    1.28455   1.29120   1.30058   1.30107   1.30440
 Alpha virt. eigenvalues --    1.30626   1.30859   1.31004   1.32383   1.32999
 Alpha virt. eigenvalues --    1.33163   1.33300   1.33945   1.34274   1.34295
 Alpha virt. eigenvalues --    1.35155   1.35409   1.36537   1.36549   1.37055
 Alpha virt. eigenvalues --    1.37536   1.37599   1.38136   1.38530   1.38885
 Alpha virt. eigenvalues --    1.39772   1.40515   1.40518   1.41935   1.42066
 Alpha virt. eigenvalues --    1.43296   1.43418   1.43875   1.44415   1.44760
 Alpha virt. eigenvalues --    1.45058   1.45265   1.45718   1.45898   1.46082
 Alpha virt. eigenvalues --    1.47155   1.47347   1.47808   1.49365   1.49753
 Alpha virt. eigenvalues --    1.50661   1.50893   1.51348   1.52129   1.52243
 Alpha virt. eigenvalues --    1.52678   1.53188   1.53524   1.54258   1.54737
 Alpha virt. eigenvalues --    1.55007   1.55476   1.55678   1.56227   1.56575
 Alpha virt. eigenvalues --    1.57430   1.57843   1.58058   1.58538   1.59151
 Alpha virt. eigenvalues --    1.60070   1.60329   1.60727   1.61004   1.61152
 Alpha virt. eigenvalues --    1.61409   1.61917   1.62991   1.63469   1.63479
 Alpha virt. eigenvalues --    1.64309   1.64496   1.65219   1.66074   1.66395
 Alpha virt. eigenvalues --    1.66918   1.67396   1.67591   1.68704   1.68941
 Alpha virt. eigenvalues --    1.69295   1.69346   1.70114   1.70568   1.71781
 Alpha virt. eigenvalues --    1.71950   1.72309   1.72770   1.73840   1.73950
 Alpha virt. eigenvalues --    1.74271   1.75863   1.76483   1.76814   1.77024
 Alpha virt. eigenvalues --    1.77418   1.77752   1.78385   1.78764   1.78916
 Alpha virt. eigenvalues --    1.79975   1.80626   1.80865   1.81117   1.82164
 Alpha virt. eigenvalues --    1.83063   1.83128   1.83911   1.84491   1.85546
 Alpha virt. eigenvalues --    1.85737   1.85804   1.87150   1.87418   1.87998
 Alpha virt. eigenvalues --    1.88260   1.89087   1.89273   1.89457   1.90426
 Alpha virt. eigenvalues --    1.91556   1.92093   1.92856   1.93137   1.93241
 Alpha virt. eigenvalues --    1.94072   1.95094   1.95629   1.96234   1.97086
 Alpha virt. eigenvalues --    1.98128   1.98271   1.99076   1.99548   2.00373
 Alpha virt. eigenvalues --    2.01162   2.01183   2.01950   2.02293   2.03167
 Alpha virt. eigenvalues --    2.03946   2.04497   2.05535   2.06249   2.06371
 Alpha virt. eigenvalues --    2.06900   2.08277   2.09254   2.10739   2.10767
 Alpha virt. eigenvalues --    2.11385   2.12028   2.12372   2.13326   2.13595
 Alpha virt. eigenvalues --    2.14843   2.15284   2.15444   2.16611   2.17015
 Alpha virt. eigenvalues --    2.18005   2.18551   2.19327   2.19501   2.19931
 Alpha virt. eigenvalues --    2.20824   2.21195   2.22281   2.23481   2.23514
 Alpha virt. eigenvalues --    2.23910   2.25616   2.26600   2.26968   2.27306
 Alpha virt. eigenvalues --    2.27780   2.28257   2.29754   2.29944   2.30462
 Alpha virt. eigenvalues --    2.30912   2.32927   2.33046   2.34055   2.34693
 Alpha virt. eigenvalues --    2.35380   2.35838   2.36424   2.37375   2.37597
 Alpha virt. eigenvalues --    2.38731   2.39262   2.40329   2.41025   2.41777
 Alpha virt. eigenvalues --    2.42161   2.43414   2.44367   2.45547   2.45797
 Alpha virt. eigenvalues --    2.46557   2.47783   2.48808   2.49294   2.49584
 Alpha virt. eigenvalues --    2.50695   2.51039   2.51317   2.53116   2.53619
 Alpha virt. eigenvalues --    2.54604   2.55064   2.56566   2.57128   2.57791
 Alpha virt. eigenvalues --    2.57930   2.58121   2.59539   2.60342   2.61388
 Alpha virt. eigenvalues --    2.62113   2.62463   2.63420   2.64106   2.65047
 Alpha virt. eigenvalues --    2.65898   2.67338   2.68132   2.69963   2.71211
 Alpha virt. eigenvalues --    2.71423   2.71512   2.72393   2.73155   2.74112
 Alpha virt. eigenvalues --    2.74935   2.75059   2.75876   2.76647   2.76898
 Alpha virt. eigenvalues --    2.78738   2.79902   2.79942   2.80629   2.82757
 Alpha virt. eigenvalues --    2.83359   2.83823   2.84777   2.85226   2.86721
 Alpha virt. eigenvalues --    2.88096   2.88908   2.89178   2.90208   2.90363
 Alpha virt. eigenvalues --    2.91344   2.93240   2.93700   2.93940   2.94238
 Alpha virt. eigenvalues --    2.95897   2.96470   2.98152   2.98189   2.99143
 Alpha virt. eigenvalues --    2.99488   3.00515   3.00559   3.01790   3.02601
 Alpha virt. eigenvalues --    3.02645   3.04865   3.06040   3.06735   3.07217
 Alpha virt. eigenvalues --    3.07299   3.07850   3.08682   3.10157   3.10387
 Alpha virt. eigenvalues --    3.11553   3.11884   3.12503   3.13252   3.13366
 Alpha virt. eigenvalues --    3.13913   3.15204   3.16276   3.17115   3.17174
 Alpha virt. eigenvalues --    3.18016   3.19393   3.20194   3.20752   3.21160
 Alpha virt. eigenvalues --    3.21670   3.21836   3.22863   3.23116   3.24096
 Alpha virt. eigenvalues --    3.24562   3.25438   3.26974   3.27122   3.27480
 Alpha virt. eigenvalues --    3.29671   3.29767   3.30473   3.30534   3.31502
 Alpha virt. eigenvalues --    3.32919   3.32957   3.33717   3.34097   3.34469
 Alpha virt. eigenvalues --    3.34948   3.35512   3.37316   3.37334   3.37897
 Alpha virt. eigenvalues --    3.38413   3.38992   3.39363   3.40262   3.41203
 Alpha virt. eigenvalues --    3.41590   3.44798   3.46148   3.46570   3.46793
 Alpha virt. eigenvalues --    3.47189   3.47305   3.48194   3.48282   3.48787
 Alpha virt. eigenvalues --    3.51265   3.51637   3.51752   3.53577   3.54191
 Alpha virt. eigenvalues --    3.54352   3.55095   3.56509   3.57178   3.57595
 Alpha virt. eigenvalues --    3.57673   3.57895   3.58734   3.60188   3.60311
 Alpha virt. eigenvalues --    3.60688   3.60974   3.61327   3.62042   3.62352
 Alpha virt. eigenvalues --    3.63281   3.64456   3.64722   3.64950   3.65701
 Alpha virt. eigenvalues --    3.66836   3.67075   3.67733   3.69208   3.70466
 Alpha virt. eigenvalues --    3.70674   3.71856   3.71915   3.72517   3.74030
 Alpha virt. eigenvalues --    3.74071   3.74567   3.75213   3.76683   3.77850
 Alpha virt. eigenvalues --    3.78080   3.78490   3.79175   3.79305   3.79794
 Alpha virt. eigenvalues --    3.81103   3.81545   3.81804   3.82845   3.83393
 Alpha virt. eigenvalues --    3.84573   3.84799   3.85431   3.85702   3.85762
 Alpha virt. eigenvalues --    3.86615   3.86732   3.88508   3.88706   3.89145
 Alpha virt. eigenvalues --    3.89950   3.90439   3.92487   3.92834   3.93253
 Alpha virt. eigenvalues --    3.94226   3.94412   3.94933   3.95411   3.97721
 Alpha virt. eigenvalues --    3.98409   3.99510   3.99983   4.00093   4.00979
 Alpha virt. eigenvalues --    4.01076   4.02741   4.03987   4.04361   4.04488
 Alpha virt. eigenvalues --    4.05214   4.06669   4.07078   4.07696   4.07869
 Alpha virt. eigenvalues --    4.08864   4.09642   4.09702   4.11167   4.11267
 Alpha virt. eigenvalues --    4.12490   4.13618   4.14558   4.15864   4.15925
 Alpha virt. eigenvalues --    4.17741   4.17774   4.18143   4.18367   4.20298
 Alpha virt. eigenvalues --    4.21008   4.21105   4.21429   4.21743   4.21946
 Alpha virt. eigenvalues --    4.24264   4.24462   4.24632   4.25310   4.25489
 Alpha virt. eigenvalues --    4.26084   4.27117   4.27808   4.27821   4.29297
 Alpha virt. eigenvalues --    4.30534   4.30577   4.31016   4.33348   4.34354
 Alpha virt. eigenvalues --    4.35270   4.37237   4.37782   4.38165   4.38395
 Alpha virt. eigenvalues --    4.39319   4.39986   4.40248   4.41868   4.42980
 Alpha virt. eigenvalues --    4.43734   4.44291   4.44448   4.45964   4.46368
 Alpha virt. eigenvalues --    4.46568   4.48832   4.50758   4.52403   4.53028
 Alpha virt. eigenvalues --    4.53359   4.54429   4.55360   4.56366   4.56709
 Alpha virt. eigenvalues --    4.58136   4.58644   4.60100   4.62401   4.62545
 Alpha virt. eigenvalues --    4.63287   4.63858   4.65292   4.67065   4.68043
 Alpha virt. eigenvalues --    4.70401   4.70714   4.70933   4.70946   4.73853
 Alpha virt. eigenvalues --    4.74013   4.75022   4.75822   4.76141   4.78500
 Alpha virt. eigenvalues --    4.78874   4.79464   4.81344   4.82888   4.83684
 Alpha virt. eigenvalues --    4.84926   4.86705   4.86928   4.89195   4.91430
 Alpha virt. eigenvalues --    4.92804   4.93071   4.94015   4.96750   4.96870
 Alpha virt. eigenvalues --    4.98878   4.99493   4.99530   4.99971   5.01340
 Alpha virt. eigenvalues --    5.01571   5.02679   5.04776   5.07634   5.07820
 Alpha virt. eigenvalues --    5.09037   5.09752   5.10665   5.11851   5.12308
 Alpha virt. eigenvalues --    5.12877   5.13528   5.13533   5.14713   5.16912
 Alpha virt. eigenvalues --    5.17702   5.18949   5.20180   5.20507   5.22966
 Alpha virt. eigenvalues --    5.23854   5.24647   5.27494   5.29626   5.35538
 Alpha virt. eigenvalues --    5.35893   5.37543   5.38839   5.39491   5.43128
 Alpha virt. eigenvalues --    5.43797   5.44407   5.44964   5.45475   5.47148
 Alpha virt. eigenvalues --    5.49488   5.50018   5.50542   5.52224   5.54279
 Alpha virt. eigenvalues --    5.55480   5.55870   5.56975   5.58048   5.60017
 Alpha virt. eigenvalues --    5.61252   5.62533   5.63722   5.66244   5.69664
 Alpha virt. eigenvalues --    5.71005   5.71120   5.73255   5.75508   5.76047
 Alpha virt. eigenvalues --    5.76474   5.78457   5.79940   5.84061   5.85854
 Alpha virt. eigenvalues --    5.86219   5.87360   5.89168   5.89328   5.91544
 Alpha virt. eigenvalues --    5.94264   5.96647   5.97803   6.00759   6.01308
 Alpha virt. eigenvalues --    6.03606   6.04982   6.06474   6.10035   6.11489
 Alpha virt. eigenvalues --    6.16509   6.18943   6.21032   6.22174   6.23500
 Alpha virt. eigenvalues --    6.28192   6.30850   6.32054   6.34760   6.38718
 Alpha virt. eigenvalues --    6.40896   6.47591   6.49278   6.50681   6.54454
 Alpha virt. eigenvalues --    6.55602   6.56993   6.57534   6.60450   6.60649
 Alpha virt. eigenvalues --    6.64827   6.67243   6.71020   6.74254   6.74601
 Alpha virt. eigenvalues --    6.77561   6.79270   6.83421   6.85339   6.87269
 Alpha virt. eigenvalues --    6.98032   6.98155   6.99883   7.00853   7.10387
 Alpha virt. eigenvalues --    7.10511   7.19041   7.20352   7.27062   7.35424
 Alpha virt. eigenvalues --    7.41070   7.45803   7.47268   7.51787   7.63099
 Alpha virt. eigenvalues --    7.70382   7.72202   7.81049   7.90709   8.06240
 Alpha virt. eigenvalues --    8.20265   8.41645   8.47120   8.51329   8.57664
 Alpha virt. eigenvalues --    8.71880   8.73928   8.75666   8.76012   8.76431
 Alpha virt. eigenvalues --    8.78164   8.79407   8.81448   8.82769   8.83197
 Alpha virt. eigenvalues --    8.83997   8.90532   8.95985   8.97209   8.98077
 Alpha virt. eigenvalues --    9.00566   9.03932   9.07310   9.07576   9.09112
 Alpha virt. eigenvalues --    9.10976   9.12069   9.12144   9.14192   9.16929
 Alpha virt. eigenvalues --    9.17319   9.17782   9.18633   9.20223   9.21732
 Alpha virt. eigenvalues --    9.23132   9.25870   9.27940   9.29243   9.30345
 Alpha virt. eigenvalues --    9.30425   9.31500   9.31687   9.32397   9.34150
 Alpha virt. eigenvalues --    9.36626   9.37751   9.38430   9.39621   9.40576
 Alpha virt. eigenvalues --    9.44512   9.46571   9.46736   9.54667   9.59471
 Alpha virt. eigenvalues --    9.60047   9.65988   9.68754   9.75110   9.75152
 Alpha virt. eigenvalues --    9.75817   9.85278   9.90435  11.31161  15.25567
 Alpha virt. eigenvalues --   15.43417  15.74424  16.03138  16.23209  16.35144
 Alpha virt. eigenvalues --   16.38441  16.83626  17.38926  17.56039  17.86523
 Alpha virt. eigenvalues --   18.03436  18.62694  19.25331  19.48444  20.29288
 Alpha virt. eigenvalues --   20.71861  21.29101
          Condensed to atoms (all electrons):
               1          2          3          4          5          6
     1  C    8.942849  -0.251497  -0.647161   0.149249   0.090626   0.041849
     2  N   -0.251497   8.010281   0.293835  -0.183618  -0.429758  -0.067069
     3  C   -0.647161   0.293835   5.787724   0.289925   0.306943  -0.182408
     4  O    0.149249  -0.183618   0.289925   8.828931  -0.060875   0.027607
     5  O    0.090626  -0.429758   0.306943  -0.060875   8.645016   0.228081
     6  C    0.041849  -0.067069  -0.182408   0.027607   0.228081   5.532060
     7  C   -0.007002  -0.004925   0.005770  -0.008310  -0.109386   0.057373
     8  C   -0.000462   0.001143  -0.001919  -0.003715   0.000808  -0.043350
     9  C   -0.989920  -0.194815  -0.001342   0.004773  -0.075394  -0.015364
    10  C   -0.005941  -0.003322  -0.065145   0.014966   0.006537  -0.000757
    11  C   -0.119911   0.052569   0.011175  -0.002942  -0.003689  -0.003506
    12  C    0.031459   0.026442   0.014236   0.026698   0.007279   0.001266
    13  C   -0.567685  -0.278961  -0.103567  -0.159359  -0.085802  -0.058744
    14  H    0.003240   0.199104  -0.089685   0.015248   0.096430   0.014607
    15  H   -0.003125   0.015084  -0.023655  -0.003530  -0.032666   0.305490
    16  H   -0.003167   0.015146  -0.023546  -0.003558  -0.032737   0.305505
    17  H   -0.001439  -0.006124  -0.001777   0.005290  -0.033003   0.045401
    18  H   -0.001442  -0.006122  -0.001760   0.005290  -0.033014   0.045443
    19  H    0.000430  -0.000563   0.003946   0.000074   0.000654  -0.003461
    20  H    0.000053  -0.000260   0.001736  -0.000342   0.000530  -0.008026
    21  H    0.000428  -0.000560   0.003948   0.000074   0.000664  -0.003472
    22  H   -0.472345  -0.015027   0.016843   0.002971   0.009860   0.005119
    23  Cl  -0.034062   0.005269   0.010562  -0.007065  -0.000052  -0.001839
    24  H   -0.582716  -0.119365   0.038258  -0.167070  -0.007127  -0.029580
    25  S   -0.140670   0.018354  -0.018155  -0.000404  -0.000632  -0.001098
    26  H   -0.042026   0.007848   0.002683  -0.000061  -0.000150  -0.000026
    27  F    0.015945  -0.004109   0.001229  -0.000017  -0.000370   0.000016
    28  F    0.023372   0.002077   0.001657  -0.000005   0.000041   0.000019
    29  F    0.015954  -0.004093   0.001230  -0.000017  -0.000370   0.000016
    30  F    0.023343   0.002091   0.001657  -0.000005   0.000041   0.000019
    31  F   -0.009322  -0.000707  -0.000354   0.000004  -0.000027  -0.000004
               7          8          9         10         11         12
     1  C   -0.007002  -0.000462  -0.989920  -0.005941  -0.119911   0.031459
     2  N   -0.004925   0.001143  -0.194815  -0.003322   0.052569   0.026442
     3  C    0.005770  -0.001919  -0.001342  -0.065145   0.011175   0.014236
     4  O   -0.008310  -0.003715   0.004773   0.014966  -0.002942   0.026698
     5  O   -0.109386   0.000808  -0.075394   0.006537  -0.003689   0.007279
     6  C    0.057373  -0.043350  -0.015364  -0.000757  -0.003506   0.001266
     7  C    5.540519   0.122722   0.002710   0.000885  -0.000358   0.000679
     8  C    0.122722   5.798678   0.000400  -0.000034  -0.000022   0.000029
     9  C    0.002710   0.000400   8.981555  -0.750990  -0.206072  -0.141388
    10  C    0.000885  -0.000034  -0.750990   8.996798  -0.909395   0.071186
    11  C   -0.000358  -0.000022  -0.206072  -0.909395   8.069898  -0.414376
    12  C    0.000679   0.000029  -0.141388   0.071186  -0.414376   6.903396
    13  C   -0.009558  -0.000471   0.002331  -0.288209   0.049621  -0.285321
    14  H    0.004341   0.000053   0.024075  -0.025341  -0.011016   0.000028
    15  H    0.008859  -0.003982   0.000653  -0.000396  -0.000007  -0.000561
    16  H    0.008810  -0.003976   0.000662  -0.000398  -0.000006  -0.000560
    17  H    0.400745  -0.039227   0.000476   0.000076  -0.000003  -0.000018
    18  H    0.400681  -0.039219   0.000477   0.000076  -0.000003  -0.000017
    19  H    0.035458   0.362400  -0.000058   0.000055  -0.000018   0.000032
    20  H   -0.028635   0.448068   0.000032  -0.000028   0.000006  -0.000001
    21  H    0.035459   0.362412  -0.000058   0.000055  -0.000018   0.000032
    22  H    0.000746   0.000025   0.165710  -0.489849   0.053348   0.040979
    23  Cl  -0.000060  -0.000010   0.001296   0.005625  -0.116257  -0.143344
    24  H   -0.003002  -0.000363  -0.008646  -0.088356   0.046307  -0.417959
    25  S   -0.000001   0.000002   0.013152  -0.615621   0.038875  -0.007044
    26  H   -0.000000  -0.000000   0.053014  -0.266219   0.057201  -0.187494
    27  F   -0.000006   0.000000   0.051904  -0.135264   0.000499   0.011528
    28  F    0.000000  -0.000000  -0.023591  -0.123216   0.063580  -0.006701
    29  F   -0.000006   0.000000   0.051905  -0.135252   0.000503   0.011513
    30  F    0.000000  -0.000000  -0.023556  -0.123329   0.063656  -0.006737
    31  F   -0.000001  -0.000000   0.012910   0.145503  -0.030872  -0.010390
              13         14         15         16         17         18
     1  C   -0.567685   0.003240  -0.003125  -0.003167  -0.001439  -0.001442
     2  N   -0.278961   0.199104   0.015084   0.015146  -0.006124  -0.006122
     3  C   -0.103567  -0.089685  -0.023655  -0.023546  -0.001777  -0.001760
     4  O   -0.159359   0.015248  -0.003530  -0.003558   0.005290   0.005290
     5  O   -0.085802   0.096430  -0.032666  -0.032737  -0.033003  -0.033014
     6  C   -0.058744   0.014607   0.305490   0.305505   0.045401   0.045443
     7  C   -0.009558   0.004341   0.008859   0.008810   0.400745   0.400681
     8  C   -0.000471   0.000053  -0.003982  -0.003976  -0.039227  -0.039219
     9  C    0.002331   0.024075   0.000653   0.000662   0.000476   0.000477
    10  C   -0.288209  -0.025341  -0.000396  -0.000398   0.000076   0.000076
    11  C    0.049621  -0.011016  -0.000007  -0.000006  -0.000003  -0.000003
    12  C   -0.285321   0.000028  -0.000561  -0.000560  -0.000018  -0.000017
    13  C    8.436690  -0.022532   0.002369   0.002388  -0.000513  -0.000511
    14  H   -0.022532   0.812467  -0.001196  -0.001203  -0.000732  -0.000734
    15  H    0.002369  -0.001196   0.411937   0.009637   0.018614  -0.018848
    16  H    0.002388  -0.001203   0.009637   0.411941  -0.018875   0.018599
    17  H   -0.000513  -0.000732   0.018614  -0.018875   0.407683   0.008589
    18  H   -0.000511  -0.000734  -0.018848   0.018599   0.008589   0.407634
    19  H   -0.000038   0.000082  -0.007256  -0.008788   0.001082   0.000617
    20  H   -0.000051   0.000046   0.000099   0.000104  -0.002650  -0.002637
    21  H   -0.000037   0.000081  -0.008793  -0.007252   0.000616   0.001078
    22  H   -0.137444  -0.003879   0.000182   0.000182   0.000168   0.000169
    23  Cl   0.130511   0.000521   0.000014   0.000014  -0.000011  -0.000011
    24  H    0.032791   0.001442  -0.000464  -0.000466  -0.000356  -0.000355
    25  S    0.043189  -0.006884  -0.000060  -0.000060  -0.000001  -0.000001
    26  H   -0.006316  -0.000978  -0.000003  -0.000003   0.000002   0.000002
    27  F    0.000290  -0.000728   0.000003   0.000009  -0.000004   0.000008
    28  F   -0.000629   0.000064   0.000003   0.000002  -0.000001   0.000002
    29  F    0.000303  -0.000727   0.000009   0.000003   0.000008  -0.000004
    30  F   -0.000611   0.000065   0.000002   0.000003   0.000002  -0.000001
    31  F    0.004741   0.000548  -0.000001  -0.000001  -0.000000  -0.000000
              19         20         21         22         23         24
     1  C    0.000430   0.000053   0.000428  -0.472345  -0.034062  -0.582716
     2  N   -0.000563  -0.000260  -0.000560  -0.015027   0.005269  -0.119365
     3  C    0.003946   0.001736   0.003948   0.016843   0.010562   0.038258
     4  O    0.000074  -0.000342   0.000074   0.002971  -0.007065  -0.167070
     5  O    0.000654   0.000530   0.000664   0.009860  -0.000052  -0.007127
     6  C   -0.003461  -0.008026  -0.003472   0.005119  -0.001839  -0.029580
     7  C    0.035458  -0.028635   0.035459   0.000746  -0.000060  -0.003002
     8  C    0.362400   0.448068   0.362412   0.000025  -0.000010  -0.000363
     9  C   -0.000058   0.000032  -0.000058   0.165710   0.001296  -0.008646
    10  C    0.000055  -0.000028   0.000055  -0.489849   0.005625  -0.088356
    11  C   -0.000018   0.000006  -0.000018   0.053348  -0.116257   0.046307
    12  C    0.000032  -0.000001   0.000032   0.040979  -0.143344  -0.417959
    13  C   -0.000038  -0.000051  -0.000037  -0.137444   0.130511   0.032791
    14  H    0.000082   0.000046   0.000081  -0.003879   0.000521   0.001442
    15  H   -0.007256   0.000099  -0.008793   0.000182   0.000014  -0.000464
    16  H   -0.008788   0.000104  -0.007252   0.000182   0.000014  -0.000466
    17  H    0.001082  -0.002650   0.000616   0.000168  -0.000011  -0.000356
    18  H    0.000617  -0.002637   0.001078   0.000169  -0.000011  -0.000355
    19  H    0.315563   0.000234   0.021127  -0.000001  -0.000003   0.000004
    20  H    0.000234   0.303183   0.000228   0.000008  -0.000000  -0.000010
    21  H    0.021127   0.000228   0.315576  -0.000001  -0.000003   0.000004
    22  H   -0.000001   0.000008  -0.000001   1.418985  -0.003067  -0.025933
    23  Cl  -0.000003  -0.000000  -0.000003  -0.003067  17.591891   0.041161
    24  H    0.000004  -0.000010   0.000004  -0.025933   0.041161   1.585656
    25  S    0.000001  -0.000000   0.000001   0.071484  -0.006271  -0.006325
    26  H   -0.000000   0.000000  -0.000000   0.001234  -0.070023  -0.031298
    27  F   -0.000000   0.000000  -0.000000  -0.033976   0.000086  -0.000142
    28  F    0.000000   0.000000  -0.000000   0.009417  -0.000317   0.000587
    29  F   -0.000000   0.000000  -0.000000  -0.034063   0.000086  -0.000142
    30  F   -0.000000   0.000000   0.000000   0.009398  -0.000315   0.000588
    31  F    0.000000  -0.000000   0.000000  -0.024394   0.000164   0.000161
              25         26         27         28         29         30
     1  C   -0.140670  -0.042026   0.015945   0.023372   0.015954   0.023343
     2  N    0.018354   0.007848  -0.004109   0.002077  -0.004093   0.002091
     3  C   -0.018155   0.002683   0.001229   0.001657   0.001230   0.001657
     4  O   -0.000404  -0.000061  -0.000017  -0.000005  -0.000017  -0.000005
     5  O   -0.000632  -0.000150  -0.000370   0.000041  -0.000370   0.000041
     6  C   -0.001098  -0.000026   0.000016   0.000019   0.000016   0.000019
     7  C   -0.000001  -0.000000  -0.000006   0.000000  -0.000006   0.000000
     8  C    0.000002  -0.000000   0.000000  -0.000000   0.000000  -0.000000
     9  C    0.013152   0.053014   0.051904  -0.023591   0.051905  -0.023556
    10  C   -0.615621  -0.266219  -0.135264  -0.123216  -0.135252  -0.123329
    11  C    0.038875   0.057201   0.000499   0.063580   0.000503   0.063656
    12  C   -0.007044  -0.187494   0.011528  -0.006701   0.011513  -0.006737
    13  C    0.043189  -0.006316   0.000290  -0.000629   0.000303  -0.000611
    14  H   -0.006884  -0.000978  -0.000728   0.000064  -0.000727   0.000065
    15  H   -0.000060  -0.000003   0.000003   0.000003   0.000009   0.000002
    16  H   -0.000060  -0.000003   0.000009   0.000002   0.000003   0.000003
    17  H   -0.000001   0.000002  -0.000004  -0.000001   0.000008   0.000002
    18  H   -0.000001   0.000002   0.000008   0.000002  -0.000004  -0.000001
    19  H    0.000001  -0.000000  -0.000000   0.000000  -0.000000  -0.000000
    20  H   -0.000000   0.000000   0.000000   0.000000   0.000000   0.000000
    21  H    0.000001  -0.000000  -0.000000  -0.000000  -0.000000   0.000000
    22  H    0.071484   0.001234  -0.033976   0.009417  -0.034063   0.009398
    23  Cl  -0.006271  -0.070023   0.000086  -0.000317   0.000086  -0.000315
    24  H   -0.006325  -0.031298  -0.000142   0.000587  -0.000142   0.000588
    25  S   13.854374   0.037163  -0.048136  -0.042426  -0.048163  -0.042365
    26  H    0.037163   1.034128   0.007373  -0.045062   0.007382  -0.045024
    27  F   -0.048136   0.007373   9.767002  -0.017638   0.018145   0.051413
    28  F   -0.042426  -0.045062  -0.017638   9.769157   0.051413   0.016351
    29  F   -0.048163   0.007382   0.018145   0.051413   9.767054  -0.017637
    30  F   -0.042365  -0.045024   0.051413   0.016351  -0.017637   9.769108
    31  F    0.150531  -0.017019  -0.094171  -0.095334  -0.094161  -0.095339
              31
     1  C   -0.009322
     2  N   -0.000707
     3  C   -0.000354
     4  O    0.000004
     5  O   -0.000027
     6  C   -0.000004
     7  C   -0.000001
     8  C   -0.000000
     9  C    0.012910
    10  C    0.145503
    11  C   -0.030872
    12  C   -0.010390
    13  C    0.004741
    14  H    0.000548
    15  H   -0.000001
    16  H   -0.000001
    17  H   -0.000000
    18  H   -0.000000
    19  H    0.000000
    20  H   -0.000000
    21  H    0.000000
    22  H   -0.024394
    23  Cl   0.000164
    24  H    0.000161
    25  S    0.150531
    26  H   -0.017019
    27  F   -0.094171
    28  F   -0.095334
    29  F   -0.094161
    30  F   -0.095339
    31  F    9.677360
 Mulliken charges:
               1
     1  C    0.541094
     2  N   -0.078350
     3  C    0.367118
     4  O   -0.770210
     5  O   -0.488460
     6  C   -0.191167
     7  C   -0.454507
     8  C   -0.959993
     9  C   -0.936840
    10  C    0.785301
    11  C   -0.688768
    12  C    0.475128
    13  C   -0.698865
    14  H   -0.006809
    15  H    0.331590
    16  H    0.331590
    17  H    0.215982
    18  H    0.216017
    19  H    0.278428
    20  H    0.288315
    21  H    0.278413
    22  H    0.433151
    23  Cl  -0.404491
    24  H    0.742716
    25  S    2.757192
    26  H    0.503673
    27  F   -0.590887
    28  F   -0.582824
    29  F   -0.590888
    30  F   -0.582822
    31  F   -0.519826
 Sum of Mulliken charges =  -0.00000
 Mulliken charges with hydrogens summed into heavy atoms:
               1
     1  C    0.541094
     2  N   -0.085159
     3  C    0.367118
     4  O   -0.770210
     5  O   -0.488460
     6  C    0.472012
     7  C   -0.022508
     8  C   -0.114836
     9  C   -0.503689
    10  C    0.785301
    11  C   -0.185095
    12  C    0.475128
    13  C    0.043851
    23  Cl  -0.404491
    25  S    2.757192
    27  F   -0.590887
    28  F   -0.582824
    29  F   -0.590888
    30  F   -0.582822
    31  F   -0.519826
 Electronic spatial extent (au):  <R**2>=          10322.0485
 Charge=              0.0000 electrons
 Dipole moment (field-independent basis, Debye):
    X=              4.7734    Y=             -1.8897    Z=             -0.0003  Tot=              5.1339
 Quadrupole moment (field-independent basis, Debye-Ang):
   XX=           -120.6630   YY=           -133.2025   ZZ=           -130.4725
   XY=            -13.5207   XZ=             -0.0001   YZ=              0.0007
 Traceless Quadrupole moment (field-independent basis, Debye-Ang):
   XX=              7.4497   YY=             -5.0899   ZZ=             -2.3598
   XY=            -13.5207   XZ=             -0.0001   YZ=              0.0007
 Octapole moment (field-independent basis, Debye-Ang**2):
  XXX=             79.7042  YYY=            -49.2635  ZZZ=              0.0046  XYY=            -27.7681
  XXY=            -24.5755  XXZ=              0.0024  XZZ=            -19.5854  YZZ=            -11.9686
  YYZ=             -0.0005  XYZ=             -0.0023
 Hexadecapole moment (field-independent basis, Debye-Ang**3):
 XXXX=          -9308.8762 YYYY=          -2361.8583 ZZZZ=           -298.8829 XXXY=           -133.3005
 XXXZ=             -0.0216 YYYX=             92.0170 YYYZ=              0.0079 ZZZX=             -0.0098
 ZZZY=             -0.0022 XXYY=          -2100.6993 XXZZ=          -1714.4111 YYZZ=           -454.5932
 XXYZ=             -0.0040 YYXZ=             -0.0088 ZZXY=             46.7683
 N-N= 2.007561221331D+03 E-N=-8.621882287427D+03  KE= 1.941808683214D+03
 Unable to Open any file for archive entry.
 1\1\GINC-GADI-CPU-CLX-2374\SP\RDSDPBEP86-FC\Aug-CC-pVTZ\C10H11Cl1F5N1O
 2S1\HIO507\10-Sep-2020\0\\# DSDPBEP86/AUG-cc-PVTZ SCF=Tight INT(grid=u
 ltrafine) MaxDisk=60000MB\\CP22CA_c2.DSDPBEP86_AUG-cc-PVTZ\\0,1\C,0,-5
 .8940239804,1.4635161989,0.3189639789\N,0,-4.6594855421,0.8254275662,0
 .1730376319\C,0,-3.4122119662,1.4023360648,0.2091219875\O,0,-3.1720913
 642,2.5694633119,0.3743487039\O,0,-2.4887978145,0.4470406578,0.0286777
 47\C,0,-1.1237193586,0.8970771249,0.0408317856\C,0,-0.239991205,-0.311
 8800069,-0.1761589355\C,0,1.2340452897,0.0840806412,-0.1762463744\C,0,
 -7.0360316265,0.6595944673,0.2449778788\C,0,-8.2776379407,1.2478343724
 ,0.3837260774\C,0,-8.4509943785,2.6060487216,0.5943447109\C,0,-7.29891
 83539,3.3760994629,0.6628236785\C,0,-6.0262012185,2.8384081578,0.53038
 96033\H,0,-4.6672105204,-0.1728828439,0.0238277888\H,0,-0.9221230549,1
 .3812924602,0.9993340851\H,0,-0.9928490604,1.643015096,-0.7467473938\H
 ,0,-0.5082709494,-0.7832474478,-1.1254840387\H,0,-0.4381818893,-1.0437
 549107,0.61153291\H,0,1.45232215,0.8020611361,-0.9704554868\H,0,1.8722
 993985,-0.7863014253,-0.3325192805\H,0,1.5226671703,0.5405161214,0.773
 6342134\H,0,-6.9462737672,-0.4071204358,0.0814633848\Cl,0,-7.455312921
 6,5.0863581386,0.9255099387\H,0,-5.155773176,3.4738102772,0.5901799913
 \S,0,-9.7457090521,0.1927922133,0.2854387875\H,0,-9.4293866429,3.05290
 60674,0.7011751512\F,0,-9.085367852,-0.9292163806,1.2433591642\F,0,-10
 .4180189339,0.8952389484,1.5722339982\F,0,-9.1774166082,-0.5913163642,
 -1.0086847237\F,0,-10.5101477616,1.2333123687,-0.6811152286\F,0,-11.04
 53570694,-0.7440897599,0.197998265\\Version=ES64L-G16RevC.01\State=1-A
 \HF=-1946.6041728\MP2=-1948.6108135\RMSD=2.710e-09\PG=C01 [X(C10H11Cl1
 F5N1O2S1)]\\@
 The archive entry for this job was punched.


 ABOVE ALL I AM AN OPTIMIST FOR NUMBER THEORY,
 AND I HOLD THE HOPE THAT WE MAY NOT BE FAR FROM
 A TIME WHEN IRREFUTABLE ARITHMETIC WILL CELEBRATE
 ITS TRIUMPHS IN PHYSICS AND CHEMISTRY.
   -- HERMANN MINKOWSKI, 1905
 Job cpu time:       1 days 11 hours  8 minutes 17.2 seconds.
 Elapsed time:       0 days  5 hours 52 minutes 30.8 seconds.
 File lengths (MBytes):  RWF=    720 Int=      0 D2E=      0 Chk=     91 Scr=      1
 Normal termination of Gaussian 16 at Thu Sep 10 17:18:17 2020.
