 Entering Gaussian System, Link 0=/apps/gaussian/g16c01/g16/g16
 Initial command:
 /apps/gaussian/g16c01/g16/l1.exe "/jobfs/20868356.gadi-pbs/Gau-1189076.inp" -scrdir="/jobfs/20868356.gadi-pbs/"
 Entering Link 1 = /apps/gaussian/g16c01/g16/l1.exe PID=   1189077.
  
 Copyright (c) 1988-2019, Gaussian, Inc.  All Rights Reserved.
  
 This is part of the Gaussian(R) 16 program.  It is based on
 the Gaussian(R) 09 system (copyright 2009, Gaussian, Inc.),
 the Gaussian(R) 03 system (copyright 2003, Gaussian, Inc.),
 the Gaussian(R) 98 system (copyright 1998, Gaussian, Inc.),
 the Gaussian(R) 94 system (copyright 1995, Gaussian, Inc.),
 the Gaussian 92(TM) system (copyright 1992, Gaussian, Inc.),
 the Gaussian 90(TM) system (copyright 1990, Gaussian, Inc.),
 the Gaussian 88(TM) system (copyright 1988, Gaussian, Inc.),
 the Gaussian 86(TM) system (copyright 1986, Carnegie Mellon
 University), and the Gaussian 82(TM) system (copyright 1983,
 Carnegie Mellon University). Gaussian is a federally registered
 trademark of Gaussian, Inc.
  
 This software contains proprietary and confidential information,
 including trade secrets, belonging to Gaussian, Inc.
  
 This software is provided under written license and may be
 used, copied, transmitted, or stored only in accord with that
 written license.
  
 The following legend is applicable only to US Government
 contracts under FAR:
  
                    RESTRICTED RIGHTS LEGEND
  
 Use, reproduction and disclosure by the US Government is
 subject to restrictions as set forth in subparagraphs (a)
 and (c) of the Commercial Computer Software - Restricted
 Rights clause in FAR 52.227-19.
  
 Gaussian, Inc.
 340 Quinnipiac St., Bldg. 40, Wallingford CT 06492
  
  
 ---------------------------------------------------------------
 Warning -- This program may not be used in any manner that
 competes with the business of Gaussian, Inc. or will provide
 assistance to any competitor of Gaussian, Inc.  The licensee
 of this program is prohibited from giving any competitor of
 Gaussian, Inc. access to this program.  By using this program,
 the user acknowledges that Gaussian, Inc. is engaged in the
 business of creating and licensing software in the field of
 computational chemistry and represents and warrants to the
 licensee that it is not a competitor of Gaussian, Inc. and that
 it will not use this program in any manner prohibited above.
 ---------------------------------------------------------------
  

 Cite this work as:
 Gaussian 16, Revision C.01,
 M. J. Frisch, G. W. Trucks, H. B. Schlegel, G. E. Scuseria, 
 M. A. Robb, J. R. Cheeseman, G. Scalmani, V. Barone, 
 G. A. Petersson, H. Nakatsuji, X. Li, M. Caricato, A. V. Marenich, 
 J. Bloino, B. G. Janesko, R. Gomperts, B. Mennucci, H. P. Hratchian, 
 J. V. Ortiz, A. F. Izmaylov, J. L. Sonnenberg, D. Williams-Young, 
 F. Ding, F. Lipparini, F. Egidi, J. Goings, B. Peng, A. Petrone, 
 T. Henderson, D. Ranasinghe, V. G. Zakrzewski, J. Gao, N. Rega, 
 G. Zheng, W. Liang, M. Hada, M. Ehara, K. Toyota, R. Fukuda, 
 J. Hasegawa, M. Ishida, T. Nakajima, Y. Honda, O. Kitao, H. Nakai, 
 T. Vreven, K. Throssell, J. A. Montgomery, Jr., J. E. Peralta, 
 F. Ogliaro, M. J. Bearpark, J. J. Heyd, E. N. Brothers, K. N. Kudin, 
 V. N. Staroverov, T. A. Keith, R. Kobayashi, J. Normand, 
 K. Raghavachari, A. P. Rendell, J. C. Burant, S. S. Iyengar, 
 J. Tomasi, M. Cossi, J. M. Millam, M. Klene, C. Adamo, R. Cammi, 
 J. W. Ochterski, R. L. Martin, K. Morokuma, O. Farkas, 
 J. B. Foresman, and D. J. Fox, Gaussian, Inc., Wallingford CT, 2019.
 
 ******************************************
 Gaussian 16:  ES64L-G16RevC.01  3-Jul-2019
                14-Apr-2021 
 ******************************************
 %NprocShared=32
 Will use up to   32 processors via shared memory.
 %Mem=1194000MB
 %chk=NM2CA_carboxy.DSDPBEP86_AUG-cc-PVTZ.chk
 ----------------------------------------------------------------------
 # DSDPBEP86/AUG-cc-PVTZ SCF=Tight INT(grid=ultrafine) MaxDisk=1400000M
 B
 ----------------------------------------------------------------------
 1/38=1,172=1/1;
 2/12=2,17=6,18=5,40=1/2;
 3/5=16,6=1,7=10,11=9,25=1,30=1,74=-77,75=-5/1,2,3;
 4//1;
 5/5=2,32=2,38=5/2;
 8/10=1/1;
 9/16=-3/6;
 6/7=2,8=2,9=2,10=2/1;
 99/5=1,9=1/99;
 -----------------------------------
 NM2CA_carboxy.DSDPBEP86_AUG-cc-PVTZ
 -----------------------------------
 Symbolic Z-matrix:
 Charge = -1 Multiplicity = 1
 C                    -5.27434   1.07588   0.35144 
 N                    -3.96719   0.62321   0.2336 
 C                    -2.90526   1.36128  -0.17934 
 O                    -2.90584   2.52047  -0.54024 
 O                    -1.79096   0.59746  -0.12696 
 C                    -0.60681   1.11998  -0.71941 
 C                    -5.68268   2.39245   0.08431 
 C                    -7.01413   2.75974   0.23171 
 C                    -7.97567   1.82301   0.63567 
 C                    -7.55267   0.5226    0.90863 
 C                    -6.22974   0.14231   0.77475 
 H                    -3.80321  -0.40986   0.40192 
 H                     0.206     0.84657  -0.04425 
 H                    -0.67671   2.20759  -0.77539 
 H                    -4.95441   3.12128  -0.23408 
 H                    -5.9317   -0.88253   1.00188 
 C                    -9.42861   2.14759   0.83414 
 C                    -7.36416   4.18789  -0.10567 
 H                    -8.27453  -0.21766   1.23006 
 F                    -9.93587   2.9195   -0.14126 
 F                    -9.67087   2.78529   1.99582 
 F                    -10.18465   1.03477   0.86286 
 F                    -6.28493   4.98552  -0.1066 
 F                    -8.23023   4.72881   0.76645 
 F                    -7.91565   4.30497  -1.32711 
 O                    -3.543    -2.00978   0.47882 
 C                    -4.26975  -2.94187   0.92366 
 O                    -5.40386  -2.83637   1.42199 
 C                    -3.68051  -4.36434   0.84374 
 C                    -2.33004  -4.45325   0.14555 
 H                    -4.42594  -4.99423   0.34851 
 H                    -3.61571  -4.73802   1.87112 
 H                    -2.40226  -4.09346  -0.88257 
 H                    -1.95443  -5.48171   0.1279 
 H                    -1.59556  -3.82129   0.6471 
 C                    -0.39931   0.5067   -2.09642 
 H                    -0.29154  -0.57608  -1.984 
 H                     0.54753   0.88728  -2.4964 
 C                    -1.54654   0.81787  -3.05397 
 H                    -2.47951   0.37772  -2.69504 
 H                    -1.70333   1.89493  -3.14805 
 H                    -1.35054   0.40838  -4.04745 
 
                          Input orientation:                          
 ---------------------------------------------------------------------
 Center     Atomic      Atomic             Coordinates (Angstroms)
 Number     Number       Type             X           Y           Z
 ---------------------------------------------------------------------
      1          6           0       -5.274335    1.075883    0.351443
      2          7           0       -3.967192    0.623207    0.233596
      3          6           0       -2.905262    1.361275   -0.179341
      4          8           0       -2.905841    2.520465   -0.540243
      5          8           0       -1.790960    0.597457   -0.126964
      6          6           0       -0.606814    1.119984   -0.719406
      7          6           0       -5.682684    2.392445    0.084310
      8          6           0       -7.014125    2.759742    0.231709
      9          6           0       -7.975670    1.823012    0.635666
     10          6           0       -7.552670    0.522603    0.908627
     11          6           0       -6.229736    0.142312    0.774746
     12          1           0       -3.803206   -0.409860    0.401917
     13          1           0        0.205996    0.846573   -0.044252
     14          1           0       -0.676709    2.207593   -0.775390
     15          1           0       -4.954408    3.121281   -0.234078
     16          1           0       -5.931700   -0.882526    1.001877
     17          6           0       -9.428614    2.147587    0.834136
     18          6           0       -7.364160    4.187894   -0.105674
     19          1           0       -8.274526   -0.217658    1.230062
     20          9           0       -9.935871    2.919497   -0.141262
     21          9           0       -9.670868    2.785291    1.995819
     22          9           0      -10.184649    1.034772    0.862861
     23          9           0       -6.284929    4.985520   -0.106597
     24          9           0       -8.230235    4.728807    0.766448
     25          9           0       -7.915650    4.304971   -1.327107
     26          8           0       -3.542995   -2.009776    0.478823
     27          6           0       -4.269753   -2.941867    0.923656
     28          8           0       -5.403865   -2.836368    1.421995
     29          6           0       -3.680506   -4.364344    0.843742
     30          6           0       -2.330042   -4.453247    0.145555
     31          1           0       -4.425937   -4.994230    0.348513
     32          1           0       -3.615714   -4.738015    1.871123
     33          1           0       -2.402260   -4.093455   -0.882568
     34          1           0       -1.954432   -5.481709    0.127896
     35          1           0       -1.595557   -3.821290    0.647098
     36          6           0       -0.399308    0.506704   -2.096424
     37          1           0       -0.291542   -0.576076   -1.984005
     38          1           0        0.547535    0.887285   -2.496404
     39          6           0       -1.546544    0.817866   -3.053966
     40          1           0       -2.479513    0.377719   -2.695044
     41          1           0       -1.703326    1.894932   -3.148047
     42          1           0       -1.350542    0.408383   -4.047445
 ---------------------------------------------------------------------
                    Distance matrix (angstroms):
                    1          2          3          4          5
     1  C    0.000000
     2  N    1.388318   0.000000
     3  C    2.444522   1.357555   0.000000
     4  O    2.914050   2.307570   1.214072   0.000000
     5  O    3.548474   2.206049   1.351973   2.260911   0.000000
     6  C    4.788989   3.528050   2.373343   2.697957   1.423455
     7  C    1.404082   2.468887   2.974373   2.849090   4.290936
     8  C    2.424167   3.721369   4.359751   4.187024   5.664413
     9  C    2.817125   4.203461   5.156207   5.250940   6.350923
    10  C    2.409851   3.649855   4.846179   5.261530   5.854516
    11  C    1.401260   2.375544   3.667190   4.293377   4.552249
    12  H    2.091459   1.059458   2.069078   3.206203   2.311609
    13  H    5.499381   4.188387   3.156437   3.568115   2.014133
    14  H    4.867102   3.788879   2.457229   2.263230   2.062656
    15  H    2.151474   2.726479   2.701780   2.156698   4.048279
    16  H    2.165770   2.591675   3.948322   4.807734   4.539863
    17  C    4.317357   5.701887   6.648274   6.676416   7.852412
    18  C    3.776365   4.935736   5.279864   4.779726   6.629649
    19  H    3.383247   4.500347   5.771346   6.281248   6.674021
    20  F    5.037022   6.406138   7.201317   7.052641   8.469454
    21  F    4.995553   6.349170   7.247935   7.229615   8.449010
    22  F    4.937045   6.262757   7.360860   7.560227   8.463156
    23  F    4.064032   4.951506   4.956066   4.205090   6.281024
    24  F    4.717354   5.942509   6.371038   5.910447   7.702629
    25  F    4.496786   5.619742   5.923402   5.376040   7.259327
    26  O    3.540488   2.678186   3.493403   4.686954   3.199104
    27  C    4.180781   3.643828   4.647093   5.817244   4.446913
    28  O    4.058148   3.930010   5.140769   6.227854   5.219531
    29  C    5.690230   5.032905   5.867743   7.065133   5.397418
    30  C    6.267577   5.334641   5.851932   7.030969   5.086697
    31  H    6.129116   5.637309   6.556183   7.718240   6.199689
    32  H    6.233929   5.616737   6.473831   7.681415   5.982419
    33  H    6.040998   5.093303   5.522828   6.641892   4.790541
    34  H    7.353485   6.429026   6.915555   8.086184   6.086701
    35  H    6.132138   5.054620   5.409003   6.583652   4.490287
    36  C    5.484697   4.262905   3.268838   3.572064   2.413235
    37  H    5.745565   4.457178   3.720440   4.302043   2.659706
    38  H    6.483824   5.282556   4.185123   4.291812   3.341677
    39  C    5.055671   4.087235   3.225659   3.326460   2.945447
    40  H    4.192797   3.293992   2.734484   3.068596   2.667850
    41  H    5.066496   4.263553   3.246946   2.939044   3.289083
    42  H    5.932278   5.021984   4.276375   4.379534   3.949670
                    6          7          8          9         10
     6  C    0.000000
     7  C    5.294296   0.000000
     8  C    6.681846   1.389017   0.000000
     9  C    7.525324   2.426114   1.401860   0.000000
    10  C    7.159069   2.769956   2.398549   1.394453   0.000000
    11  C    5.899626   2.416416   2.785874   2.427422   1.383004
    12  H    3.716815   3.389134   4.515014   4.738123   3.896758
    13  H    1.091443   6.089565   7.474391   8.267731   7.823671
    14  H    1.091290   5.082621   6.440649   7.444045   7.276946
    15  H    4.810645   1.078405   2.142453   3.401467   3.848359
    16  H    5.943675   3.410187   3.876972   3.410551   2.147237
    17  C    9.016297   3.828079   2.562695   1.501928   2.482999
    18  C    7.446506   2.467203   1.508632   2.552684   3.807716
    19  H    8.023934   3.852665   3.383818   2.146382   1.082766
    20  F    9.518603   4.291651   2.949784   2.376612   3.539352
    21  F    9.607433   4.440023   3.189203   2.376909   3.284586
    22  F    9.708025   4.766246   3.664163   2.356381   2.681739
    23  F    6.896295   2.668928   2.366488   3.662105   4.749260
    24  F    8.564339   3.523338   2.375308   2.919855   4.262800
    25  F    7.995782   3.261286   2.372844   3.164838   4.408692
    26  O    4.455593   4.910546   5.904075   5.862036   4.761845
    27  C    5.710991   5.581735   6.365431   6.043246   4.772873
    28  O    6.576474   5.404409   5.943582   5.379807   4.020398
    29  C    6.478338   7.087993   7.889245   7.534925   6.235392
    30  C    5.897337   7.622825   8.600887   8.456048   7.253772
    31  H    7.287645   7.497479   8.175356   7.691414   6.365975
    32  H    7.076756   7.636003   8.393643   7.973873   6.640793
    33  H    5.516357   7.332322   8.335300   8.268767   7.144445
    34  H    6.790902   8.712294   9.671234   9.480088   8.246306
    35  H    5.221220   7.458676   8.534835   8.518457   7.377330
    36  C    1.521627   6.018777   7.365608   8.160774   7.758942
    37  H    2.138978   6.492646   7.824973   8.465466   7.892933
    38  H    2.131758   6.909502   8.253933   9.128552   8.794348
    39  C    2.534667   5.425471   6.667907   7.480465   7.201588
    40  H    2.821542   4.695129   5.899375   6.587126   6.224497
    41  H    2.775100   5.150820   6.354151   7.325568   7.249464
    42  H    3.483583   6.306771   7.477716   8.235595   7.939905
                   11         12         13         14         15
    11  C    0.000000
    12  H    2.516335   0.000000
    13  H    6.525748   4.225091   0.000000
    14  H    6.124085   4.244066   1.779356   0.000000
    15  H    3.393883   3.768118   5.642703   4.407556   0.000000
    16  H    1.091195   2.261383   6.461848   6.349996   4.302691
    17  C    3.775907   6.194559   9.761655   8.898877   4.701881
    18  C    4.292876   5.837583   8.274989   7.006576   2.638381
    19  H    2.125572   4.551424   8.641511   8.223776   4.931065
    20  F    4.720939   6.999231  10.351999   9.308115   4.986412
    21  F    4.507521   6.868695  10.270002   9.429115   5.227841
    22  F    4.055316   6.559134  10.431863   9.719068   5.736917
    23  F    4.923055   5.960508   7.698498   6.294147   2.293888
    24  F    5.003798   6.792449   9.321961   8.111075   3.783680
    25  F    4.958611   6.490867   8.920054   7.556828   3.371170
    26  O    3.455087   1.622761   4.742075   5.251175   5.369176
    27  C    3.657303   2.626963   5.943186   6.504895   6.210544
    28  O    3.158090   3.080683   6.869096   7.253692   6.199852
    29  C    5.178154   3.980980   6.561028   7.405048   7.669361
    30  C    6.059922   4.311022   5.878402   6.924481   8.025266
    31  H    5.460717   4.626780   7.464855   8.196715   8.153540
    32  H    5.643824   4.574565   7.032905   7.992700   8.245757
    33  H    5.944576   4.145049   5.648863   6.533929   7.680262
    34  H    7.094099   5.405248   6.689113   7.846902   9.118241
    35  H    6.099348   4.070833   5.050990   6.262203   7.762579
    36  C    6.509246   4.320685   2.166406   2.171429   5.572547
    37  H    6.587028   4.248769   2.456444   3.059072   6.202823
    38  H    7.562196   5.386260   2.476158   2.490759   6.354545
    39  C    6.086682   4.306154   3.482901   2.807110   4.987086
    40  H    5.114590   3.458845   3.802431   3.206807   4.439436
    41  H    6.240863   4.724808   3.791848   2.604074   4.534830
    42  H    6.865192   5.146058   4.317450   3.794411   5.906728
                   16         17         18         19         20
    16  H    0.000000
    17  C    4.630132   0.000000
    18  C    5.384029   3.050913   0.000000
    19  H    2.446007   2.661402   4.692744   0.000000
    20  F    5.638752   1.343338   2.867716   3.805567   0.000000
    21  F    5.331245   1.347168   3.421179   3.399097   2.157627
    22  F    4.667218   1.345649   4.339977   2.313436   2.149963
    23  F    5.982261   4.338386   1.341993   5.728718   4.195119
    24  F    6.068422   2.846646   1.342859   4.968341   2.647024
    25  F    6.022487   3.407981   1.345268   5.207886   2.721591
    26  O    2.692618   7.214598   7.304385   5.115020   8.096363
    27  C    2.647465   7.247372   7.840176   4.853185   8.221589
    28  O    2.067029   6.433039   7.450959   3.890396   7.490850
    29  C    4.149209   8.685970   9.360099   6.200747   9.651640
    30  C    5.143469   9.717760  10.003738   7.379245  10.596615
    31  H    4.427225   8.733164   9.651468   6.197129   9.655378
    32  H    4.580849   9.070648   9.880811   6.522969  10.130724
    33  H    5.130122   9.553394   9.685285   7.346327  10.319221
    34  H    6.142881  10.703659  11.082460   8.298710  11.591206
    35  H    5.250175   9.849835   9.899013   7.611480  10.752700
    36  C    6.491286   9.633745   8.125478   8.579584  10.029469
    37  H    6.389115   9.942150   8.731864   8.613171  10.422467
    38  H    7.573024  10.592658   8.899692   9.640342  10.935190
    39  C    6.210539   8.888899   7.341265   8.043068   9.125870
    40  H    5.212776   7.992343   6.714316   7.024465   8.281287
    41  H    6.543340   8.694924   6.823397   8.173833   8.824131
    42  H    6.938956   9.597391   8.123168   8.728434   9.760729
                   21         22         23         24         25
    21  F    0.000000
    22  F    2.147530   0.000000
    23  F    4.552553   5.635252   0.000000
    24  F    2.713674   4.180302   2.147632   0.000000
    25  F    4.053646   4.542963   2.147566   2.159068   0.000000
    26  O    7.927469   7.316305   7.536251   8.213491   7.890343
    27  C    7.944930   7.127646   8.244138   8.634197   8.418738
    28  O    7.080935   6.176913   8.018404   8.102468   8.053903
    29  C    9.398351   8.453087   9.752236  10.168156   9.889694
    30  C   10.474141   9.608731  10.236944  10.931967  10.491622
    31  H    9.525958   8.353213  10.161613  10.449153  10.072782
    32  H    9.658187   8.802986  10.275369  10.589373  10.511599
    33  H   10.413209   9.482131   9.904799  10.701255  10.056274
    34  H   11.461928  10.523362  11.330095  12.002003  11.551288
    35  H   10.520295   9.869163  10.005906  10.823001  10.482231
    36  C   10.387503  10.236655   7.658964   9.345887   8.456599
    37  H   10.728911  10.419839   8.389082   9.936278   9.076517
    38  H   11.322467  11.246607   8.318009  10.121894   9.201812
    39  C    9.766050   9.487119   6.964813   8.634972   7.463743
    40  H    8.917184   8.512316   6.512532   7.999043   6.844424
    41  H    9.525430   9.421258   6.308188   8.121248   6.907755
    42  H   10.554552  10.126446   7.799272   9.442977   8.104584
                   26         27         28         29         30
    26  O    0.000000
    27  C    1.262873   0.000000
    28  O    2.244029   1.243253   0.000000
    29  C    2.386643   1.541765   2.374668   0.000000
    30  C    2.748249   2.579184   3.700267   1.522866   0.000000
    31  H    3.115050   2.137143   2.600975   1.094384   2.174082
    32  H    3.063834   2.133450   2.648671   1.095144   2.170629
    33  H    2.737952   2.841854   3.987594   2.165050   1.091651
    34  H    3.834188   3.527711   4.535538   2.177216   1.095047
    35  H    2.665036   2.828638   4.009207   2.163467   1.091048
    36  C    4.779889   5.999490   6.971441   6.567948   5.775407
    37  H    4.323536   5.466043   6.545655   5.816545   4.870622
    38  H    5.829011   7.040276   8.039813   7.524128   6.616772
    39  C    4.945904   6.113341   6.947415   6.826508   6.215740
    40  H    4.111515   5.226816   5.986000   6.037594   5.606208
    41  H    5.637846   6.823485   7.547481   7.682587   7.179134
    42  H    5.580452   6.667670   7.541393   7.220205   6.494314
                   31         32         33         34         35
    31  H    0.000000
    32  H    1.743689   0.000000
    33  H    2.534211   3.077457   0.000000
    34  H    2.528764   2.520273   1.774496   0.000000
    35  H    3.078310   2.533704   1.750635   1.776331   0.000000
    36  C    7.242358   7.320777   5.162047   6.574732   5.262078
    37  H    6.484902   6.575247   4.247382   5.593797   4.376594
    38  H    8.211041   8.249360   6.009453   7.328770   6.053521
    39  C    7.324495   7.707514   5.437673   7.069318   5.934816
    40  H    6.473766   6.950652   4.825188   6.525151   5.439022
    41  H    8.191404   8.534945   6.440628   8.075251   6.862210
    42  H    7.613852   8.163692   5.602598   7.245091   6.323678
                   36         37         38         39         40
    36  C    0.000000
    37  H    1.093922   0.000000
    38  H    1.096055   1.762960   0.000000
    39  C    1.526387   2.159379   2.168147   0.000000
    40  H    2.168464   2.490485   3.076058   1.092239   0.000000
    41  H    2.175672   3.074737   2.550758   1.092476   1.763409
    42  H    2.172785   2.519608   2.497553   1.092289   1.761961
                   41         42
    41  H    0.000000
    42  H    1.772907   0.000000
 Stoichiometry    C15H16F6NO4(1-)
 Framework group  C1[X(C15H16F6NO4)]
 Deg. of freedom   120
 Full point group                 C1      NOp   1
 Largest Abelian subgroup         C1      NOp   1
 Largest concise Abelian subgroup C1      NOp   1
                         Standard orientation:                         
 ---------------------------------------------------------------------
 Center     Atomic      Atomic             Coordinates (Angstroms)
 Number     Number       Type             X           Y           Z
 ---------------------------------------------------------------------
      1          6           0        0.080098   -0.023323   -0.308724
      2          7           0        1.410286   -0.382860   -0.478313
      3          6           0        1.881236   -1.650366   -0.599101
      4          8           0        1.244620   -2.683199   -0.554961
      5          8           0        3.218897   -1.606857   -0.790411
      6          6           0        3.932582   -2.836928   -0.728729
      7          6           0       -0.986845   -0.935155   -0.268216
      8          6           0       -2.290093   -0.486030   -0.097336
      9          6           0       -2.563603    0.880847    0.051155
     10          6           0       -1.494843    1.774886   -0.003123
     11          6           0       -0.192320    1.345225   -0.180679
     12          1           0        2.125594    0.396867   -0.425290
     13          1           0        4.676606   -2.786353   -1.525672
     14          1           0        3.249707   -3.664759   -0.926948
     15          1           0       -0.789637   -1.990080   -0.374050
     16          1           0        0.620198    2.072308   -0.223959
     17          6           0       -3.945397    1.444108    0.221947
     18          6           0       -3.367503   -1.540333   -0.037320
     19          1           0       -1.680547    2.836531    0.100827
     20          9           0       -4.701262    0.739218    1.080058
     21          9           0       -4.633347    1.508790   -0.934514
     22          9           0       -3.911400    2.702090    0.698493
     23          9           0       -2.960393   -2.708430   -0.557663
     24          9           0       -4.472158   -1.191299   -0.716425
     25          9           0       -3.752551   -1.807621    1.223649
     26          8           0        3.257690    1.532401   -0.175741
     27          6           0        3.166633    2.791368   -0.136259
     28          8           0        2.138038    3.474215   -0.282516
     29          6           0        4.477475    3.563050    0.115217
     30          6           0        5.691923    2.682237    0.376764
     31          1           0        4.294148    4.245253    0.951080
     32          1           0        4.639357    4.204387   -0.757606
     33          1           0        5.532197    2.055157    1.255945
     34          1           0        6.594787    3.280891    0.536698
     35          1           0        5.864552    2.006373   -0.462159
     36          6           0        4.600859   -2.983498    0.630415
     37          1           0        5.305569   -2.157561    0.764119
     38          1           0        5.185443   -3.910597    0.621074
     39          6           0        3.594650   -2.998709    1.778095
     40          1           0        3.060195   -2.047921    1.835937
     41          1           0        2.851793   -3.788374    1.643575
     42          1           0        4.094967   -3.153590    2.736629
 ---------------------------------------------------------------------
 Rotational constants (GHZ):           0.2584008           0.1066010           0.0800612
 Standard basis: Aug-CC-pVTZ (5D, 7F)
 There are  1830 symmetry adapted cartesian basis functions of A   symmetry.
 There are  1564 symmetry adapted basis functions of A   symmetry.
  1564 basis functions,  2304 primitive gaussians,  1830 cartesian basis functions
   100 alpha electrons      100 beta electrons
       nuclear repulsion energy      2520.6387704545 Hartrees.
 NAtoms=   42 NActive=   42 NUniq=   42 SFac= 1.00D+00 NAtFMM=   60 NAOKFM=F Big=F
 Integral buffers will be    131072 words long.
 Regular integral format.
 Two-electron integral symmetry is turned on.
 Nuclear repulsion after empirical dispersion term =     2520.6087910271 Hartrees.
 One-electron integrals computed using PRISM.
 NBasis=  1564 RedAO= T EigKep=  1.13D-06  NBF=  1564
 NBsUse=  1559 1.00D-06 EigRej=  9.52D-07 NBFU=  1559
 ExpMin= 2.53D-02 ExpMax= 1.95D+04 ExpMxC= 6.65D+02 IAcc=3 IRadAn=         5 AccDes= 0.00D+00
 Harris functional with IExCor= 1004 and IRadAn=       5 diagonalized for initial guess.
 HarFok:  IExCor= 1004 AccDes= 0.00D+00 IRadAn=         5 IDoV= 1 UseB2=F ITyADJ=14
 ICtDFT=  3500011 ScaDFX=  1.000000  1.000000  1.000000  1.000000
 FoFCou: FMM=F IPFlag=           0 FMFlag=      100000 FMFlg1=           0
         NFxFlg=           0 DoJE=T BraDBF=F KetDBF=T FulRan=T
         wScrn=  0.000000 ICntrl=       500 IOpCl=  0 I1Cent=   200000004 NGrid=           0
         NMat0=    1 NMatS0=      1 NMatT0=    0 NMatD0=    1 NMtDS0=    0 NMtDT0=    0
 Petite list used in FoFCou.
 Requested convergence on RMS density matrix=1.00D-08 within 128 cycles.
 Requested convergence on MAX density matrix=1.00D-06.
 Requested convergence on             energy=1.00D-06.
 No special actions if energy rises.
 SCF Done:  E(RDSDPBEP86) =  -1531.73010483     A.U. after   14 cycles
            NFock= 14  Conv=0.32D-08     -V/T= 2.0031
 DoSCS=T DFT=T ScalE2(SS,OS)=  0.220000  0.520000
 ExpMin= 2.53D-02 ExpMax= 1.95D+04 ExpMxC= 6.65D+02 IAcc=3 IRadAn=         5 AccDes= 0.00D+00
 HarFok:  IExCor=  205 AccDes= 0.00D+00 IRadAn=         5 IDoV=-2 UseB2=F ITyADJ=14
 ICtDFT= 12500011 ScaDFX=  1.000000  1.000000  1.000000  1.000000
 GSVD:  LWork=        -884 too small for GESVD, short by        3770 words or        3770 for optimal perf.
 Range of M.O.s used for correlation:    27  1559
 NBasis=  1564 NAE=   100 NBE=   100 NFC=    26 NFV=     0
 NROrb=   1533 NOA=    74 NOB=    74 NVA=  1459 NVB=  1459

 **** Warning!!: The largest alpha MO coefficient is  0.10929968D+03

 DoSCS=T DFT=T ScalE2(SS,OS)=  0.220000  0.520000
 Disk-based method using OVN memory for 25 occupieds at a time.
 Estimated scratch disk usage=178564923793 words.
 Actual    scratch disk usage=130947961745 words.
 JobTyp=1 Pass  1:  I=   1 to  25 NPSUse= 32 ParTrn=T ParDer=T DoDerP=F.
 (rs|ai) integrals will be sorted in core.
 JobTyp=1 Pass  2:  I=  26 to  50 NPSUse= 32 ParTrn=T ParDer=T DoDerP=F.
 (rs|ai) integrals will be sorted in core.
 JobTyp=1 Pass  3:  I=  51 to  74 NPSUse= 32 ParTrn=T ParDer=T DoDerP=F.
 (rs|ai) integrals will be sorted in core.
 Spin components of T(2) and E(2):
     alpha-alpha T2 =       0.2461333476D+00 E2=     -0.1677234867D+00
     alpha-beta  T2 =       0.1275680071D+01 E2=     -0.2238136570D+01
     beta-beta   T2 =       0.2461333476D+00 E2=     -0.1677234867D+00
 E2(DSDPBEP86) =    -0.2573583544D+01 E(DSDPBEP86) =    -0.15343036883716D+04

 **********************************************************************

            Population analysis using the SCF Density.

 **********************************************************************

 Orbital symmetries:
       Occupied  (A) (A) (A) (A) (A) (A) (A) (A) (A) (A) (A) (A)
                 (A) (A) (A) (A) (A) (A) (A) (A) (A) (A) (A) (A)
                 (A) (A) (A) (A) (A) (A) (A) (A) (A) (A) (A) (A)
                 (A) (A) (A) (A) (A) (A) (A) (A) (A) (A) (A) (A)
                 (A) (A) (A) (A) (A) (A) (A) (A) (A) (A) (A) (A)
                 (A) (A) (A) (A) (A) (A) (A) (A) (A) (A) (A) (A)
                 (A) (A) (A) (A) (A) (A) (A) (A) (A) (A) (A) (A)
                 (A) (A) (A) (A) (A) (A) (A) (A) (A) (A) (A) (A)
                 (A) (A) (A) (A)
       Virtual   (A) (A) (A) (A) (A) (A) (A) (A) (A) (A) (A) (A)
                 (A) (A) (A) (A) (A) (A) (A) (A) (A) (A) (A) (A)
                 (A) (A) (A) (A) (A) (A) (A) (A) (A) (A) (A) (A)
                 (A) (A) (A) (A) (A) (A) (A) (A) (A) (A) (A) (A)
                 (A) (A) (A) (A) (A) (A) (A) (A) (A) (A) (A) (A)
                 (A) (A) (A) (A) (A) (A) (A) (A) (A) (A) (A) (A)
                 (A) (A) (A) (A) (A) (A) (A) (A) (A) (A) (A) (A)
                 (A) (A) (A) (A) (A) (A) (A) (A) (A) (A) (A) (A)
                 (A) (A) (A) (A) (A) (A) (A) (A) (A) (A) (A) (A)
                 (A) (A) (A) (A) (A) (A) (A) (A) (A) (A) (A) (A)
                 (A) (A) (A) (A) (A) (A) (A) (A) (A) (A) (A) (A)
                 (A) (A) (A) (A) (A) (A) (A) (A) (A) (A) (A) (A)
                 (A) (A) (A) (A) (A) (A) (A) (A) (A) (A) (A) (A)
                 (A) (A) (A) (A) (A) (A) (A) (A) (A) (A) (A) (A)
                 (A) (A) (A) (A) (A) (A) (A) (A) (A) (A) (A) (A)
                 (A) (A) (A) (A) (A) (A) (A) (A) (A) (A) (A) (A)
                 (A) (A) (A) (A) (A) (A) (A) (A) (A) (A) (A) (A)
                 (A) (A) (A) (A) (A) (A) (A) (A) (A) (A) (A) (A)
                 (A) (A) (A) (A) (A) (A) (A) (A) (A) (A) (A) (A)
                 (A) (A) (A) (A) (A) (A) (A) (A) (A) (A) (A) (A)
                 (A) (A) (A) (A) (A) (A) (A) (A) (A) (A) (A) (A)
                 (A) (A) (A) (A) (A) (A) (A) (A) (A) (A) (A) (A)
                 (A) (A) (A) (A) (A) (A) (A) (A) (A) (A) (A) (A)
                 (A) (A) (A) (A) (A) (A) (A) (A) (A) (A) (A) (A)
                 (A) (A) (A) (A) (A) (A) (A) (A) (A) (A) (A) (A)
                 (A) (A) (A) (A) (A) (A) (A) (A) (A) (A) (A) (A)
                 (A) (A) (A) (A) (A) (A) (A) (A) (A) (A) (A) (A)
                 (A) (A) (A) (A) (A) (A) (A) (A) (A) (A) (A) (A)
                 (A) (A) (A) (A) (A) (A) (A) (A) (A) (A) (A) (A)
                 (A) (A) (A) (A) (A) (A) (A) (A) (A) (A) (A) (A)
                 (A) (A) (A) (A) (A) (A) (A) (A) (A) (A) (A) (A)
                 (A) (A) (A) (A) (A) (A) (A) (A) (A) (A) (A) (A)
                 (A) (A) (A) (A) (A) (A) (A) (A) (A) (A) (A) (A)
                 (A) (A) (A) (A) (A) (A) (A) (A) (A) (A) (A) (A)
                 (A) (A) (A) (A) (A) (A) (A) (A) (A) (A) (A) (A)
                 (A) (A) (A) (A) (A) (A) (A) (A) (A) (A) (A) (A)
                 (A) (A) (A) (A) (A) (A) (A) (A) (A) (A) (A) (A)
                 (A) (A) (A) (A) (A) (A) (A) (A) (A) (A) (A) (A)
                 (A) (A) (A) (A) (A) (A) (A) (A) (A) (A) (A) (A)
                 (A) (A) (A) (A) (A) (A) (A) (A) (A) (A) (A) (A)
                 (A) (A) (A) (A) (A) (A) (A) (A) (A) (A) (A) (A)
                 (A) (A) (A) (A) (A) (A) (A) (A) (A) (A) (A) (A)
                 (A) (A) (A) (A) (A) (A) (A) (A) (A) (A) (A) (A)
                 (A) (A) (A) (A) (A) (A) (A) (A) (A) (A) (A) (A)
                 (A) (A) (A) (A) (A) (A) (A) (A) (A) (A) (A) (A)
                 (A) (A) (A) (A) (A) (A) (A) (A) (A) (A) (A) (A)
                 (A) (A) (A) (A) (A) (A) (A) (A) (A) (A) (A) (A)
                 (A) (A) (A) (A) (A) (A) (A) (A) (A) (A) (A) (A)
                 (A) (A) (A) (A) (A) (A) (A) (A) (A) (A) (A) (A)
                 (A) (A) (A) (A) (A) (A) (A) (A) (A) (A) (A) (A)
                 (A) (A) (A) (A) (A) (A) (A) (A) (A) (A) (A) (A)
                 (A) (A) (A) (A) (A) (A) (A) (A) (A) (A) (A) (A)
                 (A) (A) (A) (A) (A) (A) (A) (A) (A) (A) (A) (A)
                 (A) (A) (A) (A) (A) (A) (A) (A) (A) (A) (A) (A)
                 (A) (A) (A) (A) (A) (A) (A) (A) (A) (A) (A) (A)
                 (A) (A) (A) (A) (A) (A) (A) (A) (A) (A) (A) (A)
                 (A) (A) (A) (A) (A) (A) (A) (A) (A) (A) (A) (A)
                 (A) (A) (A) (A) (A) (A) (A) (A) (A) (A) (A) (A)
                 (A) (A) (A) (A) (A) (A) (A) (A) (A) (A) (A) (A)
                 (A) (A) (A) (A) (A) (A) (A) (A) (A) (A) (A) (A)
                 (A) (A) (A) (A) (A) (A) (A) (A) (A) (A) (A) (A)
                 (A) (A) (A) (A) (A) (A) (A) (A) (A) (A) (A) (A)
                 (A) (A) (A) (A) (A) (A) (A) (A) (A) (A) (A) (A)
                 (A) (A) (A) (A) (A) (A) (A) (A) (A) (A) (A) (A)
                 (A) (A) (A) (A) (A) (A) (A) (A) (A) (A) (A) (A)
                 (A) (A) (A) (A) (A) (A) (A) (A) (A) (A) (A) (A)
                 (A) (A) (A) (A) (A) (A) (A) (A) (A) (A) (A) (A)
                 (A) (A) (A) (A) (A) (A) (A) (A) (A) (A) (A) (A)
                 (A) (A) (A) (A) (A) (A) (A) (A) (A) (A) (A) (A)
                 (A) (A) (A) (A) (A) (A) (A) (A) (A) (A) (A) (A)
                 (A) (A) (A) (A) (A) (A) (A) (A) (A) (A) (A) (A)
                 (A) (A) (A) (A) (A) (A) (A) (A) (A) (A) (A) (A)
                 (A) (A) (A) (A) (A) (A) (A) (A) (A) (A) (A) (A)
                 (A) (A) (A) (A) (A) (A) (A) (A) (A) (A) (A) (A)
                 (A) (A) (A) (A) (A) (A) (A) (A) (A) (A) (A) (A)
                 (A) (A) (A) (A) (A) (A) (A) (A) (A) (A) (A) (A)
                 (A) (A) (A) (A) (A) (A) (A) (A) (A) (A) (A) (A)
                 (A) (A) (A) (A) (A) (A) (A) (A) (A) (A) (A) (A)
                 (A) (A) (A) (A) (A) (A) (A) (A) (A) (A) (A) (A)
                 (A) (A) (A) (A) (A) (A) (A) (A) (A) (A) (A) (A)
                 (A) (A) (A) (A) (A) (A) (A) (A) (A) (A) (A) (A)
                 (A) (A) (A) (A) (A) (A) (A) (A) (A) (A) (A) (A)
                 (A) (A) (A) (A) (A) (A) (A) (A) (A) (A) (A) (A)
                 (A) (A) (A) (A) (A) (A) (A) (A) (A) (A) (A) (A)
                 (A) (A) (A) (A) (A) (A) (A) (A) (A) (A) (A) (A)
                 (A) (A) (A) (A) (A) (A) (A) (A) (A) (A) (A) (A)
                 (A) (A) (A) (A) (A) (A) (A) (A) (A) (A) (A) (A)
                 (A) (A) (A) (A) (A) (A) (A) (A) (A) (A) (A) (A)
                 (A) (A) (A) (A) (A) (A) (A) (A) (A) (A) (A) (A)
                 (A) (A) (A) (A) (A) (A) (A) (A) (A) (A) (A) (A)
                 (A) (A) (A) (A) (A) (A) (A) (A) (A) (A) (A) (A)
                 (A) (A) (A) (A) (A) (A) (A) (A) (A) (A) (A) (A)
                 (A) (A) (A) (A) (A) (A) (A) (A) (A) (A) (A) (A)
                 (A) (A) (A) (A) (A) (A) (A) (A) (A) (A) (A) (A)
                 (A) (A) (A) (A) (A) (A) (A) (A) (A) (A) (A) (A)
                 (A) (A) (A) (A) (A) (A) (A) (A) (A) (A) (A) (A)
                 (A) (A) (A) (A) (A) (A) (A) (A) (A) (A) (A) (A)
                 (A) (A) (A) (A) (A) (A) (A) (A) (A) (A) (A) (A)
                 (A) (A) (A) (A) (A) (A) (A) (A) (A) (A) (A) (A)
                 (A) (A) (A) (A) (A) (A) (A) (A) (A) (A) (A) (A)
                 (A) (A) (A) (A) (A) (A) (A) (A) (A) (A) (A) (A)
                 (A) (A) (A) (A) (A) (A) (A) (A) (A) (A) (A) (A)
                 (A) (A) (A) (A) (A) (A) (A) (A) (A) (A) (A) (A)
                 (A) (A) (A) (A) (A) (A) (A) (A) (A) (A) (A) (A)
                 (A) (A) (A) (A) (A) (A) (A) (A) (A) (A) (A) (A)
                 (A) (A) (A) (A) (A) (A) (A) (A) (A) (A) (A) (A)
                 (A) (A) (A) (A) (A) (A) (A) (A) (A) (A) (A) (A)
                 (A) (A) (A) (A) (A) (A) (A) (A) (A) (A) (A) (A)
                 (A) (A) (A) (A) (A) (A) (A) (A) (A) (A) (A) (A)
                 (A) (A) (A) (A) (A) (A) (A) (A) (A) (A) (A) (A)
                 (A) (A) (A) (A) (A) (A) (A) (A) (A) (A) (A) (A)
                 (A) (A) (A) (A) (A) (A) (A) (A) (A) (A) (A) (A)
                 (A) (A) (A) (A) (A) (A) (A) (A) (A) (A) (A) (A)
                 (A) (A) (A) (A) (A) (A) (A) (A) (A) (A) (A) (A)
                 (A) (A) (A) (A) (A) (A) (A) (A) (A) (A) (A) (A)
                 (A) (A) (A) (A) (A) (A) (A) (A) (A) (A) (A) (A)
                 (A) (A) (A) (A) (A) (A) (A) (A) (A) (A) (A) (A)
                 (A) (A) (A) (A) (A) (A) (A) (A) (A) (A) (A) (A)
                 (A) (A) (A) (A) (A) (A) (A) (A) (A) (A) (A) (A)
                 (A) (A) (A) (A) (A) (A) (A) (A) (A) (A) (A) (A)
                 (A) (A) (A) (A) (A) (A) (A) (A) (A) (A) (A) (A)
                 (A) (A) (A) (A) (A) (A) (A)
 The electronic state is 1-A.
 Alpha  occ. eigenvalues --  -25.62040 -25.62004 -25.61932 -25.61799 -25.61662
 Alpha  occ. eigenvalues --  -25.61466 -19.94324 -19.87875 -19.80899 -19.80061
 Alpha  occ. eigenvalues --  -14.99556 -10.99684 -10.99583 -10.87920 -10.78286
 Alpha  occ. eigenvalues --  -10.78010 -10.77468 -10.76808 -10.75815 -10.74145
 Alpha  occ. eigenvalues --  -10.73431 -10.73209 -10.71843 -10.71766 -10.68798
 Alpha  occ. eigenvalues --  -10.68650  -1.48729  -1.48236  -1.39301  -1.38964
 Alpha  occ. eigenvalues --   -1.38828  -1.38596  -1.23388  -1.13218  -1.11068
 Alpha  occ. eigenvalues --   -1.03818  -1.01134  -0.97027  -0.88087  -0.86706
 Alpha  occ. eigenvalues --   -0.85819  -0.81209  -0.79034  -0.77658  -0.75639
 Alpha  occ. eigenvalues --   -0.70107  -0.69399  -0.66241  -0.66079  -0.64878
 Alpha  occ. eigenvalues --   -0.64723  -0.64567  -0.64089  -0.63399  -0.60773
 Alpha  occ. eigenvalues --   -0.58783  -0.57371  -0.53634  -0.53455  -0.53105
 Alpha  occ. eigenvalues --   -0.52768  -0.52636  -0.51933  -0.50205  -0.50014
 Alpha  occ. eigenvalues --   -0.49412  -0.48968  -0.48079  -0.47895  -0.46988
 Alpha  occ. eigenvalues --   -0.46745  -0.46566  -0.45998  -0.45608  -0.44793
 Alpha  occ. eigenvalues --   -0.43937  -0.43879  -0.43322  -0.43172  -0.42453
 Alpha  occ. eigenvalues --   -0.39611  -0.39309  -0.38564  -0.37566  -0.37228
 Alpha  occ. eigenvalues --   -0.36309  -0.35819  -0.35730  -0.35324  -0.33696
 Alpha  occ. eigenvalues --   -0.33024  -0.31159  -0.30587  -0.29708  -0.29102
 Alpha  occ. eigenvalues --   -0.23349  -0.21467  -0.21028  -0.19954  -0.18751
 Alpha virt. eigenvalues --    0.08003   0.09092   0.09259   0.10162   0.10597
 Alpha virt. eigenvalues --    0.10751   0.11182   0.11307   0.12039   0.12124
 Alpha virt. eigenvalues --    0.12401   0.13140   0.13309   0.13326   0.13727
 Alpha virt. eigenvalues --    0.14010   0.14168   0.14517   0.14800   0.14937
 Alpha virt. eigenvalues --    0.15901   0.15967   0.16686   0.16759   0.17074
 Alpha virt. eigenvalues --    0.17664   0.17881   0.18086   0.18365   0.18758
 Alpha virt. eigenvalues --    0.18862   0.19159   0.19439   0.19549   0.19783
 Alpha virt. eigenvalues --    0.19875   0.20166   0.20384   0.20936   0.20981
 Alpha virt. eigenvalues --    0.21358   0.21827   0.21949   0.22102   0.22276
 Alpha virt. eigenvalues --    0.22793   0.23052   0.23219   0.23592   0.23838
 Alpha virt. eigenvalues --    0.24181   0.24602   0.24855   0.24992   0.25125
 Alpha virt. eigenvalues --    0.25361   0.25604   0.25886   0.26129   0.26283
 Alpha virt. eigenvalues --    0.26541   0.26791   0.27170   0.27608   0.28003
 Alpha virt. eigenvalues --    0.28332   0.28681   0.29114   0.29505   0.29712
 Alpha virt. eigenvalues --    0.30044   0.30196   0.30497   0.31152   0.31309
 Alpha virt. eigenvalues --    0.31617   0.32070   0.32259   0.32523   0.32697
 Alpha virt. eigenvalues --    0.32895   0.33123   0.33459   0.33743   0.33837
 Alpha virt. eigenvalues --    0.34019   0.34402   0.34661   0.34965   0.34978
 Alpha virt. eigenvalues --    0.35101   0.35203   0.35436   0.35770   0.36022
 Alpha virt. eigenvalues --    0.36421   0.36605   0.36862   0.37035   0.37104
 Alpha virt. eigenvalues --    0.37239   0.37548   0.37839   0.37981   0.38072
 Alpha virt. eigenvalues --    0.38283   0.38403   0.38550   0.38765   0.39016
 Alpha virt. eigenvalues --    0.39085   0.39426   0.39603   0.39760   0.40320
 Alpha virt. eigenvalues --    0.40536   0.40667   0.41071   0.41271   0.41500
 Alpha virt. eigenvalues --    0.41801   0.41896   0.42212   0.42423   0.42704
 Alpha virt. eigenvalues --    0.42783   0.43061   0.43263   0.43671   0.43918
 Alpha virt. eigenvalues --    0.44033   0.44155   0.44264   0.44591   0.44750
 Alpha virt. eigenvalues --    0.45121   0.45380   0.45707   0.45830   0.46127
 Alpha virt. eigenvalues --    0.46328   0.46578   0.46809   0.46841   0.46996
 Alpha virt. eigenvalues --    0.47206   0.47382   0.47584   0.47839   0.47970
 Alpha virt. eigenvalues --    0.48152   0.48610   0.49006   0.49080   0.49414
 Alpha virt. eigenvalues --    0.49752   0.50028   0.50147   0.50537   0.50604
 Alpha virt. eigenvalues --    0.50787   0.50872   0.51123   0.51438   0.51769
 Alpha virt. eigenvalues --    0.51983   0.52353   0.52554   0.52871   0.52918
 Alpha virt. eigenvalues --    0.53132   0.53404   0.53802   0.54028   0.54196
 Alpha virt. eigenvalues --    0.54283   0.54859   0.55007   0.55113   0.55164
 Alpha virt. eigenvalues --    0.55561   0.55630   0.55842   0.56165   0.56320
 Alpha virt. eigenvalues --    0.56680   0.56875   0.56906   0.57342   0.57394
 Alpha virt. eigenvalues --    0.57702   0.57860   0.58417   0.58688   0.58895
 Alpha virt. eigenvalues --    0.59058   0.59204   0.59438   0.59622   0.59755
 Alpha virt. eigenvalues --    0.60190   0.60548   0.60630   0.60989   0.61120
 Alpha virt. eigenvalues --    0.61366   0.61685   0.61843   0.62006   0.62313
 Alpha virt. eigenvalues --    0.62509   0.62726   0.63071   0.63230   0.63545
 Alpha virt. eigenvalues --    0.63685   0.63964   0.64083   0.64594   0.64946
 Alpha virt. eigenvalues --    0.65308   0.65391   0.65937   0.65977   0.66217
 Alpha virt. eigenvalues --    0.67121   0.67377   0.67549   0.67647   0.67825
 Alpha virt. eigenvalues --    0.68180   0.68310   0.68500   0.68805   0.69179
 Alpha virt. eigenvalues --    0.69475   0.69634   0.69971   0.70465   0.70711
 Alpha virt. eigenvalues --    0.71225   0.71362   0.71582   0.71895   0.72057
 Alpha virt. eigenvalues --    0.72175   0.72741   0.73005   0.73593   0.74241
 Alpha virt. eigenvalues --    0.74459   0.74587   0.75001   0.75548   0.75721
 Alpha virt. eigenvalues --    0.75927   0.76101   0.76751   0.76913   0.77207
 Alpha virt. eigenvalues --    0.77492   0.78660   0.78709   0.78802   0.79194
 Alpha virt. eigenvalues --    0.79848   0.80243   0.80761   0.81162   0.81714
 Alpha virt. eigenvalues --    0.82004   0.82413   0.82867   0.83056   0.83200
 Alpha virt. eigenvalues --    0.83705   0.84083   0.84408   0.84556   0.84811
 Alpha virt. eigenvalues --    0.84873   0.85117   0.85723   0.85876   0.86633
 Alpha virt. eigenvalues --    0.87153   0.87351   0.87578   0.88200   0.88513
 Alpha virt. eigenvalues --    0.88958   0.89124   0.89263   0.89721   0.90020
 Alpha virt. eigenvalues --    0.90291   0.90489   0.90601   0.91343   0.91810
 Alpha virt. eigenvalues --    0.92136   0.92210   0.92625   0.93280   0.93393
 Alpha virt. eigenvalues --    0.93672   0.93951   0.94078   0.94601   0.94669
 Alpha virt. eigenvalues --    0.95006   0.95526   0.95603   0.95888   0.96351
 Alpha virt. eigenvalues --    0.96513   0.96733   0.96889   0.97199   0.97700
 Alpha virt. eigenvalues --    0.97940   0.98009   0.98453   0.98606   0.98815
 Alpha virt. eigenvalues --    0.99111   0.99288   0.99532   0.99764   0.99999
 Alpha virt. eigenvalues --    1.00267   1.00738   1.01011   1.01326   1.01421
 Alpha virt. eigenvalues --    1.01645   1.02109   1.02642   1.02724   1.02894
 Alpha virt. eigenvalues --    1.03165   1.03554   1.04315   1.04560   1.04658
 Alpha virt. eigenvalues --    1.04902   1.05182   1.05506   1.05799   1.06258
 Alpha virt. eigenvalues --    1.06496   1.06655   1.07153   1.07519   1.07789
 Alpha virt. eigenvalues --    1.08103   1.08523   1.08702   1.08785   1.09310
 Alpha virt. eigenvalues --    1.09736   1.10033   1.10194   1.10573   1.10746
 Alpha virt. eigenvalues --    1.10819   1.11437   1.11701   1.11972   1.12189
 Alpha virt. eigenvalues --    1.12607   1.12874   1.13193   1.13556   1.13964
 Alpha virt. eigenvalues --    1.14181   1.14318   1.14577   1.15038   1.15265
 Alpha virt. eigenvalues --    1.15481   1.15785   1.15845   1.16134   1.16347
 Alpha virt. eigenvalues --    1.16641   1.16765   1.17026   1.17281   1.17622
 Alpha virt. eigenvalues --    1.17838   1.18045   1.18189   1.18385   1.18648
 Alpha virt. eigenvalues --    1.19097   1.19268   1.19523   1.19740   1.20040
 Alpha virt. eigenvalues --    1.20419   1.20812   1.21002   1.21245   1.21409
 Alpha virt. eigenvalues --    1.21925   1.22397   1.22545   1.23174   1.23385
 Alpha virt. eigenvalues --    1.23474   1.23625   1.24257   1.24783   1.25093
 Alpha virt. eigenvalues --    1.25294   1.25812   1.25972   1.26186   1.26390
 Alpha virt. eigenvalues --    1.26546   1.27102   1.27561   1.27681   1.27761
 Alpha virt. eigenvalues --    1.28300   1.28678   1.29083   1.29200   1.29587
 Alpha virt. eigenvalues --    1.29745   1.30166   1.30222   1.30707   1.31167
 Alpha virt. eigenvalues --    1.31465   1.31535   1.31940   1.32482   1.33296
 Alpha virt. eigenvalues --    1.33587   1.33764   1.33944   1.34142   1.34324
 Alpha virt. eigenvalues --    1.34346   1.34796   1.35127   1.35577   1.36042
 Alpha virt. eigenvalues --    1.36301   1.36756   1.37215   1.37231   1.37910
 Alpha virt. eigenvalues --    1.38126   1.38407   1.38887   1.38932   1.39240
 Alpha virt. eigenvalues --    1.39579   1.40008   1.40218   1.41051   1.41141
 Alpha virt. eigenvalues --    1.41572   1.41815   1.42254   1.42305   1.43052
 Alpha virt. eigenvalues --    1.43185   1.43373   1.43460   1.43958   1.44743
 Alpha virt. eigenvalues --    1.44932   1.45156   1.45746   1.46111   1.46350
 Alpha virt. eigenvalues --    1.46798   1.47239   1.47393   1.47726   1.47788
 Alpha virt. eigenvalues --    1.48281   1.48493   1.48960   1.49243   1.49552
 Alpha virt. eigenvalues --    1.49722   1.50387   1.50706   1.50931   1.51149
 Alpha virt. eigenvalues --    1.51646   1.52081   1.52176   1.52855   1.53108
 Alpha virt. eigenvalues --    1.53290   1.53784   1.53976   1.54698   1.54799
 Alpha virt. eigenvalues --    1.55064   1.55687   1.56242   1.56595   1.56908
 Alpha virt. eigenvalues --    1.57203   1.57364   1.58153   1.58298   1.59095
 Alpha virt. eigenvalues --    1.59398   1.59780   1.60236   1.60673   1.60859
 Alpha virt. eigenvalues --    1.61488   1.61986   1.62123   1.62708   1.62948
 Alpha virt. eigenvalues --    1.63228   1.63969   1.64135   1.64419   1.64907
 Alpha virt. eigenvalues --    1.65411   1.65850   1.66428   1.66790   1.67412
 Alpha virt. eigenvalues --    1.67695   1.68153   1.68257   1.68473   1.68858
 Alpha virt. eigenvalues --    1.68996   1.69599   1.69978   1.70318   1.70623
 Alpha virt. eigenvalues --    1.70968   1.71124   1.71754   1.72313   1.72392
 Alpha virt. eigenvalues --    1.72887   1.73286   1.73507   1.73774   1.74117
 Alpha virt. eigenvalues --    1.74580   1.74659   1.75208   1.75415   1.76156
 Alpha virt. eigenvalues --    1.76424   1.76515   1.76811   1.77194   1.77407
 Alpha virt. eigenvalues --    1.77949   1.79173   1.79430   1.79584   1.79867
 Alpha virt. eigenvalues --    1.79980   1.80443   1.80730   1.80988   1.81347
 Alpha virt. eigenvalues --    1.81558   1.82090   1.82391   1.82421   1.82882
 Alpha virt. eigenvalues --    1.83092   1.83327   1.83953   1.84278   1.84380
 Alpha virt. eigenvalues --    1.84755   1.85476   1.86141   1.86270   1.87040
 Alpha virt. eigenvalues --    1.87394   1.87903   1.88020   1.88607   1.89059
 Alpha virt. eigenvalues --    1.89287   1.89669   1.89827   1.90844   1.91029
 Alpha virt. eigenvalues --    1.91356   1.91801   1.92107   1.92535   1.92944
 Alpha virt. eigenvalues --    1.93253   1.93766   1.94337   1.94658   1.95011
 Alpha virt. eigenvalues --    1.95180   1.95756   1.95907   1.96873   1.97345
 Alpha virt. eigenvalues --    1.97785   1.98044   1.98148   1.98594   1.98783
 Alpha virt. eigenvalues --    1.98927   1.99343   1.99409   2.00038   2.00215
 Alpha virt. eigenvalues --    2.00445   2.00898   2.01760   2.02220   2.02842
 Alpha virt. eigenvalues --    2.03161   2.03700   2.04051   2.04362   2.04958
 Alpha virt. eigenvalues --    2.05092   2.05707   2.05845   2.06212   2.06408
 Alpha virt. eigenvalues --    2.06572   2.06752   2.07214   2.07936   2.08411
 Alpha virt. eigenvalues --    2.08917   2.09244   2.09885   2.10052   2.10288
 Alpha virt. eigenvalues --    2.10639   2.11140   2.11521   2.11987   2.12505
 Alpha virt. eigenvalues --    2.13402   2.13602   2.14668   2.14760   2.15159
 Alpha virt. eigenvalues --    2.15537   2.16238   2.16743   2.17000   2.17911
 Alpha virt. eigenvalues --    2.18527   2.18714   2.19459   2.19703   2.20011
 Alpha virt. eigenvalues --    2.21039   2.21459   2.21491   2.22141   2.23593
 Alpha virt. eigenvalues --    2.23973   2.24618   2.24876   2.25264   2.25797
 Alpha virt. eigenvalues --    2.26163   2.26834   2.27402   2.27561   2.28632
 Alpha virt. eigenvalues --    2.28856   2.29899   2.30391   2.30546   2.31385
 Alpha virt. eigenvalues --    2.31648   2.31983   2.32594   2.32799   2.33434
 Alpha virt. eigenvalues --    2.34183   2.34476   2.34675   2.35263   2.35805
 Alpha virt. eigenvalues --    2.36212   2.36847   2.37554   2.38808   2.39322
 Alpha virt. eigenvalues --    2.40003   2.40196   2.41443   2.41830   2.42667
 Alpha virt. eigenvalues --    2.43183   2.43815   2.44258   2.45254   2.46149
 Alpha virt. eigenvalues --    2.46234   2.46385   2.47180   2.48384   2.48905
 Alpha virt. eigenvalues --    2.49327   2.49503   2.50272   2.50744   2.51842
 Alpha virt. eigenvalues --    2.52045   2.52485   2.53302   2.54439   2.55412
 Alpha virt. eigenvalues --    2.56045   2.56194   2.57382   2.58225   2.59357
 Alpha virt. eigenvalues --    2.59514   2.60012   2.60803   2.61070   2.62346
 Alpha virt. eigenvalues --    2.62949   2.64280   2.65279   2.66144   2.66579
 Alpha virt. eigenvalues --    2.67090   2.67873   2.68749   2.69432   2.70689
 Alpha virt. eigenvalues --    2.70837   2.71175   2.71813   2.72762   2.73302
 Alpha virt. eigenvalues --    2.73789   2.75205   2.76573   2.77016   2.77699
 Alpha virt. eigenvalues --    2.78250   2.79086   2.79590   2.80214   2.80384
 Alpha virt. eigenvalues --    2.81131   2.81286   2.82905   2.83681   2.84126
 Alpha virt. eigenvalues --    2.84284   2.85125   2.85796   2.86191   2.86924
 Alpha virt. eigenvalues --    2.87240   2.87558   2.88282   2.88461   2.89346
 Alpha virt. eigenvalues --    2.89564   2.90648   2.91610   2.91783   2.92634
 Alpha virt. eigenvalues --    2.93542   2.94109   2.94402   2.95340   2.95810
 Alpha virt. eigenvalues --    2.96074   2.96927   2.97502   2.97905   2.97951
 Alpha virt. eigenvalues --    2.98879   2.99328   3.00954   3.01576   3.01963
 Alpha virt. eigenvalues --    3.02069   3.03021   3.03516   3.03868   3.04399
 Alpha virt. eigenvalues --    3.05694   3.05961   3.06614   3.07233   3.07701
 Alpha virt. eigenvalues --    3.08638   3.08917   3.09518   3.10571   3.11427
 Alpha virt. eigenvalues --    3.12098   3.12645   3.12958   3.13370   3.14341
 Alpha virt. eigenvalues --    3.14920   3.15285   3.15714   3.16131   3.16835
 Alpha virt. eigenvalues --    3.16920   3.17328   3.18170   3.19259   3.19344
 Alpha virt. eigenvalues --    3.19666   3.19935   3.20982   3.21280   3.21908
 Alpha virt. eigenvalues --    3.22387   3.23381   3.24325   3.24825   3.25836
 Alpha virt. eigenvalues --    3.26450   3.27728   3.28722   3.29010   3.29839
 Alpha virt. eigenvalues --    3.30252   3.31750   3.32185   3.32808   3.33612
 Alpha virt. eigenvalues --    3.34283   3.34605   3.34671   3.35213   3.36396
 Alpha virt. eigenvalues --    3.37499   3.38318   3.38660   3.39143   3.40032
 Alpha virt. eigenvalues --    3.40149   3.40305   3.40879   3.41366   3.41554
 Alpha virt. eigenvalues --    3.42043   3.42637   3.42824   3.43337   3.43755
 Alpha virt. eigenvalues --    3.44855   3.45280   3.45832   3.46347   3.46796
 Alpha virt. eigenvalues --    3.47147   3.48072   3.48421   3.49225   3.49741
 Alpha virt. eigenvalues --    3.50050   3.50616   3.50747   3.51193   3.51809
 Alpha virt. eigenvalues --    3.52670   3.53172   3.53659   3.54373   3.54809
 Alpha virt. eigenvalues --    3.55000   3.55776   3.56389   3.57077   3.57694
 Alpha virt. eigenvalues --    3.58197   3.58596   3.58919   3.59007   3.60049
 Alpha virt. eigenvalues --    3.60156   3.60992   3.61263   3.61820   3.62721
 Alpha virt. eigenvalues --    3.63445   3.64015   3.65046   3.65585   3.65995
 Alpha virt. eigenvalues --    3.66410   3.66885   3.67326   3.67638   3.68564
 Alpha virt. eigenvalues --    3.68892   3.69535   3.69816   3.70575   3.70713
 Alpha virt. eigenvalues --    3.71236   3.71583   3.72431   3.72626   3.72836
 Alpha virt. eigenvalues --    3.73443   3.73854   3.74252   3.74525   3.74668
 Alpha virt. eigenvalues --    3.75440   3.75994   3.76177   3.76592   3.76678
 Alpha virt. eigenvalues --    3.77336   3.77419   3.78268   3.78695   3.79051
 Alpha virt. eigenvalues --    3.79304   3.79874   3.80276   3.80755   3.81520
 Alpha virt. eigenvalues --    3.82257   3.82413   3.82884   3.83190   3.83618
 Alpha virt. eigenvalues --    3.84001   3.85118   3.85483   3.86076   3.86389
 Alpha virt. eigenvalues --    3.86760   3.87153   3.87944   3.88284   3.88741
 Alpha virt. eigenvalues --    3.89262   3.89611   3.90301   3.90329   3.91044
 Alpha virt. eigenvalues --    3.91556   3.91994   3.92186   3.93180   3.93315
 Alpha virt. eigenvalues --    3.94422   3.95240   3.95945   3.96247   3.96348
 Alpha virt. eigenvalues --    3.96692   3.96964   3.97286   3.97728   3.98436
 Alpha virt. eigenvalues --    3.99129   3.99557   3.99861   4.00156   4.00782
 Alpha virt. eigenvalues --    4.00870   4.02650   4.02881   4.03003   4.04135
 Alpha virt. eigenvalues --    4.04239   4.05071   4.05162   4.05577   4.06051
 Alpha virt. eigenvalues --    4.06763   4.06811   4.07476   4.07767   4.07994
 Alpha virt. eigenvalues --    4.09257   4.09955   4.11022   4.11553   4.11749
 Alpha virt. eigenvalues --    4.12466   4.13807   4.14075   4.14194   4.14979
 Alpha virt. eigenvalues --    4.15489   4.15743   4.16622   4.17238   4.17614
 Alpha virt. eigenvalues --    4.17835   4.18412   4.19260   4.19359   4.19510
 Alpha virt. eigenvalues --    4.19999   4.20296   4.20593   4.20966   4.22089
 Alpha virt. eigenvalues --    4.22257   4.22424   4.23165   4.23625   4.24248
 Alpha virt. eigenvalues --    4.24499   4.25018   4.25395   4.25927   4.26604
 Alpha virt. eigenvalues --    4.27035   4.27226   4.27856   4.28107   4.28880
 Alpha virt. eigenvalues --    4.29345   4.30020   4.30638   4.31057   4.31315
 Alpha virt. eigenvalues --    4.32584   4.32917   4.33688   4.34400   4.34578
 Alpha virt. eigenvalues --    4.35249   4.36258   4.36536   4.36967   4.37980
 Alpha virt. eigenvalues --    4.38682   4.39482   4.39715   4.40794   4.41106
 Alpha virt. eigenvalues --    4.41182   4.42383   4.42725   4.43313   4.43937
 Alpha virt. eigenvalues --    4.44359   4.45234   4.46363   4.46679   4.46855
 Alpha virt. eigenvalues --    4.47812   4.48703   4.49306   4.50031   4.50630
 Alpha virt. eigenvalues --    4.51189   4.51319   4.51825   4.52616   4.53484
 Alpha virt. eigenvalues --    4.54321   4.55114   4.55407   4.56170   4.57004
 Alpha virt. eigenvalues --    4.57746   4.58974   4.59077   4.59517   4.60102
 Alpha virt. eigenvalues --    4.60569   4.61326   4.61488   4.62825   4.63222
 Alpha virt. eigenvalues --    4.63552   4.64408   4.65024   4.65802   4.66976
 Alpha virt. eigenvalues --    4.67281   4.68114   4.68719   4.69442   4.70526
 Alpha virt. eigenvalues --    4.70853   4.71210   4.71644   4.72669   4.73077
 Alpha virt. eigenvalues --    4.73404   4.74254   4.74756   4.74805   4.75429
 Alpha virt. eigenvalues --    4.76666   4.77526   4.78243   4.78678   4.79307
 Alpha virt. eigenvalues --    4.79767   4.81269   4.82024   4.82651   4.83963
 Alpha virt. eigenvalues --    4.84080   4.84662   4.84771   4.85953   4.87049
 Alpha virt. eigenvalues --    4.87145   4.87773   4.87856   4.88513   4.89504
 Alpha virt. eigenvalues --    4.89852   4.90679   4.91519   4.92021   4.93403
 Alpha virt. eigenvalues --    4.93904   4.94040   4.94905   4.95933   4.96730
 Alpha virt. eigenvalues --    4.97841   4.98422   5.00243   5.00828   5.01744
 Alpha virt. eigenvalues --    5.03222   5.03578   5.04609   5.05570   5.05890
 Alpha virt. eigenvalues --    5.06627   5.07315   5.08107   5.08197   5.09748
 Alpha virt. eigenvalues --    5.09928   5.10521   5.10793   5.11500   5.12305
 Alpha virt. eigenvalues --    5.12667   5.13305   5.14137   5.14464   5.15871
 Alpha virt. eigenvalues --    5.17375   5.17533   5.18806   5.19623   5.20451
 Alpha virt. eigenvalues --    5.21070   5.21825   5.22649   5.22965   5.23445
 Alpha virt. eigenvalues --    5.24144   5.24746   5.26131   5.26238   5.27709
 Alpha virt. eigenvalues --    5.29299   5.29651   5.30543   5.30929   5.31105
 Alpha virt. eigenvalues --    5.32160   5.32404   5.33741   5.34572   5.35533
 Alpha virt. eigenvalues --    5.35987   5.37275   5.37731   5.38985   5.39505
 Alpha virt. eigenvalues --    5.41233   5.42574   5.43024   5.44240   5.45366
 Alpha virt. eigenvalues --    5.46224   5.47191   5.48235   5.49564   5.51991
 Alpha virt. eigenvalues --    5.52483   5.52881   5.54158   5.54736   5.55943
 Alpha virt. eigenvalues --    5.58553   5.58922   5.59575   5.60059   5.60406
 Alpha virt. eigenvalues --    5.62110   5.64481   5.65755   5.67344   5.68555
 Alpha virt. eigenvalues --    5.69527   5.69724   5.69891   5.70929   5.71832
 Alpha virt. eigenvalues --    5.72451   5.73134   5.75702   5.77636   5.77761
 Alpha virt. eigenvalues --    5.78149   5.79873   5.80234   5.81267   5.83007
 Alpha virt. eigenvalues --    5.83920   5.84124   5.86699   5.88174   5.88944
 Alpha virt. eigenvalues --    5.91742   5.92364   5.92874   5.94108   5.95351
 Alpha virt. eigenvalues --    5.95853   5.96732   5.97951   5.99039   5.99469
 Alpha virt. eigenvalues --    6.00363   6.02575   6.03015   6.04638   6.06003
 Alpha virt. eigenvalues --    6.07197   6.09887   6.11326   6.11356   6.12558
 Alpha virt. eigenvalues --    6.13366   6.15408   6.17040   6.18115   6.19153
 Alpha virt. eigenvalues --    6.20203   6.21080   6.21546   6.21918   6.22693
 Alpha virt. eigenvalues --    6.24051   6.26512   6.31009   6.33491   6.36693
 Alpha virt. eigenvalues --    6.39687   6.41899   6.42244   6.44346   6.45625
 Alpha virt. eigenvalues --    6.50036   6.53490   6.58082   6.59975   6.63528
 Alpha virt. eigenvalues --    6.67700   6.70982   6.72645   6.74958   6.78132
 Alpha virt. eigenvalues --    6.78738   6.80465   6.82694   6.83521   6.84426
 Alpha virt. eigenvalues --    6.85919   6.87763   6.87851   6.89285   6.91437
 Alpha virt. eigenvalues --    6.92802   6.93087   6.94421   6.96390   6.98883
 Alpha virt. eigenvalues --    6.99504   7.01815   7.06312   7.07716   7.09182
 Alpha virt. eigenvalues --    7.10504   7.10789   7.13713   7.15480   7.19375
 Alpha virt. eigenvalues --    7.21708   7.22799   7.25066   7.26233   7.27831
 Alpha virt. eigenvalues --    7.28590   7.29139   7.29877   7.30859   7.33561
 Alpha virt. eigenvalues --    7.37585   7.38820   7.39391   7.40306   7.40883
 Alpha virt. eigenvalues --    7.41319   7.42057   7.43314   7.46485   7.55350
 Alpha virt. eigenvalues --    7.58680   7.62456   7.65136   7.68030   7.68793
 Alpha virt. eigenvalues --    7.69667   7.71515   7.73732   7.81340   7.84408
 Alpha virt. eigenvalues --    7.90118   7.93240   7.94631   7.98789   8.06436
 Alpha virt. eigenvalues --    8.07151   8.10931   8.19461   8.29504   8.52647
 Alpha virt. eigenvalues --    8.58614   8.80922   8.84881   8.85844   8.86247
 Alpha virt. eigenvalues --    8.87748   8.89177   8.89595   8.91173   8.91863
 Alpha virt. eigenvalues --    8.93087   8.95355   8.97648   9.01991   9.04052
 Alpha virt. eigenvalues --    9.06674   9.08672   9.16884   9.19403   9.20067
 Alpha virt. eigenvalues --    9.20334   9.21327   9.23135   9.24585   9.24990
 Alpha virt. eigenvalues --    9.25986   9.27718   9.28215   9.28566   9.30508
 Alpha virt. eigenvalues --    9.31491   9.33012   9.33596   9.34607   9.35568
 Alpha virt. eigenvalues --    9.36893   9.37261   9.37849   9.38487   9.39907
 Alpha virt. eigenvalues --    9.40082   9.40723   9.42664   9.42971   9.44128
 Alpha virt. eigenvalues --    9.44314   9.47260   9.48222   9.49720   9.50332
 Alpha virt. eigenvalues --    9.52200   9.54153   9.56111   9.56590   9.57601
 Alpha virt. eigenvalues --    9.59712   9.59763   9.61359   9.61979   9.63471
 Alpha virt. eigenvalues --    9.64969   9.68852   9.72208   9.82290   9.83798
 Alpha virt. eigenvalues --    9.84448   9.87655   9.89741   9.94059  10.05117
 Alpha virt. eigenvalues --   10.07353  10.10559  10.11544  14.89278  15.64432
 Alpha virt. eigenvalues --   15.79909  15.99579  16.22985  16.40438  16.50524
 Alpha virt. eigenvalues --   16.58159  16.62450  16.93633  17.14077  17.35250
 Alpha virt. eigenvalues --   17.44753  17.55160  18.15365  18.29820  18.35679
 Alpha virt. eigenvalues --   18.76590  19.09114  19.38831  20.47939  20.48219
 Alpha virt. eigenvalues --   20.66503  21.14240  21.44884  21.93544
          Condensed to atoms (all electrons):
               1          2          3          4          5          6
     1  C   11.205684  -0.500961  -1.048254   0.108220   0.056294  -0.057363
     2  N   -0.500961   9.828146   0.321287  -0.179497  -0.342401  -0.091506
     3  C   -1.048254   0.321287   7.219662  -0.018953   0.045592  -0.037711
     4  O    0.108220  -0.179497  -0.018953   9.283852  -0.165281  -0.016950
     5  O    0.056294  -0.342401   0.045592  -0.165281   8.762582   0.001514
     6  C   -0.057363  -0.091506  -0.037711  -0.016950   0.001514   5.847228
     7  C   -1.428792  -0.428968   0.232325  -0.148791  -0.037513   0.015688
     8  C   -0.352616   0.041955  -0.175189   0.061003  -0.005024  -0.008895
     9  C   -0.120124   0.054762   0.113052  -0.026389   0.008704   0.005712
    10  C   -0.459538   0.139944  -0.045921   0.011823   0.001033  -0.004348
    11  C   -1.470683  -0.717650  -0.094848   0.013639  -0.042573  -0.002951
    12  H   -0.103284  -0.530463  -0.623506  -0.005421   0.129453  -0.010496
    13  H   -0.008710  -0.004255  -0.056392   0.027610   0.061491   0.283814
    14  H   -0.004370  -0.003501   0.041364  -0.015415  -0.074385   0.324159
    15  H   -0.224746  -0.061676  -0.022343  -0.067263   0.029226  -0.019331
    16  H   -0.516527   0.126743  -0.009369  -0.000640  -0.020222  -0.002374
    17  C   -0.065816   0.014806   0.001535  -0.000151   0.000362  -0.000157
    18  C    0.002969   0.008209   0.011521  -0.009109   0.000426  -0.000364
    19  H    0.062824   0.001880  -0.001603   0.000563   0.000301  -0.000277
    20  F   -0.008717   0.000592   0.000447  -0.000086  -0.000010   0.000004
    21  F   -0.015034  -0.001334  -0.001148   0.000018  -0.000013  -0.000006
    22  F   -0.025324   0.002509  -0.000159  -0.000019   0.000014  -0.000000
    23  F   -0.004824   0.004195   0.008499  -0.007299   0.000650   0.000051
    24  F   -0.004620   0.000701  -0.000296  -0.000188   0.000004   0.000029
    25  F    0.012573  -0.000129  -0.000350   0.001182   0.000003  -0.000041
    26  O   -0.009644  -0.266929  -0.045883  -0.001618   0.002399   0.009555
    27  C   -0.012945  -0.013224  -0.038003   0.002747  -0.021174  -0.002244
    28  O    0.008771  -0.024164  -0.001992  -0.000340   0.011369   0.000251
    29  C   -0.008625  -0.007286  -0.005702   0.000440  -0.004153   0.001539
    30  C    0.004085  -0.001405  -0.001848  -0.000057   0.001812  -0.000644
    31  H   -0.001704   0.001447  -0.000536   0.000050  -0.000945   0.000105
    32  H   -0.001383   0.000524  -0.001192   0.000034  -0.001223   0.000178
    33  H   -0.000904  -0.001831   0.001199   0.000065  -0.000130   0.001369
    34  H    0.000806  -0.000531   0.000543  -0.000024   0.000623  -0.000507
    35  H   -0.000356   0.001079  -0.002026  -0.000002  -0.000302  -0.000375
    36  C    0.014824   0.021406  -0.098483   0.031114   0.023850   0.075800
    37  H   -0.002393  -0.004913   0.002560  -0.001332  -0.020805   0.043001
    38  H    0.003155   0.001239   0.024789  -0.010882   0.020524  -0.042377
    39  C   -0.022257  -0.008466  -0.049834   0.025635   0.005082   0.093538
    40  H   -0.000363   0.009959  -0.043964   0.005500   0.001156  -0.005550
    41  H   -0.003073  -0.001550  -0.012748   0.002044  -0.006788   0.006783
    42  H    0.000421  -0.001907   0.001375   0.006723   0.001399   0.000839
               7          8          9         10         11         12
     1  C   -1.428792  -0.352616  -0.120124  -0.459538  -1.470683  -0.103284
     2  N   -0.428968   0.041955   0.054762   0.139944  -0.717650  -0.530463
     3  C    0.232325  -0.175189   0.113052  -0.045921  -0.094848  -0.623506
     4  O   -0.148791   0.061003  -0.026389   0.011823   0.013639  -0.005421
     5  O   -0.037513  -0.005024   0.008704   0.001033  -0.042573   0.129453
     6  C    0.015688  -0.008895   0.005712  -0.004348  -0.002951  -0.010496
     7  C   12.299553  -2.073070   0.045489  -0.055065  -0.750757   0.017566
     8  C   -2.073070  10.859899  -1.724154  -0.252804   0.567841  -0.025202
     9  C    0.045489  -1.724154  10.075666  -1.570939  -0.352372  -0.000112
    10  C   -0.055065  -0.252804  -1.570939  10.836680  -1.167830  -0.022096
    11  C   -0.750757   0.567841  -0.352372  -1.167830  11.430715  -0.013953
    12  H    0.017566  -0.025202  -0.000112  -0.022096  -0.013953   1.749499
    13  H    0.003900  -0.000820   0.000225   0.000181  -0.001195  -0.000129
    14  H    0.001441   0.000442   0.000423  -0.000382   0.002428   0.007703
    15  H    0.039189  -0.834421   0.074290  -0.023052  -0.300515  -0.037970
    16  H   -0.094060   0.030117   0.075518  -0.452157  -0.362967  -0.087651
    17  C    0.019083  -0.213481  -0.594583  -0.546865   0.165413  -0.000523
    18  C   -0.412000  -0.502379  -0.136724   0.068345   0.006754  -0.002688
    19  H    0.067596  -0.160690  -0.144825   0.363578  -0.208914  -0.010367
    20  F   -0.005699   0.018298   0.008763  -0.029418   0.005648  -0.000030
    21  F   -0.001699  -0.035535   0.056555  -0.011529   0.034013  -0.000167
    22  F   -0.016859   0.039412  -0.010359  -0.019814   0.033009  -0.000195
    23  F    0.040492  -0.052504   0.009467   0.001877  -0.018064  -0.000053
    24  F   -0.048897   0.006932   0.040016  -0.003177   0.010183  -0.000165
    25  F    0.000267   0.022287   0.002230   0.000109  -0.008675   0.000359
    26  O   -0.048520   0.016730  -0.016886   0.022572   0.133183  -0.064203
    27  C   -0.026076   0.023288  -0.024522   0.025299   0.026118  -0.063647
    28  O   -0.017446  -0.004441  -0.001212   0.007860   0.045422   0.004439
    29  C    0.001122  -0.001724   0.004675  -0.013897  -0.010256   0.022176
    30  C   -0.001886   0.000615  -0.000904   0.001385  -0.000763  -0.004617
    31  H    0.000375  -0.000108   0.000348  -0.002336   0.004085   0.001597
    32  H    0.000626  -0.000154   0.000352  -0.000864  -0.000289   0.001143
    33  H   -0.000296   0.000172  -0.000171   0.000948  -0.001360   0.000165
    34  H   -0.000129   0.000013  -0.000035   0.000116   0.000107   0.000758
    35  H   -0.000180   0.000162  -0.000162  -0.000241   0.001276  -0.003395
    36  C   -0.008333   0.000900  -0.000971   0.000501  -0.007129   0.004999
    37  H   -0.001341  -0.000054  -0.000054  -0.000111  -0.000518  -0.000015
    38  H   -0.000737   0.000182  -0.000035   0.000074  -0.000135  -0.000544
    39  C    0.005737  -0.004585   0.001151  -0.000407  -0.002350   0.004217
    40  H   -0.000920  -0.004488   0.002009  -0.001690  -0.004191  -0.002168
    41  H   -0.001635  -0.000452   0.000228  -0.000252  -0.000772   0.000388
    42  H    0.001684  -0.000074  -0.000045   0.000168   0.000244   0.000420
              13         14         15         16         17         18
     1  C   -0.008710  -0.004370  -0.224746  -0.516527  -0.065816   0.002969
     2  N   -0.004255  -0.003501  -0.061676   0.126743   0.014806   0.008209
     3  C   -0.056392   0.041364  -0.022343  -0.009369   0.001535   0.011521
     4  O    0.027610  -0.015415  -0.067263  -0.000640  -0.000151  -0.009109
     5  O    0.061491  -0.074385   0.029226  -0.020222   0.000362   0.000426
     6  C    0.283814   0.324159  -0.019331  -0.002374  -0.000157  -0.000364
     7  C    0.003900   0.001441   0.039189  -0.094060   0.019083  -0.412000
     8  C   -0.000820   0.000442  -0.834421   0.030117  -0.213481  -0.502379
     9  C    0.000225   0.000423   0.074290   0.075518  -0.594583  -0.136724
    10  C    0.000181  -0.000382  -0.023052  -0.452157  -0.546865   0.068345
    11  C   -0.001195   0.002428  -0.300515  -0.362967   0.165413   0.006754
    12  H   -0.000129   0.007703  -0.037970  -0.087651  -0.000523  -0.002688
    13  H    0.563386  -0.064874  -0.000722  -0.000750  -0.000008  -0.000015
    14  H   -0.064874   0.394274  -0.004074   0.001064  -0.000016  -0.000193
    15  H   -0.000722  -0.004074   2.205425  -0.106921  -0.001370  -0.029398
    16  H   -0.000750   0.001064  -0.106921   2.116414  -0.007925  -0.019164
    17  C   -0.000008  -0.000016  -0.001370  -0.007925   5.655748  -0.020334
    18  C   -0.000015  -0.000193  -0.029398  -0.019164  -0.020334   5.311666
    19  H    0.000025  -0.000071   0.033617  -0.355649  -0.119557   0.011281
    20  F   -0.000000  -0.000001  -0.005057   0.000168   0.171048   0.012571
    21  F   -0.000000  -0.000003  -0.001806   0.001881   0.123599   0.006149
    22  F   -0.000001   0.000001  -0.001300   0.003205   0.157335   0.002285
    23  F   -0.000019   0.000108  -0.047009  -0.000220   0.006947   0.201536
    24  F    0.000002  -0.000002   0.008406   0.000315   0.013661   0.159460
    25  F    0.000003  -0.000050   0.005051  -0.000138  -0.003507   0.136654
    26  O   -0.001766  -0.001071  -0.006147  -0.044203  -0.000203  -0.000516
    27  C   -0.001268  -0.000800  -0.008874  -0.019643   0.000785  -0.000653
    28  O   -0.000043   0.000080  -0.002128  -0.239654   0.000663  -0.000718
    29  C   -0.000028  -0.000121  -0.000521  -0.001736   0.000152  -0.000044
    30  C   -0.000028  -0.000017  -0.000211  -0.001317  -0.000024  -0.000025
    31  H    0.000028  -0.000014  -0.000051   0.000724   0.000014  -0.000002
    32  H   -0.000027  -0.000015   0.000025   0.001981   0.000009   0.000009
    33  H   -0.000095   0.000077  -0.000035   0.001226   0.000003   0.000003
    34  H   -0.000052   0.000003  -0.000018  -0.000306  -0.000002  -0.000003
    35  H    0.000454  -0.000104  -0.000009   0.001514  -0.000000  -0.000004
    36  C   -0.047427   0.016024   0.004564  -0.002179   0.000063   0.000432
    37  H   -0.031394   0.013204  -0.000023  -0.000330   0.000000   0.000040
    38  H   -0.015946  -0.014319   0.000650   0.000062   0.000006   0.000026
    39  C    0.007735   0.001094  -0.002733  -0.000504  -0.000030  -0.000308
    40  H    0.007916  -0.019883   0.003361  -0.002402   0.000033   0.000124
    41  H    0.006109  -0.007333   0.000423  -0.000117  -0.000019   0.000103
    42  H   -0.001713   0.004918  -0.000468   0.000170  -0.000004  -0.000059
              19         20         21         22         23         24
     1  C    0.062824  -0.008717  -0.015034  -0.025324  -0.004824  -0.004620
     2  N    0.001880   0.000592  -0.001334   0.002509   0.004195   0.000701
     3  C   -0.001603   0.000447  -0.001148  -0.000159   0.008499  -0.000296
     4  O    0.000563  -0.000086   0.000018  -0.000019  -0.007299  -0.000188
     5  O    0.000301  -0.000010  -0.000013   0.000014   0.000650   0.000004
     6  C   -0.000277   0.000004  -0.000006  -0.000000   0.000051   0.000029
     7  C    0.067596  -0.005699  -0.001699  -0.016859   0.040492  -0.048897
     8  C   -0.160690   0.018298  -0.035535   0.039412  -0.052504   0.006932
     9  C   -0.144825   0.008763   0.056555  -0.010359   0.009467   0.040016
    10  C    0.363578  -0.029418  -0.011529  -0.019814   0.001877  -0.003177
    11  C   -0.208914   0.005648   0.034013   0.033009  -0.018064   0.010183
    12  H   -0.010367  -0.000030  -0.000167  -0.000195  -0.000053  -0.000165
    13  H    0.000025  -0.000000  -0.000000  -0.000001  -0.000019   0.000002
    14  H   -0.000071  -0.000001  -0.000003   0.000001   0.000108  -0.000002
    15  H    0.033617  -0.005057  -0.001806  -0.001300  -0.047009   0.008406
    16  H   -0.355649   0.000168   0.001881   0.003205  -0.000220   0.000315
    17  C   -0.119557   0.171048   0.123599   0.157335   0.006947   0.013661
    18  C    0.011281   0.012571   0.006149   0.002285   0.201536   0.159460
    19  H    1.249227   0.004959   0.006057  -0.034272  -0.000592  -0.002269
    20  F    0.004959   9.385994  -0.026442  -0.087705   0.006442  -0.000711
    21  F    0.006057  -0.026442   9.364855  -0.071129  -0.000858  -0.003806
    22  F   -0.034272  -0.087705  -0.071129   9.411513   0.000293   0.005248
    23  F   -0.000592   0.006442  -0.000858   0.000293   9.396318  -0.093855
    24  F   -0.002269  -0.000711  -0.003806   0.005248  -0.093855   9.385859
    25  F   -0.000975  -0.002967  -0.001680  -0.000896  -0.071367  -0.024201
    26  O   -0.006671   0.000002   0.000052  -0.000075  -0.000063   0.000017
    27  C   -0.018981   0.000051   0.000059   0.000078  -0.000123   0.000102
    28  O   -0.017676   0.000000  -0.000016  -0.000002  -0.000016  -0.000002
    29  C   -0.000665   0.000004  -0.000005   0.000005  -0.000001   0.000005
    30  C   -0.000330   0.000000  -0.000000  -0.000001  -0.000002  -0.000000
    31  H    0.000032  -0.000000   0.000000  -0.000002  -0.000000   0.000001
    32  H    0.000291   0.000001  -0.000000  -0.000001   0.000000   0.000000
    33  H   -0.000002   0.000000  -0.000000   0.000001  -0.000001   0.000000
    34  H   -0.000026   0.000000  -0.000000  -0.000000  -0.000000  -0.000000
    35  H   -0.000087  -0.000000   0.000000   0.000001  -0.000001  -0.000000
    36  C    0.000148   0.000004   0.000001   0.000001  -0.000056  -0.000006
    37  H   -0.000006   0.000001   0.000001  -0.000001  -0.000011  -0.000000
    38  H    0.000012   0.000001  -0.000000   0.000000   0.000001  -0.000001
    39  C   -0.000010   0.000004  -0.000005   0.000002   0.000000  -0.000013
    40  H    0.000304  -0.000017  -0.000006   0.000007   0.000250   0.000010
    41  H   -0.000050  -0.000003  -0.000000  -0.000000   0.000049   0.000013
    42  H    0.000003   0.000000  -0.000000   0.000000  -0.000005  -0.000001
              25         26         27         28         29         30
     1  C    0.012573  -0.009644  -0.012945   0.008771  -0.008625   0.004085
     2  N   -0.000129  -0.266929  -0.013224  -0.024164  -0.007286  -0.001405
     3  C   -0.000350  -0.045883  -0.038003  -0.001992  -0.005702  -0.001848
     4  O    0.001182  -0.001618   0.002747  -0.000340   0.000440  -0.000057
     5  O    0.000003   0.002399  -0.021174   0.011369  -0.004153   0.001812
     6  C   -0.000041   0.009555  -0.002244   0.000251   0.001539  -0.000644
     7  C    0.000267  -0.048520  -0.026076  -0.017446   0.001122  -0.001886
     8  C    0.022287   0.016730   0.023288  -0.004441  -0.001724   0.000615
     9  C    0.002230  -0.016886  -0.024522  -0.001212   0.004675  -0.000904
    10  C    0.000109   0.022572   0.025299   0.007860  -0.013897   0.001385
    11  C   -0.008675   0.133183   0.026118   0.045422  -0.010256  -0.000763
    12  H    0.000359  -0.064203  -0.063647   0.004439   0.022176  -0.004617
    13  H    0.000003  -0.001766  -0.001268  -0.000043  -0.000028  -0.000028
    14  H   -0.000050  -0.001071  -0.000800   0.000080  -0.000121  -0.000017
    15  H    0.005051  -0.006147  -0.008874  -0.002128  -0.000521  -0.000211
    16  H   -0.000138  -0.044203  -0.019643  -0.239654  -0.001736  -0.001317
    17  C   -0.003507  -0.000203   0.000785   0.000663   0.000152  -0.000024
    18  C    0.136654  -0.000516  -0.000653  -0.000718  -0.000044  -0.000025
    19  H   -0.000975  -0.006671  -0.018981  -0.017676  -0.000665  -0.000330
    20  F   -0.002967   0.000002   0.000051   0.000000   0.000004   0.000000
    21  F   -0.001680   0.000052   0.000059  -0.000016  -0.000005  -0.000000
    22  F   -0.000896  -0.000075   0.000078  -0.000002   0.000005  -0.000001
    23  F   -0.071367  -0.000063  -0.000123  -0.000016  -0.000001  -0.000002
    24  F   -0.024201   0.000017   0.000102  -0.000002   0.000005  -0.000000
    25  F    9.358332  -0.000015  -0.000037   0.000009   0.000001   0.000001
    26  O   -0.000015   8.872056   0.414263  -0.102073  -0.119894  -0.024842
    27  C   -0.000037   0.414263   5.299964   0.471218  -0.433659   0.088217
    28  O    0.000009  -0.102073   0.471218   8.995665  -0.123849  -0.008768
    29  C    0.000001  -0.119894  -0.433659  -0.123849   5.840645   0.081189
    30  C    0.000001  -0.024842   0.088217  -0.008768   0.081189   5.694456
    31  H   -0.000001  -0.027321  -0.063594   0.002168   0.490361  -0.029306
    32  H    0.000000  -0.031755  -0.068042   0.005728   0.498323  -0.022323
    33  H    0.000001  -0.000524  -0.011675   0.002877   0.039869   0.361813
    34  H    0.000000  -0.000665   0.018375  -0.003873  -0.062711   0.446267
    35  H   -0.000001  -0.004606  -0.011311   0.004262   0.040806   0.347358
    36  C    0.000014   0.010727   0.002125  -0.000533   0.001445  -0.001370
    37  H   -0.000001   0.002672   0.000794  -0.000116   0.000693  -0.000541
    38  H    0.000002  -0.000072   0.000338  -0.000003  -0.000058  -0.000110
    39  C    0.000089   0.000081  -0.001122  -0.000269   0.000320   0.000272
    40  H   -0.000180   0.003169   0.001056  -0.000061   0.000900   0.000146
    41  H   -0.000029   0.000415  -0.000294   0.000049  -0.000022   0.000015
    42  H    0.000009  -0.000270  -0.000149  -0.000048  -0.000003   0.000076
              31         32         33         34         35         36
     1  C   -0.001704  -0.001383  -0.000904   0.000806  -0.000356   0.014824
     2  N    0.001447   0.000524  -0.001831  -0.000531   0.001079   0.021406
     3  C   -0.000536  -0.001192   0.001199   0.000543  -0.002026  -0.098483
     4  O    0.000050   0.000034   0.000065  -0.000024  -0.000002   0.031114
     5  O   -0.000945  -0.001223  -0.000130   0.000623  -0.000302   0.023850
     6  C    0.000105   0.000178   0.001369  -0.000507  -0.000375   0.075800
     7  C    0.000375   0.000626  -0.000296  -0.000129  -0.000180  -0.008333
     8  C   -0.000108  -0.000154   0.000172   0.000013   0.000162   0.000900
     9  C    0.000348   0.000352  -0.000171  -0.000035  -0.000162  -0.000971
    10  C   -0.002336  -0.000864   0.000948   0.000116  -0.000241   0.000501
    11  C    0.004085  -0.000289  -0.001360   0.000107   0.001276  -0.007129
    12  H    0.001597   0.001143   0.000165   0.000758  -0.003395   0.004999
    13  H    0.000028  -0.000027  -0.000095  -0.000052   0.000454  -0.047427
    14  H   -0.000014  -0.000015   0.000077   0.000003  -0.000104   0.016024
    15  H   -0.000051   0.000025  -0.000035  -0.000018  -0.000009   0.004564
    16  H    0.000724   0.001981   0.001226  -0.000306   0.001514  -0.002179
    17  C    0.000014   0.000009   0.000003  -0.000002  -0.000000   0.000063
    18  C   -0.000002   0.000009   0.000003  -0.000003  -0.000004   0.000432
    19  H    0.000032   0.000291  -0.000002  -0.000026  -0.000087   0.000148
    20  F   -0.000000   0.000001   0.000000   0.000000  -0.000000   0.000004
    21  F    0.000000  -0.000000  -0.000000  -0.000000   0.000000   0.000001
    22  F   -0.000002  -0.000001   0.000001  -0.000000   0.000001   0.000001
    23  F   -0.000000   0.000000  -0.000001  -0.000000  -0.000001  -0.000056
    24  F    0.000001   0.000000   0.000000  -0.000000  -0.000000  -0.000006
    25  F   -0.000001   0.000000   0.000001   0.000000  -0.000001   0.000014
    26  O   -0.027321  -0.031755  -0.000524  -0.000665  -0.004606   0.010727
    27  C   -0.063594  -0.068042  -0.011675   0.018375  -0.011311   0.002125
    28  O    0.002168   0.005728   0.002877  -0.003873   0.004262  -0.000533
    29  C    0.490361   0.498323   0.039869  -0.062711   0.040806   0.001445
    30  C   -0.029306  -0.022323   0.361813   0.446267   0.347358  -0.001370
    31  H    0.389695   0.023632  -0.003700  -0.006783   0.001189   0.000122
    32  H    0.023632   0.390478   0.003535  -0.009502   0.001377   0.000076
    33  H   -0.003700   0.003535   0.335116  -0.007768   0.022117  -0.000901
    34  H   -0.006783  -0.009502  -0.007768   0.360988  -0.012206   0.000031
    35  H    0.001189   0.001377   0.022117  -0.012206   0.331769   0.000236
    36  C    0.000122   0.000076  -0.000901   0.000031   0.000236   5.462487
    37  H    0.000051   0.000065   0.000117  -0.000055  -0.000570   0.389059
    38  H   -0.000007  -0.000003   0.000005  -0.000012   0.000102   0.431644
    39  C    0.000081   0.000043  -0.000038  -0.000025   0.000069   0.035673
    40  H    0.000083   0.000025  -0.000542   0.000010   0.000087   0.080609
    41  H   -0.000004  -0.000005  -0.000027   0.000005   0.000002   0.038069
    42  H    0.000011   0.000004   0.000128   0.000001   0.000004  -0.056939
              37         38         39         40         41         42
     1  C   -0.002393   0.003155  -0.022257  -0.000363  -0.003073   0.000421
     2  N   -0.004913   0.001239  -0.008466   0.009959  -0.001550  -0.001907
     3  C    0.002560   0.024789  -0.049834  -0.043964  -0.012748   0.001375
     4  O   -0.001332  -0.010882   0.025635   0.005500   0.002044   0.006723
     5  O   -0.020805   0.020524   0.005082   0.001156  -0.006788   0.001399
     6  C    0.043001  -0.042377   0.093538  -0.005550   0.006783   0.000839
     7  C   -0.001341  -0.000737   0.005737  -0.000920  -0.001635   0.001684
     8  C   -0.000054   0.000182  -0.004585  -0.004488  -0.000452  -0.000074
     9  C   -0.000054  -0.000035   0.001151   0.002009   0.000228  -0.000045
    10  C   -0.000111   0.000074  -0.000407  -0.001690  -0.000252   0.000168
    11  C   -0.000518  -0.000135  -0.002350  -0.004191  -0.000772   0.000244
    12  H   -0.000015  -0.000544   0.004217  -0.002168   0.000388   0.000420
    13  H   -0.031394  -0.015946   0.007735   0.007916   0.006109  -0.001713
    14  H    0.013204  -0.014319   0.001094  -0.019883  -0.007333   0.004918
    15  H   -0.000023   0.000650  -0.002733   0.003361   0.000423  -0.000468
    16  H   -0.000330   0.000062  -0.000504  -0.002402  -0.000117   0.000170
    17  C    0.000000   0.000006  -0.000030   0.000033  -0.000019  -0.000004
    18  C    0.000040   0.000026  -0.000308   0.000124   0.000103  -0.000059
    19  H   -0.000006   0.000012  -0.000010   0.000304  -0.000050   0.000003
    20  F    0.000001   0.000001   0.000004  -0.000017  -0.000003   0.000000
    21  F    0.000001  -0.000000  -0.000005  -0.000006  -0.000000  -0.000000
    22  F   -0.000001   0.000000   0.000002   0.000007  -0.000000   0.000000
    23  F   -0.000011   0.000001   0.000000   0.000250   0.000049  -0.000005
    24  F   -0.000000  -0.000001  -0.000013   0.000010   0.000013  -0.000001
    25  F   -0.000001   0.000002   0.000089  -0.000180  -0.000029   0.000009
    26  O    0.002672  -0.000072   0.000081   0.003169   0.000415  -0.000270
    27  C    0.000794   0.000338  -0.001122   0.001056  -0.000294  -0.000149
    28  O   -0.000116  -0.000003  -0.000269  -0.000061   0.000049  -0.000048
    29  C    0.000693  -0.000058   0.000320   0.000900  -0.000022  -0.000003
    30  C   -0.000541  -0.000110   0.000272   0.000146   0.000015   0.000076
    31  H    0.000051  -0.000007   0.000081   0.000083  -0.000004   0.000011
    32  H    0.000065  -0.000003   0.000043   0.000025  -0.000005   0.000004
    33  H    0.000117   0.000005  -0.000038  -0.000542  -0.000027   0.000128
    34  H   -0.000055  -0.000012  -0.000025   0.000010   0.000005   0.000001
    35  H   -0.000570   0.000102   0.000069   0.000087   0.000002   0.000004
    36  C    0.389059   0.431644   0.035673   0.080609   0.038069  -0.056939
    37  H    0.426913  -0.040373   0.011069  -0.015022   0.007452  -0.010844
    38  H   -0.040373   0.453282  -0.057783   0.016420  -0.008372  -0.006349
    39  C    0.011069  -0.057783   5.957872   0.177753   0.367797   0.512693
    40  H   -0.015022   0.016420   0.177753   0.415393   0.032703  -0.069655
    41  H    0.007452  -0.008372   0.367797   0.032703   0.336781  -0.023444
    42  H   -0.010844  -0.006349   0.512693  -0.069655  -0.023444   0.416271
 Mulliken charges:
               1
     1  C    1.003327
     2  N   -0.386833
     3  C    0.412501
     4  O   -0.906557
     5  O   -0.422921
     6  C   -0.406688
     7  C   -1.182465
     8  C    0.742618
     9  C    0.145943
    10  C   -0.797760
    11  C   -0.938369
    12  H    0.668176
    13  H    0.274797
    14  H    0.402209
    15  H    0.405964
    16  H    0.988024
    17  C    1.243310
    18  C    1.194137
    19  H    0.281866
    20  F   -0.448136
    21  F   -0.421017
    22  F   -0.386801
    23  F   -0.380229
    24  F   -0.448754
    25  F   -0.423937
    26  O   -0.661459
    27  C    0.467181
    28  O   -1.011388
    29  C   -0.229708
    30  C   -0.926367
    31  H    0.220216
    32  H    0.208321
    33  H    0.259195
    34  H    0.276590
    35  H    0.282073
    36  C   -0.422621
    37  H    0.233132
    38  H    0.245602
    39  C   -1.057269
    40  H    0.412121
    41  H    0.267562
    42  H    0.224415
 Sum of Mulliken charges =  -1.00000
 Mulliken charges with hydrogens summed into heavy atoms:
               1
     1  C    1.003327
     2  N    0.281343
     3  C    0.412501
     4  O   -0.906557
     5  O   -0.422921
     6  C    0.270318
     7  C   -0.776501
     8  C    0.742618
     9  C    0.145943
    10  C   -0.515894
    11  C    0.049655
    17  C    1.243310
    18  C    1.194137
    20  F   -0.448136
    21  F   -0.421017
    22  F   -0.386801
    23  F   -0.380229
    24  F   -0.448754
    25  F   -0.423937
    26  O   -0.661459
    27  C    0.467181
    28  O   -1.011388
    29  C    0.198828
    30  C   -0.108509
    36  C    0.056113
    39  C   -0.153171
 Electronic spatial extent (au):  <R**2>=          12605.5569
 Charge=             -1.0000 electrons
 Dipole moment (field-independent basis, Debye):
    X=             -1.3175    Y=             -5.3154    Z=              0.8315  Tot=              5.5390
 Quadrupole moment (field-independent basis, Debye-Ang):
   XX=           -206.7302   YY=           -189.3971   ZZ=           -155.2768
   XY=            -20.7488   XZ=              1.8991   YZ=              1.5008
 Traceless Quadrupole moment (field-independent basis, Debye-Ang):
   XX=            -22.9288   YY=             -5.5958   ZZ=             28.5246
   XY=            -20.7488   XZ=              1.8991   YZ=              1.5008
 Octapole moment (field-independent basis, Debye-Ang**2):
  XXX=            -85.2198  YYY=            -88.8048  ZZZ=             -3.3481  XYY=            -73.8358
  XXY=            -83.6670  XXZ=             -8.8931  XZZ=            -31.7518  YZZ=             -4.0650
  YYZ=              7.6134  XYZ=              5.7739
 Hexadecapole moment (field-independent basis, Debye-Ang**3):
 XXXX=         -11737.5241 YYYY=          -4932.6600 ZZZZ=           -591.5426 XXXY=           -286.8720
 XXXZ=            -90.6137 YYYX=           -256.0367 YYYZ=             39.7969 ZZZX=            -46.2201
 ZZZY=             27.5246 XXYY=          -2706.8768 XXZZ=          -1900.5149 YYZZ=           -856.2711
 XXYZ=             20.7260 YYXZ=            -14.8979 ZZXY=             -5.1908
 N-N= 2.520608791027D+03 E-N=-8.677295397263D+03  KE= 1.527000508855D+03
 Unable to Open any file for archive entry.
 1\1\GINC-GADI-HMEM-CLX-0009\SP\RDSDPBEP86-FC\Aug-CC-pVTZ\C15H16F6N1O4(
 1-)\HIO507\14-Apr-2021\0\\# DSDPBEP86/AUG-cc-PVTZ SCF=Tight INT(grid=u
 ltrafine) MaxDisk=1400000MB\\NM2CA_carboxy.DSDPBEP86_AUG-cc-PVTZ\\-1,1
 \C,0,-5.2743352487,1.0758829401,0.3514425863\N,0,-3.9671917881,0.62320
 71294,0.2335958299\C,0,-2.9052622034,1.3612752992,-0.1793414523\O,0,-2
 .9058406205,2.5204652302,-0.5402425388\O,0,-1.7909601059,0.5974569817,
 -0.126963892\C,0,-0.6068141186,1.1199842649,-0.7194060708\C,0,-5.68268
 40849,2.3924454124,0.0843098881\C,0,-7.0141254226,2.7597416039,0.23170
 90279\C,0,-7.9756695425,1.8230120258,0.6356658939\C,0,-7.5526701823,0.
 5226029527,0.9086269981\C,0,-6.2297358427,0.1423122466,0.7747460946\H,
 0,-3.8032061521,-0.4098599055,0.4019173376\H,0,0.2059959363,0.84657346
 77,-0.0442519007\H,0,-0.6767092671,2.2075933274,-0.7753897208\H,0,-4.9
 544081141,3.1212809665,-0.234077692\H,0,-5.9317002431,-0.8825258242,1.
 0018771475\C,0,-9.4286141284,2.1475865784,0.834135928\C,0,-7.364159708
 4,4.1878938317,-0.1056742295\H,0,-8.2745257886,-0.2176577411,1.2300621
 293\F,0,-9.9358711602,2.919496666,-0.14126235\F,0,-9.6708675334,2.7852
 914625,1.9958190615\F,0,-10.1846487518,1.0347715947,0.8628605665\F,0,-
 6.2849294649,4.9855195473,-0.1065973235\F,0,-8.2302348783,4.7288068409
 ,0.7664479395\F,0,-7.9156502558,4.3049706612,-1.3271069529\O,0,-3.5429
 950276,-2.0097756978,0.4788226086\C,0,-4.2697533907,-2.941866873,0.923
 656255\O,0,-5.403864574,-2.8363682605,1.4219945821\C,0,-3.6805060344,-
 4.3643435044,0.8437419789\C,0,-2.3300423727,-4.4532469365,0.1455545014
 \H,0,-4.4259373074,-4.994230207,0.348513057\H,0,-3.6157139639,-4.73801
 5193,1.8711232134\H,0,-2.4022599169,-4.0934551976,-0.8825679668\H,0,-1
 .9544320536,-5.4817085694,0.1278962904\H,0,-1.5955570019,-3.8212896515
 ,0.6470983354\C,0,-0.3993081273,0.5067044953,-2.0964240872\H,0,-0.2915
 419925,-0.5760759797,-1.9840049394\H,0,0.5475349229,0.887284505,-2.496
 4040691\C,0,-1.546543918,0.817865604,-3.0539657454\H,0,-2.4795129126,0
 .3777190981,-2.695043599\H,0,-1.7033260117,1.894931756,-3.1480474588\H
 ,0,-1.3505416474,0.4083830515,-4.047445262\\Version=ES64L-G16RevC.01\S
 tate=1-A\HF=-1531.7301048\MP2=-1534.3036884\RMSD=3.225e-09\PG=C01 [X(C
 15H16F6N1O4)]\\@
 The archive entry for this job was punched.


 IMAGINATION WILL OFTEN CARRY US TO WORLDS THAT NEVER WERE.
 BUT WITHOUT IT, WE GO NOWHERE. -- CARL SAGAN (COSMOS)
 Job cpu time:      10 days 20 hours 26 minutes 51.1 seconds.
 Elapsed time:       0 days  8 hours  9 minutes 21.5 seconds.
 File lengths (MBytes):  RWF=1000293 Int=      0 D2E=      0 Chk=    160 Scr=      1
 Normal termination of Gaussian 16 at Wed Apr 14 17:25:03 2021.
