 Entering Gaussian System, Link 0=/apps/gaussian/g16c01/g16/g16
 Initial command:
 /apps/gaussian/g16c01/g16/l1.exe "/jobfs/20783572.gadi-pbs/Gau-1522508.inp" -scrdir="/jobfs/20783572.gadi-pbs/"
 Entering Link 1 = /apps/gaussian/g16c01/g16/l1.exe PID=   1522509.
  
 Copyright (c) 1988-2019, Gaussian, Inc.  All Rights Reserved.
  
 This is part of the Gaussian(R) 16 program.  It is based on
 the Gaussian(R) 09 system (copyright 2009, Gaussian, Inc.),
 the Gaussian(R) 03 system (copyright 2003, Gaussian, Inc.),
 the Gaussian(R) 98 system (copyright 1998, Gaussian, Inc.),
 the Gaussian(R) 94 system (copyright 1995, Gaussian, Inc.),
 the Gaussian 92(TM) system (copyright 1992, Gaussian, Inc.),
 the Gaussian 90(TM) system (copyright 1990, Gaussian, Inc.),
 the Gaussian 88(TM) system (copyright 1988, Gaussian, Inc.),
 the Gaussian 86(TM) system (copyright 1986, Carnegie Mellon
 University), and the Gaussian 82(TM) system (copyright 1983,
 Carnegie Mellon University). Gaussian is a federally registered
 trademark of Gaussian, Inc.
  
 This software contains proprietary and confidential information,
 including trade secrets, belonging to Gaussian, Inc.
  
 This software is provided under written license and may be
 used, copied, transmitted, or stored only in accord with that
 written license.
  
 The following legend is applicable only to US Government
 contracts under FAR:
  
                    RESTRICTED RIGHTS LEGEND
  
 Use, reproduction and disclosure by the US Government is
 subject to restrictions as set forth in subparagraphs (a)
 and (c) of the Commercial Computer Software - Restricted
 Rights clause in FAR 52.227-19.
  
 Gaussian, Inc.
 340 Quinnipiac St., Bldg. 40, Wallingford CT 06492
  
  
 ---------------------------------------------------------------
 Warning -- This program may not be used in any manner that
 competes with the business of Gaussian, Inc. or will provide
 assistance to any competitor of Gaussian, Inc.  The licensee
 of this program is prohibited from giving any competitor of
 Gaussian, Inc. access to this program.  By using this program,
 the user acknowledges that Gaussian, Inc. is engaged in the
 business of creating and licensing software in the field of
 computational chemistry and represents and warrants to the
 licensee that it is not a competitor of Gaussian, Inc. and that
 it will not use this program in any manner prohibited above.
 ---------------------------------------------------------------
  

 Cite this work as:
 Gaussian 16, Revision C.01,
 M. J. Frisch, G. W. Trucks, H. B. Schlegel, G. E. Scuseria, 
 M. A. Robb, J. R. Cheeseman, G. Scalmani, V. Barone, 
 G. A. Petersson, H. Nakatsuji, X. Li, M. Caricato, A. V. Marenich, 
 J. Bloino, B. G. Janesko, R. Gomperts, B. Mennucci, H. P. Hratchian, 
 J. V. Ortiz, A. F. Izmaylov, J. L. Sonnenberg, D. Williams-Young, 
 F. Ding, F. Lipparini, F. Egidi, J. Goings, B. Peng, A. Petrone, 
 T. Henderson, D. Ranasinghe, V. G. Zakrzewski, J. Gao, N. Rega, 
 G. Zheng, W. Liang, M. Hada, M. Ehara, K. Toyota, R. Fukuda, 
 J. Hasegawa, M. Ishida, T. Nakajima, Y. Honda, O. Kitao, H. Nakai, 
 T. Vreven, K. Throssell, J. A. Montgomery, Jr., J. E. Peralta, 
 F. Ogliaro, M. J. Bearpark, J. J. Heyd, E. N. Brothers, K. N. Kudin, 
 V. N. Staroverov, T. A. Keith, R. Kobayashi, J. Normand, 
 K. Raghavachari, A. P. Rendell, J. C. Burant, S. S. Iyengar, 
 J. Tomasi, M. Cossi, J. M. Millam, M. Klene, C. Adamo, R. Cammi, 
 J. W. Ochterski, R. L. Martin, K. Morokuma, O. Farkas, 
 J. B. Foresman, and D. J. Fox, Gaussian, Inc., Wallingford CT, 2019.
 
 ******************************************
 Gaussian 16:  ES64L-G16RevC.01  3-Jul-2019
                13-Apr-2021 
 ******************************************
 %NprocShared=32
 Will use up to   32 processors via shared memory.
 %Mem=10000MB
 %chk=other.M062X_6-311pGd_opt_GD3.chk
 ----------------------------------------------------------------------
 # M062X/6-311+G* SCF=Tight INT(grid=ultrafine) OPT=CalcFC IOP(2/17=4) 
 EmpiricalDispersion=GD3 MaxDisk=10000MB
 ----------------------------------------------------------------------
 1/10=4,18=20,19=15,26=4,38=1/1,3;
 2/9=110,12=2,17=4,18=5,40=1/2;
 3/5=4,6=6,7=11,11=2,25=1,30=1,71=2,74=-55,75=-5,124=31,140=1/1,2,3;
 4//1;
 5/5=2,32=2,38=5/2;
 8/6=4,10=90,11=11/1;
 11/6=1,8=1,9=11,15=111,16=1/1,2,10;
 10/6=1,13=1/2;
 6/7=2,8=2,9=2,10=2,28=1/1;
 7/10=1,25=1/1,2,3,16;
 1/10=4,18=20,19=15,26=4/3(2);
 2/9=110,17=4/2;
 99//99;
 2/9=110,17=4/2;
 3/5=4,6=6,7=11,11=2,25=1,30=1,71=1,74=-55,75=-5,124=31/1,2,3;
 4/5=5,16=3,69=1/1;
 5/5=2,32=2,38=5/2;
 7//1,2,3,16;
 1/18=20,19=15,26=4/3(-5);
 2/9=110,17=4/2;
 6/7=2,8=2,9=2,10=2,19=2,28=1/1;
 99/9=1/99;
 ----------------------------
 other.M062X_6-311pGd_opt_GD3
 ----------------------------
 Symbolic Z-matrix:
 Charge = -1 Multiplicity = 1
 C                    -5.40768   1.10291   0.00383 
 N                    -4.08185   0.63109  -0.30198 
 C                    -2.96103   1.36275  -0.57028 
 O                    -2.97612   2.58278  -0.5768 
 O                    -1.80163   0.69718  -0.82299 
 C                    -0.56958   1.27708  -1.07515 
 C                    -5.79501   2.46112   0.01166 
 C                    -7.11665   2.85847   0.32582 
 C                    -8.08276   1.85612   0.64512 
 C                    -7.68282   0.50763   0.62975 
 C                    -6.37834   0.1436    0.31492 
 H                    -3.94928  -0.39197  -0.31019 
 H                     0.14345   0.9336   -0.29613 
 H                    -0.60759   2.38791  -1.03135 
 H                    -5.09004   3.23094  -0.22646 
 H                    -6.12224  -0.90862   0.31859 
 C                    -9.52819   2.18133   1.00173 
 C                    -7.45868   4.34538   0.31091 
 H                    -8.3788   -0.28732   0.86345 
 F                    -10.14793   2.83049  -0.04791 
 F                    -9.57641   2.97703   2.12963 
 F                    -10.26364   1.03939   1.27203 
 F                    -6.36914   5.1303   -0.02723 
 F                    -7.88364   4.75194   1.56046 
 F                    -8.44898   4.5991   -0.61778 
 O                    -3.87724  -2.52462   1.42376 
 C                    -4.51568  -3.56578   1.44599 
 O                    -5.8368   -3.52458   1.70176 
 C                    -3.8548   -4.89592   1.19579 
 C                    -2.35626  -4.78052   0.91635 
 H                    -4.34477  -5.37868   0.3234 
 H                    -4.00433  -5.54009   2.0885 
 H                    -2.17919  -4.16183   0.01062 
 H                    -1.93131  -5.79177   0.74348 
 H                    -1.83564  -4.32062   1.78339 
 C                    -0.04832   0.84006  -2.44525 
 H                     0.02808  -0.26855  -2.4766 
 H                     0.96708   1.26669  -2.59517 
 C                    -0.95253   1.3184   -3.57933 
 H                    -1.97115   0.88842  -3.47538 
 H                    -1.02187   2.4271   -3.57454 
 H                    -0.52981   0.9927   -4.55302 
 
 Add virtual bond connecting atoms O26        and H12        Dist= 5.20D+00.

 GradGradGradGradGradGradGradGradGradGradGradGradGradGradGradGradGradGrad
 Berny optimization.
 Initialization pass.
                           ----------------------------
                           !    Initial Parameters    !
                           ! (Angstroms and Degrees)  !
 --------------------------                            --------------------------
 ! Name  Definition              Value          Derivative Info.                !
 --------------------------------------------------------------------------------
 ! R1    R(1,2)                  1.4401         calculate D2E/DX2 analytically  !
 ! R2    R(1,7)                  1.4124         calculate D2E/DX2 analytically  !
 ! R3    R(1,11)                 1.3997         calculate D2E/DX2 analytically  !
 ! R4    R(2,3)                  1.3651         calculate D2E/DX2 analytically  !
 ! R5    R(2,12)                 1.0316         calculate D2E/DX2 analytically  !
 ! R6    R(3,4)                  1.2201         calculate D2E/DX2 analytically  !
 ! R7    R(3,5)                  1.3605         calculate D2E/DX2 analytically  !
 ! R8    R(5,6)                  1.3849         calculate D2E/DX2 analytically  !
 ! R9    R(6,13)                 1.1105         calculate D2E/DX2 analytically  !
 ! R10   R(6,14)                 1.1123         calculate D2E/DX2 analytically  !
 ! R11   R(6,36)                 1.5297         calculate D2E/DX2 analytically  !
 ! R12   R(7,8)                  1.4154         calculate D2E/DX2 analytically  !
 ! R13   R(7,15)                 1.0707         calculate D2E/DX2 analytically  !
 ! R14   R(8,9)                  1.4283         calculate D2E/DX2 analytically  !
 ! R15   R(8,18)                 1.5258         calculate D2E/DX2 analytically  !
 ! R16   R(9,10)                 1.4066         calculate D2E/DX2 analytically  !
 ! R17   R(9,17)                 1.5239         calculate D2E/DX2 analytically  !
 ! R18   R(10,11)                1.3904         calculate D2E/DX2 analytically  !
 ! R19   R(10,19)                1.0821         calculate D2E/DX2 analytically  !
 ! R20   R(11,16)                1.0829         calculate D2E/DX2 analytically  !
 ! R21   R(12,26)                2.7495         calculate D2E/DX2 analytically  !
 ! R22   R(17,20)                1.381          calculate D2E/DX2 analytically  !
 ! R23   R(17,21)                1.3812         calculate D2E/DX2 analytically  !
 ! R24   R(17,22)                1.3849         calculate D2E/DX2 analytically  !
 ! R25   R(18,23)                1.3848         calculate D2E/DX2 analytically  !
 ! R26   R(18,24)                1.381          calculate D2E/DX2 analytically  !
 ! R27   R(18,25)                1.3811         calculate D2E/DX2 analytically  !
 ! R28   R(26,27)                1.2215         calculate D2E/DX2 analytically  !
 ! R29   R(27,28)                1.3463         calculate D2E/DX2 analytically  !
 ! R30   R(27,29)                1.5062         calculate D2E/DX2 analytically  !
 ! R31   R(29,30)                1.5287         calculate D2E/DX2 analytically  !
 ! R32   R(29,31)                1.1109         calculate D2E/DX2 analytically  !
 ! R33   R(29,32)                1.111          calculate D2E/DX2 analytically  !
 ! R34   R(30,33)                1.1111         calculate D2E/DX2 analytically  !
 ! R35   R(30,34)                1.1104         calculate D2E/DX2 analytically  !
 ! R36   R(30,35)                1.111          calculate D2E/DX2 analytically  !
 ! R37   R(36,37)                1.1117         calculate D2E/DX2 analytically  !
 ! R38   R(36,38)                1.1115         calculate D2E/DX2 analytically  !
 ! R39   R(36,39)                1.5273         calculate D2E/DX2 analytically  !
 ! R40   R(39,40)                1.1105         calculate D2E/DX2 analytically  !
 ! R41   R(39,41)                1.1109         calculate D2E/DX2 analytically  !
 ! R42   R(39,42)                1.1103         calculate D2E/DX2 analytically  !
 ! A1    A(2,1,7)              124.6603         calculate D2E/DX2 analytically  !
 ! A2    A(2,1,11)             117.457          calculate D2E/DX2 analytically  !
 ! A3    A(7,1,11)             117.8826         calculate D2E/DX2 analytically  !
 ! A4    A(1,2,3)              128.4638         calculate D2E/DX2 analytically  !
 ! A5    A(1,2,12)             116.4164         calculate D2E/DX2 analytically  !
 ! A6    A(3,2,12)             115.115          calculate D2E/DX2 analytically  !
 ! A7    A(2,3,4)              121.7905         calculate D2E/DX2 analytically  !
 ! A8    A(2,3,5)              118.2926         calculate D2E/DX2 analytically  !
 ! A9    A(4,3,5)              119.914          calculate D2E/DX2 analytically  !
 ! A10   A(3,5,6)              125.9522         calculate D2E/DX2 analytically  !
 ! A11   A(5,6,13)             108.299          calculate D2E/DX2 analytically  !
 ! A12   A(5,6,14)             112.3712         calculate D2E/DX2 analytically  !
 ! A13   A(5,6,36)             110.281          calculate D2E/DX2 analytically  !
 ! A14   A(13,6,14)            107.6495         calculate D2E/DX2 analytically  !
 ! A15   A(13,6,36)            108.7327         calculate D2E/DX2 analytically  !
 ! A16   A(14,6,36)            109.4037         calculate D2E/DX2 analytically  !
 ! A17   A(1,7,8)              121.8215         calculate D2E/DX2 analytically  !
 ! A18   A(1,7,15)             120.6395         calculate D2E/DX2 analytically  !
 ! A19   A(8,7,15)             117.5386         calculate D2E/DX2 analytically  !
 ! A20   A(7,8,9)              118.9609         calculate D2E/DX2 analytically  !
 ! A21   A(7,8,18)             118.7327         calculate D2E/DX2 analytically  !
 ! A22   A(9,8,18)             122.3064         calculate D2E/DX2 analytically  !
 ! A23   A(8,9,10)             118.5556         calculate D2E/DX2 analytically  !
 ! A24   A(8,9,17)             122.9656         calculate D2E/DX2 analytically  !
 ! A25   A(10,9,17)            118.4788         calculate D2E/DX2 analytically  !
 ! A26   A(9,10,11)            121.3464         calculate D2E/DX2 analytically  !
 ! A27   A(9,10,19)            121.2678         calculate D2E/DX2 analytically  !
 ! A28   A(11,10,19)           117.3858         calculate D2E/DX2 analytically  !
 ! A29   A(1,11,10)            121.432          calculate D2E/DX2 analytically  !
 ! A30   A(1,11,16)            120.1769         calculate D2E/DX2 analytically  !
 ! A31   A(10,11,16)           118.3907         calculate D2E/DX2 analytically  !
 ! A32   A(2,12,26)            140.1327         calculate D2E/DX2 analytically  !
 ! A33   A(9,17,20)            110.3715         calculate D2E/DX2 analytically  !
 ! A34   A(9,17,21)            110.314          calculate D2E/DX2 analytically  !
 ! A35   A(9,17,22)            111.9263         calculate D2E/DX2 analytically  !
 ! A36   A(20,17,21)           109.5241         calculate D2E/DX2 analytically  !
 ! A37   A(20,17,22)           107.3149         calculate D2E/DX2 analytically  !
 ! A38   A(21,17,22)           107.284          calculate D2E/DX2 analytically  !
 ! A39   A(8,18,23)            112.234          calculate D2E/DX2 analytically  !
 ! A40   A(8,18,24)            110.305          calculate D2E/DX2 analytically  !
 ! A41   A(8,18,25)            110.2624         calculate D2E/DX2 analytically  !
 ! A42   A(23,18,24)           107.2285         calculate D2E/DX2 analytically  !
 ! A43   A(23,18,25)           107.2077         calculate D2E/DX2 analytically  !
 ! A44   A(24,18,25)           109.4921         calculate D2E/DX2 analytically  !
 ! A45   A(12,26,27)           131.2157         calculate D2E/DX2 analytically  !
 ! A46   A(26,27,28)           119.358          calculate D2E/DX2 analytically  !
 ! A47   A(26,27,29)           121.3567         calculate D2E/DX2 analytically  !
 ! A48   A(28,27,29)           119.2852         calculate D2E/DX2 analytically  !
 ! A49   A(27,29,30)           113.1916         calculate D2E/DX2 analytically  !
 ! A50   A(27,29,31)           108.7042         calculate D2E/DX2 analytically  !
 ! A51   A(27,29,32)           108.6337         calculate D2E/DX2 analytically  !
 ! A52   A(30,29,31)           108.7592         calculate D2E/DX2 analytically  !
 ! A53   A(30,29,32)           108.8195         calculate D2E/DX2 analytically  !
 ! A54   A(31,29,32)           108.6432         calculate D2E/DX2 analytically  !
 ! A55   A(29,30,33)           110.3201         calculate D2E/DX2 analytically  !
 ! A56   A(29,30,34)           109.5627         calculate D2E/DX2 analytically  !
 ! A57   A(29,30,35)           110.3617         calculate D2E/DX2 analytically  !
 ! A58   A(33,30,34)           108.6149         calculate D2E/DX2 analytically  !
 ! A59   A(33,30,35)           109.3294         calculate D2E/DX2 analytically  !
 ! A60   A(34,30,35)           108.6108         calculate D2E/DX2 analytically  !
 ! A61   A(6,36,37)            109.4865         calculate D2E/DX2 analytically  !
 ! A62   A(6,36,38)            108.8108         calculate D2E/DX2 analytically  !
 ! A63   A(6,36,39)            111.9543         calculate D2E/DX2 analytically  !
 ! A64   A(37,36,38)           108.4317         calculate D2E/DX2 analytically  !
 ! A65   A(37,36,39)           109.3952         calculate D2E/DX2 analytically  !
 ! A66   A(38,36,39)           108.6914         calculate D2E/DX2 analytically  !
 ! A67   A(36,39,40)           110.6264         calculate D2E/DX2 analytically  !
 ! A68   A(36,39,41)           110.2636         calculate D2E/DX2 analytically  !
 ! A69   A(36,39,42)           109.5056         calculate D2E/DX2 analytically  !
 ! A70   A(40,39,41)           109.1941         calculate D2E/DX2 analytically  !
 ! A71   A(40,39,42)           108.5248         calculate D2E/DX2 analytically  !
 ! A72   A(41,39,42)           108.6814         calculate D2E/DX2 analytically  !
 ! D1    D(7,1,2,3)              3.4095         calculate D2E/DX2 analytically  !
 ! D2    D(7,1,2,12)          -177.4316         calculate D2E/DX2 analytically  !
 ! D3    D(11,1,2,3)          -176.5879         calculate D2E/DX2 analytically  !
 ! D4    D(11,1,2,12)            2.571          calculate D2E/DX2 analytically  !
 ! D5    D(2,1,7,8)           -179.7953         calculate D2E/DX2 analytically  !
 ! D6    D(2,1,7,15)             0.4416         calculate D2E/DX2 analytically  !
 ! D7    D(11,1,7,8)             0.2021         calculate D2E/DX2 analytically  !
 ! D8    D(11,1,7,15)         -179.561          calculate D2E/DX2 analytically  !
 ! D9    D(2,1,11,10)          179.6615         calculate D2E/DX2 analytically  !
 ! D10   D(2,1,11,16)           -0.0884         calculate D2E/DX2 analytically  !
 ! D11   D(7,1,11,10)           -0.3361         calculate D2E/DX2 analytically  !
 ! D12   D(7,1,11,16)          179.914          calculate D2E/DX2 analytically  !
 ! D13   D(1,2,3,4)              0.0271         calculate D2E/DX2 analytically  !
 ! D14   D(1,2,3,5)            179.4167         calculate D2E/DX2 analytically  !
 ! D15   D(12,2,3,4)          -179.141          calculate D2E/DX2 analytically  !
 ! D16   D(12,2,3,5)             0.2487         calculate D2E/DX2 analytically  !
 ! D17   D(1,2,12,26)          -69.9153         calculate D2E/DX2 analytically  !
 ! D18   D(3,2,12,26)          109.3574         calculate D2E/DX2 analytically  !
 ! D19   D(2,3,5,6)           -178.064          calculate D2E/DX2 analytically  !
 ! D20   D(4,3,5,6)              1.3375         calculate D2E/DX2 analytically  !
 ! D21   D(3,5,6,13)           119.9598         calculate D2E/DX2 analytically  !
 ! D22   D(3,5,6,14)             1.1802         calculate D2E/DX2 analytically  !
 ! D23   D(3,5,6,36)          -121.1704         calculate D2E/DX2 analytically  !
 ! D24   D(5,6,36,37)          -58.1263         calculate D2E/DX2 analytically  !
 ! D25   D(5,6,36,38)         -176.4755         calculate D2E/DX2 analytically  !
 ! D26   D(5,6,36,39)           63.3698         calculate D2E/DX2 analytically  !
 ! D27   D(13,6,36,37)          60.4786         calculate D2E/DX2 analytically  !
 ! D28   D(13,6,36,38)         -57.8706         calculate D2E/DX2 analytically  !
 ! D29   D(13,6,36,39)        -178.0253         calculate D2E/DX2 analytically  !
 ! D30   D(14,6,36,37)         177.7934         calculate D2E/DX2 analytically  !
 ! D31   D(14,6,36,38)          59.4441         calculate D2E/DX2 analytically  !
 ! D32   D(14,6,36,39)         -60.7105         calculate D2E/DX2 analytically  !
 ! D33   D(1,7,8,9)              0.0863         calculate D2E/DX2 analytically  !
 ! D34   D(1,7,8,18)          -179.9041         calculate D2E/DX2 analytically  !
 ! D35   D(15,7,8,9)           179.8564         calculate D2E/DX2 analytically  !
 ! D36   D(15,7,8,18)           -0.134          calculate D2E/DX2 analytically  !
 ! D37   D(7,8,9,10)            -0.2453         calculate D2E/DX2 analytically  !
 ! D38   D(7,8,9,17)           179.7645         calculate D2E/DX2 analytically  !
 ! D39   D(18,8,9,10)          179.7447         calculate D2E/DX2 analytically  !
 ! D40   D(18,8,9,17)           -0.2455         calculate D2E/DX2 analytically  !
 ! D41   D(7,8,18,23)            0.0785         calculate D2E/DX2 analytically  !
 ! D42   D(7,8,18,24)         -119.4219         calculate D2E/DX2 analytically  !
 ! D43   D(7,8,18,25)          119.5237         calculate D2E/DX2 analytically  !
 ! D44   D(9,8,18,23)         -179.9116         calculate D2E/DX2 analytically  !
 ! D45   D(9,8,18,24)           60.588          calculate D2E/DX2 analytically  !
 ! D46   D(9,8,18,25)          -60.4663         calculate D2E/DX2 analytically  !
 ! D47   D(8,9,10,11)            0.1182         calculate D2E/DX2 analytically  !
 ! D48   D(8,9,10,19)         -179.9313         calculate D2E/DX2 analytically  !
 ! D49   D(17,9,10,11)        -179.8911         calculate D2E/DX2 analytically  !
 ! D50   D(17,9,10,19)           0.0593         calculate D2E/DX2 analytically  !
 ! D51   D(8,9,17,20)           60.6371         calculate D2E/DX2 analytically  !
 ! D52   D(8,9,17,21)          -60.5347         calculate D2E/DX2 analytically  !
 ! D53   D(8,9,17,22)         -179.9101         calculate D2E/DX2 analytically  !
 ! D54   D(10,9,17,20)        -119.3531         calculate D2E/DX2 analytically  !
 ! D55   D(10,9,17,21)         119.475          calculate D2E/DX2 analytically  !
 ! D56   D(10,9,17,22)           0.0997         calculate D2E/DX2 analytically  !
 ! D57   D(9,10,11,1)            0.1802         calculate D2E/DX2 analytically  !
 ! D58   D(9,10,11,16)         179.9344         calculate D2E/DX2 analytically  !
 ! D59   D(19,10,11,1)        -179.7721         calculate D2E/DX2 analytically  !
 ! D60   D(19,10,11,16)         -0.018          calculate D2E/DX2 analytically  !
 ! D61   D(2,12,26,27)         124.3711         calculate D2E/DX2 analytically  !
 ! D62   D(12,26,27,28)        -67.3321         calculate D2E/DX2 analytically  !
 ! D63   D(12,26,27,29)        112.7924         calculate D2E/DX2 analytically  !
 ! D64   D(26,27,29,30)         -0.3022         calculate D2E/DX2 analytically  !
 ! D65   D(26,27,29,31)       -121.2609         calculate D2E/DX2 analytically  !
 ! D66   D(26,27,29,32)        120.6835         calculate D2E/DX2 analytically  !
 ! D67   D(28,27,29,30)        179.8222         calculate D2E/DX2 analytically  !
 ! D68   D(28,27,29,31)         58.8635         calculate D2E/DX2 analytically  !
 ! D69   D(28,27,29,32)        -59.1922         calculate D2E/DX2 analytically  !
 ! D70   D(27,29,30,33)        -60.5989         calculate D2E/DX2 analytically  !
 ! D71   D(27,29,30,34)        179.8743         calculate D2E/DX2 analytically  !
 ! D72   D(27,29,30,35)         60.3267         calculate D2E/DX2 analytically  !
 ! D73   D(31,29,30,33)         60.3288         calculate D2E/DX2 analytically  !
 ! D74   D(31,29,30,34)        -59.1981         calculate D2E/DX2 analytically  !
 ! D75   D(31,29,30,35)       -178.7456         calculate D2E/DX2 analytically  !
 ! D76   D(32,29,30,33)        178.5206         calculate D2E/DX2 analytically  !
 ! D77   D(32,29,30,34)         58.9937         calculate D2E/DX2 analytically  !
 ! D78   D(32,29,30,35)        -60.5538         calculate D2E/DX2 analytically  !
 ! D79   D(6,36,39,40)         -61.2515         calculate D2E/DX2 analytically  !
 ! D80   D(6,36,39,41)          59.6408         calculate D2E/DX2 analytically  !
 ! D81   D(6,36,39,42)         179.179          calculate D2E/DX2 analytically  !
 ! D82   D(37,36,39,40)         60.2971         calculate D2E/DX2 analytically  !
 ! D83   D(37,36,39,41)       -178.8105         calculate D2E/DX2 analytically  !
 ! D84   D(37,36,39,42)        -59.2723         calculate D2E/DX2 analytically  !
 ! D85   D(38,36,39,40)        178.5242         calculate D2E/DX2 analytically  !
 ! D86   D(38,36,39,41)        -60.5834         calculate D2E/DX2 analytically  !
 ! D87   D(38,36,39,42)         58.9547         calculate D2E/DX2 analytically  !
 --------------------------------------------------------------------------------
 Trust Radius=3.00D-01 FncErr=1.00D-07 GrdErr=1.00D-06 EigMax=2.50D+02 EigMin=1.00D-04
 Number of steps in this run=    211 maximum allowed number of steps=    252.
 GradGradGradGradGradGradGradGradGradGradGradGradGradGradGradGradGradGrad

                          Input orientation:                          
 ---------------------------------------------------------------------
 Center     Atomic      Atomic             Coordinates (Angstroms)
 Number     Number       Type             X           Y           Z
 ---------------------------------------------------------------------
      1          6           0       -5.407680    1.102910    0.003830
      2          7           0       -4.081850    0.631090   -0.301980
      3          6           0       -2.961030    1.362750   -0.570280
      4          8           0       -2.976120    2.582780   -0.576800
      5          8           0       -1.801630    0.697180   -0.822990
      6          6           0       -0.569580    1.277080   -1.075150
      7          6           0       -5.795010    2.461120    0.011660
      8          6           0       -7.116650    2.858470    0.325820
      9          6           0       -8.082760    1.856120    0.645120
     10          6           0       -7.682820    0.507630    0.629750
     11          6           0       -6.378340    0.143600    0.314920
     12          1           0       -3.949280   -0.391970   -0.310190
     13          1           0        0.143450    0.933600   -0.296130
     14          1           0       -0.607590    2.387910   -1.031350
     15          1           0       -5.090040    3.230940   -0.226460
     16          1           0       -6.122240   -0.908620    0.318590
     17          6           0       -9.528190    2.181330    1.001730
     18          6           0       -7.458680    4.345380    0.310910
     19          1           0       -8.378800   -0.287320    0.863450
     20          9           0      -10.147930    2.830490   -0.047910
     21          9           0       -9.576410    2.977030    2.129630
     22          9           0      -10.263640    1.039390    1.272030
     23          9           0       -6.369140    5.130300   -0.027230
     24          9           0       -7.883640    4.751940    1.560460
     25          9           0       -8.448980    4.599100   -0.617780
     26          8           0       -3.877240   -2.524620    1.423760
     27          6           0       -4.515680   -3.565780    1.445990
     28          8           0       -5.836800   -3.524580    1.701760
     29          6           0       -3.854800   -4.895920    1.195790
     30          6           0       -2.356260   -4.780520    0.916350
     31          1           0       -4.344770   -5.378680    0.323400
     32          1           0       -4.004330   -5.540090    2.088500
     33          1           0       -2.179190   -4.161830    0.010620
     34          1           0       -1.931310   -5.791770    0.743480
     35          1           0       -1.835640   -4.320620    1.783390
     36          6           0       -0.048320    0.840060   -2.445250
     37          1           0        0.028080   -0.268550   -2.476600
     38          1           0        0.967080    1.266690   -2.595170
     39          6           0       -0.952530    1.318400   -3.579330
     40          1           0       -1.971150    0.888420   -3.475380
     41          1           0       -1.021870    2.427100   -3.574540
     42          1           0       -0.529810    0.992700   -4.553020
 ---------------------------------------------------------------------
                    Distance matrix (angstroms):
                    1          2          3          4          5
     1  C    0.000000
     2  N    1.440125   0.000000
     3  C    2.526503   1.365119   0.000000
     4  O    2.905104   2.259924   1.220141   0.000000
     5  O    3.721807   2.339919   1.360535   2.235067   0.000000
     6  C    4.960015   3.653921   2.445663   2.782919   1.384852
     7  C    1.412381   2.526321   3.094594   2.882226   4.444683
     8  C    2.471082   3.816460   4.506590   4.246730   5.851528
     9  C    2.852127   4.290102   5.287034   5.300839   6.553708
    10  C    2.433597   3.721606   4.946373   5.283468   6.060922
    11  C    1.399726   2.427360   3.734691   4.280171   4.748428
    12  H    2.111920   1.031646   2.030598   3.141219   2.462034
    13  H    5.561806   4.236119   3.145969   3.539815   2.028993
    14  H    5.075794   3.960919   2.608106   2.419612   2.080316
    15  H    2.163895   2.789511   2.853249   2.238640   4.193975
    16  H    2.157759   2.630400   3.992801   4.784315   4.748628
    17  C    4.374631   5.810811   6.802123   6.751484   8.076635
    18  C    3.848962   5.057130   5.468220   4.897768   6.826222
    19  H    3.391053   4.545930   5.842135   6.284962   6.860939
    20  F    5.045511   6.457495   7.353820   7.195550   8.649421
    21  F    5.040800   6.450299   7.325208   7.144510   8.623392
    22  F    5.019234   6.392084   7.538354   7.675166   8.724209
    23  F    4.140681   5.054708   5.109261   4.278372   6.414666
    24  F    4.676419   5.907935   6.344978   5.775542   7.688482
    25  F    4.675388   5.909032   6.371327   5.832617   7.710665
    26  O    4.185382   3.602575   4.463998   5.558758   4.442526
    27  C    4.967107   4.566982   5.547314   6.653324   5.539600
    28  O    4.947805   4.936032   6.108864   7.118650   6.362407
    29  C    6.310164   5.730856   6.564204   7.735962   6.290767
    30  C    6.690187   5.809261   6.349455   7.538694   5.773917
    31  H    6.575934   6.047939   6.939761   8.128248   6.685645
    32  H    7.102442   6.618449   7.470394   8.610578   7.227185
    33  H    6.175814   5.166228   5.609786   6.816885   4.944435
    34  H    7.756858   6.853535   7.346662   8.542122   6.676610
    35  H    6.733571   5.823544   6.253556   7.384316   5.654440
    36  C    5.898290   4.572378   3.503227   3.885896   2.392956
    37  H    6.130328   4.736016   3.902560   4.556813   2.648565
    38  H    6.886159   5.581613   4.420346   4.621119   3.336273
    39  C    5.721349   4.583237   3.618069   3.835200   2.950304
    40  H    4.894961   3.819914   3.105553   3.504652   2.664673
    41  H    5.813221   4.826881   3.730786   3.581867   3.342406
    42  H    6.676125   5.551494   4.680810   4.931847   3.951959
                    6          7          8          9         10
     6  C    0.000000
     7  C    5.467012   0.000000
     8  C    6.879508   1.415385   0.000000
     9  C    7.729327   2.449714   1.428295   0.000000
    10  C    7.355061   2.786034   2.437082   1.406632   0.000000
    11  C    6.079372   2.408971   2.813492   2.438607   1.390433
    12  H    3.846201   3.413273   4.582805   4.801269   3.953744
    13  H    1.110524   6.139492   7.536644   8.331118   7.892351
    14  H    1.112343   5.291744   6.665673   7.679292   7.506903
    15  H    4.997239   1.070657   2.133283   3.406781   3.856426
    16  H    6.127955   3.399475   3.896135   3.405003   2.130257
    17  C    9.240551   3.872358   2.594397   1.523877   2.518935
    18  C    7.667811   2.531360   1.525814   2.587970   3.857489
    19  H    8.196916   3.867226   3.431918   2.174774   1.082104
    20  F    9.757720   4.368970   3.054360   2.386339   3.454225
    21  F    9.709966   4.364739   3.052574   2.385624   3.454455
    22  F    9.977001   4.855770   3.756050   2.411701   2.712181
    23  F    7.041331   2.730505   2.417566   3.756169   4.850408
    24  F    8.515666   3.465402   2.387015   3.043562   4.349795
    25  F    8.563291   3.465647   2.386478   3.041870   4.345510
    26  O    5.624775   5.525348   6.377845   6.122382   4.930257
    27  C    6.736553   6.325940   7.020742   6.539301   5.223954
    28  O    7.649234   6.219870   6.653913   5.925602   4.562424
    29  C    7.352263   7.700170   8.457368   7.985545   6.646239
    30  C    6.622146   8.067516   9.020211   8.769912   7.511252
    31  H    7.778634   7.978900   8.691028   8.149749   6.773852
    32  H    8.263171   8.458083   9.128493   8.568597   7.227320
    33  H    5.775074   7.545702   8.588508   8.454020   7.244109
    34  H    7.424982   9.141878  10.094000   9.815306   8.530841
    35  H    6.411584   8.050319   9.030665   8.858571   7.670228
    36  C    1.529664   6.456678   7.855832   8.668044   8.237216
    37  H    2.170307   6.895717   8.287278   8.946792   8.349242
    38  H    2.161456   7.344936   8.741432   9.630499   9.262670
    39  C    2.533629   6.136011   7.457774   8.305137   7.979380
    40  H    2.806521   5.408765   6.693757   7.434160   7.044165
    41  H    2.788201   5.970331   7.248809   8.245466   8.107322
    42  H    3.489704   7.121439   8.406583   9.209409   8.846578
                   11         12         13         14         15
    11  C    0.000000
    12  H    2.564748   0.000000
    13  H    6.597820   4.302066   0.000000
    14  H    6.336476   4.406211   1.794332   0.000000
    15  H    3.388876   3.799187   5.715946   4.631512   0.000000
    16  H    1.082944   2.320355   6.559766   6.565121   4.300985
    17  C    3.813870   6.282296   9.837779   9.151677   4.723061
    18  C    4.338445   5.928249   8.354707   7.250571   2.672302
    19  H    2.118589   4.583561   8.687003   8.434384   4.937813
    20  F    4.643364   6.991159  10.467679   9.601100   5.076858
    21  F    4.642106   6.997676  10.224265   9.527780   5.073770
    22  F    4.100495   6.665085  10.525105  10.018152   5.815024
    23  F    4.998433   6.035831   7.752317   6.459444   2.298556
    24  F    5.005407   6.740796   9.080794   8.077563   3.648387
    25  F    5.000896   6.727012   9.347149   8.157683   3.647941
    26  O    3.821574   2.749540   5.575236   6.391489   6.109057
    27  C    4.302130   3.671246   6.707227   7.540345   7.022989
    28  O    3.958805   4.174197   7.722067   8.352967   7.064894
    29  C    5.704467   4.749997   7.224620   8.280018   8.342330
    30  C    6.386376   4.827161   6.353725   7.631368   8.541842
    31  H    5.884816   5.042333   7.769995   8.724780   8.659292
    32  H    6.409824   5.679778   8.049795   9.171940   9.136125
    33  H    6.021809   4.177078   5.608222   6.815770   7.948730
    34  H    7.428887   5.860057   7.114494   8.474044   9.608728
    35  H    6.536191   4.927965   5.987322   7.378024   8.465027
    36  C    6.940659   4.614528   2.159686   2.169732   6.004854
    37  H    7.000333   4.530779   2.492574   3.090243   6.595810
    38  H    7.980298   5.669469   2.464731   2.486414   6.793951
    39  C    6.781206   4.753225   3.482620   2.784787   5.658492
    40  H    5.860414   3.945988   3.818534   3.175067   5.076451
    41  H    7.002431   5.212760   3.786355   2.577010   5.329710
    42  H    7.656573   5.622428   4.310207   3.788776   6.672671
                   16         17         18         19         20
    16  H    0.000000
    17  C    4.649190   0.000000
    18  C    5.421314   3.072982   0.000000
    19  H    2.403112   2.726619   4.755400   0.000000
    20  F    5.506491   1.381025   3.107364   3.698802   0.000000
    21  F    5.505400   1.381167   3.108843   3.700468   2.256056
    22  F    4.674932   1.384910   4.440847   2.340880   2.227929
    23  F    6.053850   4.442384   1.384751   5.846593   4.423664
    24  F    6.056956   3.102380   1.381035   5.111277   3.377252
    25  F    6.051899   3.103727   1.381135   5.106473   2.517770
    26  O    2.978738   7.365956   7.827008   5.058014   8.376429
    27  C    3.303417   7.638841   8.516813   5.100132   8.652528
    28  O    2.972858   6.831823   8.154829   4.200521   7.876173
    29  C    4.670046   9.072623   9.958544   6.466546  10.042295
    30  C    5.434292   9.995560  10.472979   7.514162  10.934688
    31  H    4.810495   9.191394  10.210482   6.518205  10.060070
    32  H    5.391534   9.555858  10.621435   6.944662  10.600692
    33  H    5.121119   9.758370  10.016776   7.360320  10.601735
    34  H    6.448998  11.015880  11.554252   8.478413  11.936604
    35  H    5.671184  10.102558  10.434861   7.741236  11.116933
    36  C    6.898492  10.175884   8.648533   9.034123  10.569351
    37  H    6.785957  10.460544   9.225516   9.046100  10.911176
    38  H    7.967461  11.132158   9.429585  10.085756  11.509885
    39  C    6.846846   9.760774   8.162510   8.801484   9.965577
    40  H    5.903822   8.878344   7.509963   7.827247   9.076283
    41  H    7.231685   9.662305   7.759449   9.010452   9.792079
    42  H    7.656558  10.641378   9.105357   9.622019  10.778762
                   21         22         23         24         25
    21  F    0.000000
    22  F    2.227602   0.000000
    23  F    4.424387   5.795753   0.000000
    24  F    2.517882   4.419346   2.226573   0.000000
    25  F    3.383854   4.419944   2.226355   2.255593   0.000000
    26  O    7.952795   7.315141   8.180021   8.307723   8.707243
    27  C    8.299802   7.367286   9.012630   8.974448   9.294905
    28  O    7.512569   6.372708   8.841931   8.527034   8.842959
    29  C    9.777127   8.735385  10.408783  10.461632  10.702847
    30  C   10.666874   9.824689  10.733960  11.037871  11.289467
    31  H   10.022495   8.782058  10.707926  10.802008  10.829887
    32  H   10.177971   9.117847  11.132199  11.011528  11.396580
    33  H   10.496304   9.695472  10.193174  10.695702  10.791619
    34  H   11.715836  10.787578  11.814396  12.135383  12.341119
    35  H   10.644017  10.001119  10.637239  10.905932  11.360602
    36  C   10.783351  10.872473   8.012849   9.630200   9.383023
    37  H   11.135411  11.030976   8.721893  10.202867   9.950366
    38  H   11.679648  11.880066   8.679972  10.380341  10.182201
    39  C   10.474473  10.502872   7.515827   9.286922   8.702329
    40  H    9.675661   9.556468   7.016096   8.674330   7.993579
    41  H   10.296608  10.527359   6.963045   8.880146   8.283838
    42  H   11.420873  11.343757   8.467602  10.275473   9.550156
                   26         27         28         29         30
    26  O    0.000000
    27  C    1.221521   0.000000
    28  O    2.217449   1.346281   0.000000
    29  C    2.382339   1.506199   2.462702   0.000000
    30  C    2.767658   2.533615   3.782646   1.528733   0.000000
    31  H    3.094355   2.139165   2.750221   1.110942   2.159527
    32  H    3.090484   2.138270   2.751326   1.110966   2.160328
    33  H    2.749690   2.806198   4.079725   2.179721   1.111071
    34  H    3.863120   3.482459   4.616417   2.169550   1.110447
    35  H    2.742823   2.804681   4.080395   2.180195   1.110996
    36  C    6.399292   7.383121   8.351902   7.787678   6.943908
    37  H    5.962733   6.848664   7.902989   7.069353   6.128218
    38  H    7.348011   8.351311   9.365504   8.694807   7.742358
    39  C    6.953678   7.861622   8.671820   8.357195   7.705740
    40  H    6.267663   7.108756   7.824359   7.669847   7.181398
    41  H    7.593133   8.563121   9.297601   9.187392   8.596422
    42  H    7.700567   8.523791   9.364413   8.875822   8.159657
                   31         32         33         34         35
    31  H    0.000000
    32  H    1.804863   0.000000
    33  H    2.503656   3.090036   0.000000
    34  H    2.484331   2.483915   1.804226   0.000000
    35  H    3.089789   2.506674   1.812720   1.804120   0.000000
    36  C    8.049698   8.769904   5.965803   7.595711   6.907136
    37  H    7.285276   8.055408   5.120150   6.686859   6.167677
    38  H    8.994151   9.642818   6.793967   8.328812   7.631845
    39  C    8.461056   9.406204   6.665235   8.378497   7.831807
    40  H    7.703333   8.741643   6.140073   7.900969   7.403183
    41  H    9.336263  10.219648   7.589912   9.328569   8.654557
    42  H    8.884136   9.942808   7.079297   8.720444   8.371777
                   36         37         38         39         40
    36  C    0.000000
    37  H    1.111682   0.000000
    38  H    1.111542   1.803536   0.000000
    39  C    1.527266   2.167030   2.157811   0.000000
    40  H    2.181922   2.516558   3.090478   1.110529   0.000000
    41  H    2.177565   3.094252   2.502327   1.110877   1.810663
    42  H    2.167447   2.492692   2.479703   1.110335   1.802677
                   41         42
    41  H    0.000000
    42  H    1.804730   0.000000
 Stoichiometry    C15H16F6NO4(1-)
 Framework group  C1[X(C15H16F6NO4)]
 Deg. of freedom   120
 Full point group                 C1      NOp   1
 Largest Abelian subgroup         C1      NOp   1
 Largest concise Abelian subgroup C1      NOp   1
                         Standard orientation:                         
 ---------------------------------------------------------------------
 Center     Atomic      Atomic             Coordinates (Angstroms)
 Number     Number       Type             X           Y           Z
 ---------------------------------------------------------------------
      1          6           0        0.044478   -0.185796    0.083541
      2          7           0        1.415619   -0.621835    0.021883
      3          6           0        1.901687   -1.848158   -0.329425
      4          8           0        1.162870   -2.764522   -0.650625
      5          8           0        3.249713   -2.032214   -0.327618
      6          6           0        3.912360   -3.192675   -0.691001
      7          6           0       -1.073534   -1.014418   -0.157817
      8          6           0       -2.398008   -0.520700   -0.084826
      9          6           0       -2.606582    0.854360    0.240337
     10          6           0       -1.483409    1.666142    0.481390
     11          6           0       -0.192320    1.155556    0.405931
     12          1           0        2.131924    0.080865    0.261496
     13          1           0        4.582250   -2.958748   -1.545277
     14          1           0        3.214061   -3.993771   -1.019528
     15          1           0       -0.943587   -2.048973   -0.400955
     16          1           0        0.637730    1.823601    0.599585
     17          6           0       -3.991555    1.482419    0.338282
     18          6           0       -3.553975   -1.478782   -0.356723
     19          1           0       -1.590677    2.713302    0.732187
     20          9           0       -4.735140    0.856166    1.319159
     21          9           0       -4.649052    1.384743   -0.872412
     22          9           0       -3.927826    2.826822    0.664615
     23          9           0       -3.115499   -2.759349   -0.648995
     24          9           0       -4.293472   -1.042768   -1.438524
     25          9           0       -4.370816   -1.569974    0.753226
     26          8           0        3.238607    2.391414   -0.736794
     27          6           0        3.350912    3.505911   -0.249558
     28          8           0        2.246769    4.243468   -0.027405
     29          6           0        4.700014    4.073743    0.105584
     30          6           0        5.854362    3.119258   -0.200137
     31          1           0        4.711655    4.312540    1.190495
     32          1           0        4.851240    5.013918   -0.466646
     33          1           0        5.741824    2.179032    0.381058
     34          1           0        6.816406    3.597038    0.081449
     35          1           0        5.881327    2.880136   -1.284759
     36          6           0        4.761790   -3.704998    0.473415
     37          1           0        5.487586   -2.919471    0.776737
     38          1           0        5.331083   -4.598079    0.136015
     39          6           0        3.905532   -4.096017    1.676107
     40          1           0        3.341583   -3.218320    2.056746
     41          1           0        3.188684   -4.896418    1.394092
     42          1           0        4.559637   -4.474810    2.489439
 ---------------------------------------------------------------------
 Rotational constants (GHZ):           0.2015490           0.1008258           0.0710944
 Standard basis: 6-311+G(d) (5D, 7F)
 There are   646 symmetry adapted cartesian basis functions of A   symmetry.
 There are   620 symmetry adapted basis functions of A   symmetry.
   620 basis functions,  1016 primitive gaussians,   646 cartesian basis functions
   100 alpha electrons      100 beta electrons
       nuclear repulsion energy      2417.5915037261 Hartrees.
 NAtoms=   42 NActive=   42 NUniq=   42 SFac= 1.00D+00 NAtFMM=   60 NAOKFM=F Big=F
 Integral buffers will be    131072 words long.
 Raffenetti 2 integral format.
 Two-electron integral symmetry is turned on.
 Nuclear repulsion after empirical dispersion term =     2417.5890542772 Hartrees.
 One-electron integrals computed using PRISM.
 NBasis=   620 RedAO= T EigKep=  1.16D-06  NBF=   620
 NBsUse=   618 1.00D-06 EigRej=  6.37D-07 NBFU=   618
 ExpMin= 4.38D-02 ExpMax= 1.14D+04 ExpMxC= 1.72D+03 IAcc=3 IRadAn=         5 AccDes= 0.00D+00
 Harris functional with IExCor= 1009 and IRadAn=       5 diagonalized for initial guess.
 HarFok:  IExCor= 1009 AccDes= 0.00D+00 IRadAn=         5 IDoV= 1 UseB2=F ITyADJ=14
 ICtDFT=  3500011 ScaDFX=  1.000000  1.000000  1.000000  1.000000
 FoFCou: FMM=F IPFlag=           0 FMFlag=      100000 FMFlg1=           0
         NFxFlg=           0 DoJE=T BraDBF=F KetDBF=T FulRan=T
         wScrn=  0.000000 ICntrl=       500 IOpCl=  0 I1Cent=   200000004 NGrid=           0
         NMat0=    1 NMatS0=      1 NMatT0=    0 NMatD0=    1 NMtDS0=    0 NMtDT0=    0
 Petite list used in FoFCou.
 Requested convergence on RMS density matrix=1.00D-08 within 128 cycles.
 Requested convergence on MAX density matrix=1.00D-06.
 Requested convergence on             energy=1.00D-06.
 No special actions if energy rises.
 SCF Done:  E(RM062X) =  -1535.90769471     A.U. after   18 cycles
            NFock= 18  Conv=0.20D-08     -V/T= 2.0040
 DoSCS=F DFT=T ScalE2(SS,OS)=  1.000000  1.000000
 Range of M.O.s used for correlation:     1   618
 NBasis=   620 NAE=   100 NBE=   100 NFC=     0 NFV=     0
 NROrb=    618 NOA=   100 NOB=   100 NVA=   518 NVB=   518

 **** Warning!!: The largest alpha MO coefficient is  0.12508636D+03

 Symmetrizing basis deriv contribution to polar:
 IMax=3 JMax=2 DiffMx= 0.00D+00
 G2DrvN: will do    43 centers at a time, making    1 passes.
 Calling FoFCou, ICntrl=  3107 FMM=F I1Cent=   0 AccDes= 0.00D+00.
 End of G2Drv F.D. properties file   721 does not exist.
 End of G2Drv F.D. properties file   722 does not exist.
 End of G2Drv F.D. properties file   788 does not exist.
          IDoAtm=111111111111111111111111111111111111111111
          Differentiating once with respect to nuclear coordinates.
 CalDSu exits because no D1Ps are significant.
          There are   129 degrees of freedom in the 1st order CPHF.  IDoFFX=6 NUNeed=     0.
    123 vectors produced by pass  0 Test12= 5.18D-14 1.00D-09 XBig12= 6.29D-01 1.67D-01.
 AX will form    64 AO Fock derivatives at one time.
    123 vectors produced by pass  1 Test12= 5.18D-14 1.00D-09 XBig12= 3.62D-02 5.90D-02.
    123 vectors produced by pass  2 Test12= 5.18D-14 1.00D-09 XBig12= 1.36D-03 4.72D-03.
    123 vectors produced by pass  3 Test12= 5.18D-14 1.00D-09 XBig12= 1.22D-05 3.94D-04.
    123 vectors produced by pass  4 Test12= 5.18D-14 1.00D-09 XBig12= 9.93D-08 3.49D-05.
    123 vectors produced by pass  5 Test12= 5.18D-14 1.00D-09 XBig12= 5.77D-10 2.76D-06.
    108 vectors produced by pass  6 Test12= 5.18D-14 1.00D-09 XBig12= 2.61D-12 1.44D-07.
     42 vectors produced by pass  7 Test12= 5.18D-14 1.00D-09 XBig12= 9.90D-15 9.66D-09.
 InvSVY:  IOpt=1 It=  1 EMax= 7.77D-16
 Solved reduced A of dimension   888 with   129 vectors.
 End of Minotr F.D. properties file   721 does not exist.
 End of Minotr F.D. properties file   722 does not exist.
 End of Minotr F.D. properties file   788 does not exist.

 **********************************************************************

            Population analysis using the SCF Density.

 **********************************************************************

 Orbital symmetries:
       Occupied  (A) (A) (A) (A) (A) (A) (A) (A) (A) (A) (A) (A)
                 (A) (A) (A) (A) (A) (A) (A) (A) (A) (A) (A) (A)
                 (A) (A) (A) (A) (A) (A) (A) (A) (A) (A) (A) (A)
                 (A) (A) (A) (A) (A) (A) (A) (A) (A) (A) (A) (A)
                 (A) (A) (A) (A) (A) (A) (A) (A) (A) (A) (A) (A)
                 (A) (A) (A) (A) (A) (A) (A) (A) (A) (A) (A) (A)
                 (A) (A) (A) (A) (A) (A) (A) (A) (A) (A) (A) (A)
                 (A) (A) (A) (A) (A) (A) (A) (A) (A) (A) (A) (A)
                 (A) (A) (A) (A)
       Virtual   (A) (A) (A) (A) (A) (A) (A) (A) (A) (A) (A) (A)
                 (A) (A) (A) (A) (A) (A) (A) (A) (A) (A) (A) (A)
                 (A) (A) (A) (A) (A) (A) (A) (A) (A) (A) (A) (A)
                 (A) (A) (A) (A) (A) (A) (A) (A) (A) (A) (A) (A)
                 (A) (A) (A) (A) (A) (A) (A) (A) (A) (A) (A) (A)
                 (A) (A) (A) (A) (A) (A) (A) (A) (A) (A) (A) (A)
                 (A) (A) (A) (A) (A) (A) (A) (A) (A) (A) (A) (A)
                 (A) (A) (A) (A) (A) (A) (A) (A) (A) (A) (A) (A)
                 (A) (A) (A) (A) (A) (A) (A) (A) (A) (A) (A) (A)
                 (A) (A) (A) (A) (A) (A) (A) (A) (A) (A) (A) (A)
                 (A) (A) (A) (A) (A) (A) (A) (A) (A) (A) (A) (A)
                 (A) (A) (A) (A) (A) (A) (A) (A) (A) (A) (A) (A)
                 (A) (A) (A) (A) (A) (A) (A) (A) (A) (A) (A) (A)
                 (A) (A) (A) (A) (A) (A) (A) (A) (A) (A) (A) (A)
                 (A) (A) (A) (A) (A) (A) (A) (A) (A) (A) (A) (A)
                 (A) (A) (A) (A) (A) (A) (A) (A) (A) (A) (A) (A)
                 (A) (A) (A) (A) (A) (A) (A) (A) (A) (A) (A) (A)
                 (A) (A) (A) (A) (A) (A) (A) (A) (A) (A) (A) (A)
                 (A) (A) (A) (A) (A) (A) (A) (A) (A) (A) (A) (A)
                 (A) (A) (A) (A) (A) (A) (A) (A) (A) (A) (A) (A)
                 (A) (A) (A) (A) (A) (A) (A) (A) (A) (A) (A) (A)
                 (A) (A) (A) (A) (A) (A) (A) (A) (A) (A) (A) (A)
                 (A) (A) (A) (A) (A) (A) (A) (A) (A) (A) (A) (A)
                 (A) (A) (A) (A) (A) (A) (A) (A) (A) (A) (A) (A)
                 (A) (A) (A) (A) (A) (A) (A) (A) (A) (A) (A) (A)
                 (A) (A) (A) (A) (A) (A) (A) (A) (A) (A) (A) (A)
                 (A) (A) (A) (A) (A) (A) (A) (A) (A) (A) (A) (A)
                 (A) (A) (A) (A) (A) (A) (A) (A) (A) (A) (A) (A)
                 (A) (A) (A) (A) (A) (A) (A) (A) (A) (A) (A) (A)
                 (A) (A) (A) (A) (A) (A) (A) (A) (A) (A) (A) (A)
                 (A) (A) (A) (A) (A) (A) (A) (A) (A) (A) (A) (A)
                 (A) (A) (A) (A) (A) (A) (A) (A) (A) (A) (A) (A)
                 (A) (A) (A) (A) (A) (A) (A) (A) (A) (A) (A) (A)
                 (A) (A) (A) (A) (A) (A) (A) (A) (A) (A) (A) (A)
                 (A) (A) (A) (A) (A) (A) (A) (A) (A) (A) (A) (A)
                 (A) (A) (A) (A) (A) (A) (A) (A) (A) (A) (A) (A)
                 (A) (A) (A) (A) (A) (A) (A) (A) (A) (A) (A) (A)
                 (A) (A) (A) (A) (A) (A) (A) (A) (A) (A) (A) (A)
                 (A) (A) (A) (A) (A) (A) (A) (A) (A) (A) (A) (A)
                 (A) (A) (A) (A) (A) (A) (A) (A) (A) (A) (A) (A)
                 (A) (A) (A) (A) (A) (A) (A) (A) (A) (A) (A) (A)
                 (A) (A) (A) (A) (A) (A) (A) (A) (A) (A) (A) (A)
                 (A) (A) (A) (A) (A) (A) (A) (A) (A) (A) (A) (A)
                 (A) (A)
 The electronic state is 1-A.
 Alpha  occ. eigenvalues --  -25.20818 -25.20520 -25.20512 -25.20432 -25.20234
 Alpha  occ. eigenvalues --  -25.20108 -19.59236 -19.52167 -19.40668 -19.37574
 Alpha  occ. eigenvalues --  -14.72197 -10.74445 -10.74038 -10.63318 -10.54347
 Alpha  occ. eigenvalues --  -10.53061 -10.52344 -10.51602 -10.49235 -10.49073
 Alpha  occ. eigenvalues --  -10.47875 -10.47864 -10.46844 -10.46341 -10.40951
 Alpha  occ. eigenvalues --  -10.40345  -1.37489  -1.36928  -1.29612  -1.29410
 Alpha  occ. eigenvalues --   -1.28980  -1.28876  -1.16750  -1.06827  -0.98564
 Alpha  occ. eigenvalues --   -0.97851  -0.90937  -0.84766  -0.83217  -0.81673
 Alpha  occ. eigenvalues --   -0.81025  -0.74921  -0.73807  -0.73243  -0.71924
 Alpha  occ. eigenvalues --   -0.66506  -0.65276  -0.63009  -0.61368  -0.61230
 Alpha  occ. eigenvalues --   -0.60278  -0.60130  -0.60023  -0.58939  -0.58034
 Alpha  occ. eigenvalues --   -0.56798  -0.55815  -0.51165  -0.50736  -0.50544
 Alpha  occ. eigenvalues --   -0.50027  -0.49065  -0.48941  -0.47911  -0.47491
 Alpha  occ. eigenvalues --   -0.46629  -0.45843  -0.45457  -0.45231  -0.44790
 Alpha  occ. eigenvalues --   -0.44437  -0.44249  -0.43943  -0.43456  -0.43099
 Alpha  occ. eigenvalues --   -0.42670  -0.42138  -0.40668  -0.39772  -0.39102
 Alpha  occ. eigenvalues --   -0.37102  -0.36883  -0.36561  -0.36138  -0.35122
 Alpha  occ. eigenvalues --   -0.34930  -0.33290  -0.32510  -0.31378  -0.30713
 Alpha  occ. eigenvalues --   -0.30165  -0.28768  -0.28212  -0.27466  -0.26276
 Alpha  occ. eigenvalues --   -0.25193  -0.21681  -0.15533  -0.13425  -0.12325
 Alpha virt. eigenvalues --    0.05697   0.07458   0.07799   0.09018   0.09587
 Alpha virt. eigenvalues --    0.09794   0.10384   0.10930   0.11641   0.12070
 Alpha virt. eigenvalues --    0.12474   0.12819   0.13142   0.13411   0.13557
 Alpha virt. eigenvalues --    0.13749   0.14617   0.14755   0.15076   0.15238
 Alpha virt. eigenvalues --    0.15683   0.16063   0.16292   0.16908   0.17463
 Alpha virt. eigenvalues --    0.17853   0.18244   0.18490   0.18679   0.18807
 Alpha virt. eigenvalues --    0.19035   0.19630   0.20086   0.20260   0.20620
 Alpha virt. eigenvalues --    0.21014   0.21254   0.21482   0.21675   0.22272
 Alpha virt. eigenvalues --    0.22507   0.22714   0.23082   0.23655   0.23797
 Alpha virt. eigenvalues --    0.24115   0.24490   0.25138   0.25380   0.25826
 Alpha virt. eigenvalues --    0.26199   0.26817   0.27059   0.27274   0.27530
 Alpha virt. eigenvalues --    0.27850   0.28454   0.28610   0.28703   0.28954
 Alpha virt. eigenvalues --    0.29468   0.30012   0.30250   0.30603   0.30719
 Alpha virt. eigenvalues --    0.31229   0.31637   0.31826   0.31985   0.32373
 Alpha virt. eigenvalues --    0.32678   0.32909   0.33099   0.33519   0.33758
 Alpha virt. eigenvalues --    0.34108   0.34477   0.34839   0.35182   0.35756
 Alpha virt. eigenvalues --    0.35977   0.36378   0.36574   0.36703   0.37088
 Alpha virt. eigenvalues --    0.37398   0.37832   0.37951   0.37969   0.38476
 Alpha virt. eigenvalues --    0.38853   0.39547   0.39685   0.40151   0.40357
 Alpha virt. eigenvalues --    0.40721   0.41116   0.41349   0.41644   0.42332
 Alpha virt. eigenvalues --    0.42750   0.42929   0.43036   0.43700   0.44021
 Alpha virt. eigenvalues --    0.44757   0.45068   0.45244   0.45542   0.45788
 Alpha virt. eigenvalues --    0.46257   0.46584   0.46980   0.47379   0.47760
 Alpha virt. eigenvalues --    0.47853   0.48587   0.48713   0.49228   0.49696
 Alpha virt. eigenvalues --    0.50217   0.50651   0.50807   0.51035   0.51364
 Alpha virt. eigenvalues --    0.51622   0.52035   0.52750   0.53238   0.53482
 Alpha virt. eigenvalues --    0.53953   0.54346   0.54844   0.54976   0.55462
 Alpha virt. eigenvalues --    0.55751   0.56386   0.56929   0.57448   0.57925
 Alpha virt. eigenvalues --    0.58599   0.59106   0.59649   0.61222   0.61528
 Alpha virt. eigenvalues --    0.63379   0.64052   0.64414   0.65030   0.65367
 Alpha virt. eigenvalues --    0.66182   0.66778   0.66958   0.67715   0.68156
 Alpha virt. eigenvalues --    0.68636   0.68869   0.69164   0.69406   0.70245
 Alpha virt. eigenvalues --    0.71126   0.71444   0.72293   0.72617   0.73690
 Alpha virt. eigenvalues --    0.74330   0.75422   0.76085   0.76432   0.76907
 Alpha virt. eigenvalues --    0.77484   0.78753   0.78878   0.79056   0.79337
 Alpha virt. eigenvalues --    0.80024   0.80300   0.80589   0.81480   0.81626
 Alpha virt. eigenvalues --    0.82001   0.82561   0.82872   0.83517   0.83958
 Alpha virt. eigenvalues --    0.84332   0.84690   0.85309   0.86071   0.87129
 Alpha virt. eigenvalues --    0.87415   0.87834   0.88649   0.88886   0.89269
 Alpha virt. eigenvalues --    0.89565   0.90853   0.91054   0.93478   0.94396
 Alpha virt. eigenvalues --    0.96599   0.97121   0.97793   0.99255   1.00052
 Alpha virt. eigenvalues --    1.01982   1.02397   1.04254   1.04708   1.05742
 Alpha virt. eigenvalues --    1.07609   1.08142   1.09269   1.09433   1.10725
 Alpha virt. eigenvalues --    1.12280   1.13217   1.13449   1.13900   1.16343
 Alpha virt. eigenvalues --    1.17077   1.18827   1.19991   1.20273   1.20622
 Alpha virt. eigenvalues --    1.20954   1.22267   1.24821   1.26891   1.29903
 Alpha virt. eigenvalues --    1.30882   1.31247   1.32120   1.32601   1.32758
 Alpha virt. eigenvalues --    1.34043   1.35429   1.35857   1.37820   1.39928
 Alpha virt. eigenvalues --    1.40430   1.41388   1.42035   1.44221   1.44666
 Alpha virt. eigenvalues --    1.45873   1.46657   1.46880   1.48169   1.48783
 Alpha virt. eigenvalues --    1.49097   1.49885   1.50451   1.51810   1.53330
 Alpha virt. eigenvalues --    1.54092   1.54456   1.55052   1.56001   1.56821
 Alpha virt. eigenvalues --    1.58262   1.59044   1.59549   1.59865   1.59945
 Alpha virt. eigenvalues --    1.60373   1.60978   1.61709   1.61998   1.62916
 Alpha virt. eigenvalues --    1.63564   1.65323   1.66064   1.66257   1.66927
 Alpha virt. eigenvalues --    1.67937   1.68073   1.68392   1.69132   1.69915
 Alpha virt. eigenvalues --    1.70694   1.71904   1.72382   1.73489   1.73685
 Alpha virt. eigenvalues --    1.74280   1.74847   1.75431   1.77493   1.78278
 Alpha virt. eigenvalues --    1.79710   1.79947   1.80827   1.81795   1.84197
 Alpha virt. eigenvalues --    1.85685   1.85869   1.86291   1.86681   1.88261
 Alpha virt. eigenvalues --    1.89603   1.89984   1.90590   1.91512   1.92371
 Alpha virt. eigenvalues --    1.92774   1.93040   1.94213   1.96323   1.97182
 Alpha virt. eigenvalues --    1.97660   1.99635   2.00784   2.01343   2.02026
 Alpha virt. eigenvalues --    2.04235   2.04802   2.05267   2.07281   2.08926
 Alpha virt. eigenvalues --    2.11607   2.11841   2.12615   2.12851   2.13391
 Alpha virt. eigenvalues --    2.16146   2.17621   2.18208   2.21912   2.22845
 Alpha virt. eigenvalues --    2.23655   2.27914   2.28540   2.29079   2.32304
 Alpha virt. eigenvalues --    2.34574   2.37532   2.41676   2.42348   2.44948
 Alpha virt. eigenvalues --    2.46782   2.50184   2.50667   2.53941   2.55684
 Alpha virt. eigenvalues --    2.62091   2.63318   2.65155   2.66089   2.66451
 Alpha virt. eigenvalues --    2.66666   2.67914   2.69582   2.70344   2.70919
 Alpha virt. eigenvalues --    2.71248   2.72099   2.76382   2.78441   2.79077
 Alpha virt. eigenvalues --    2.80996   2.85979   2.89500   2.89830   2.91259
 Alpha virt. eigenvalues --    2.92747   2.93783   2.99093   3.00387   3.00699
 Alpha virt. eigenvalues --    3.02025   3.03938   3.05362   3.06305   3.08909
 Alpha virt. eigenvalues --    3.10053   3.10373   3.10997   3.11531   3.12062
 Alpha virt. eigenvalues --    3.13007   3.13979   3.16217   3.17423   3.18347
 Alpha virt. eigenvalues --    3.18504   3.21195   3.21375   3.22452   3.23648
 Alpha virt. eigenvalues --    3.25322   3.29312   3.29671   3.29826   3.34092
 Alpha virt. eigenvalues --    3.37067   3.37894   3.38312   3.39335   3.40437
 Alpha virt. eigenvalues --    3.42722   3.44194   3.47870   3.49606   3.50474
 Alpha virt. eigenvalues --    3.51045   3.52323   3.53272   3.53905   3.57548
 Alpha virt. eigenvalues --    3.61190   3.62803   3.74929   3.76618   3.79367
 Alpha virt. eigenvalues --    3.81370   3.85059   3.88566   3.88875   3.89819
 Alpha virt. eigenvalues --    3.91211   3.92208   3.92448   3.92552   3.93819
 Alpha virt. eigenvalues --    3.94390   3.94732   3.95469   3.95522   3.95791
 Alpha virt. eigenvalues --    3.97506   3.98177   3.99856   4.00590   4.04624
 Alpha virt. eigenvalues --    4.05365   4.06057   4.06546   4.07107   4.08351
 Alpha virt. eigenvalues --    4.13568   4.16056   4.18802   4.22448   4.23830
 Alpha virt. eigenvalues --    4.27052   4.27782   4.28278   4.30242   4.31357
 Alpha virt. eigenvalues --    4.33109   4.35103   4.35433   4.62328   4.75821
 Alpha virt. eigenvalues --    4.83159   4.87915   4.98257   5.03028   5.05035
 Alpha virt. eigenvalues --    5.06293   5.13903   5.24076   5.27139   5.36803
 Alpha virt. eigenvalues --    5.40142   5.46621   5.49462   5.52464   5.54197
 Alpha virt. eigenvalues --    5.83253   5.89602   6.08447   6.13880   6.45252
 Alpha virt. eigenvalues --    6.54283   6.54474   6.55018   6.55338   6.59902
 Alpha virt. eigenvalues --    6.60297   6.60419   6.61120   6.67806   6.68394
 Alpha virt. eigenvalues --    6.71177   6.73213   6.79143   6.88401   6.90609
 Alpha virt. eigenvalues --    6.92952   6.94828  23.49860  23.64015  23.68975
 Alpha virt. eigenvalues --   23.70080  23.73098  23.81856  23.85750  23.92593
 Alpha virt. eigenvalues --   23.97475  23.98705  24.01322  24.08446  24.11439
 Alpha virt. eigenvalues --   24.14323  24.24962  35.72708  50.09720  50.21761
 Alpha virt. eigenvalues --   50.22544  50.31600  66.97063  66.97436  66.97599
 Alpha virt. eigenvalues --   67.00182  67.02619  67.07752
          Condensed to atoms (all electrons):
               1          2          3          4          5          6
     1  C   38.999884  -0.250099  -1.807967  -0.263270  -0.423564  -0.414566
     2  N   -0.250099   7.655584  -0.054017  -0.062064  -0.272898  -0.215329
     3  C   -1.807967  -0.054017   8.435955   0.633466   0.308943  -0.127082
     4  O   -0.263270  -0.062064   0.633466   8.040164  -0.185534  -0.077966
     5  O   -0.423564  -0.272898   0.308943  -0.185534   8.438105   0.249561
     6  C   -0.414566  -0.215329  -0.127082  -0.077966   0.249561   6.503520
     7  C  -11.433303   0.070388  -0.105142   0.371455   0.059913  -0.043268
     8  C  -10.945039   0.173487   0.200628   0.019170   0.028711   0.002955
     9  C    5.804885  -0.161247  -1.465593  -0.022993  -0.024524  -0.058745
    10  C   -5.085374   0.188090   0.192051  -0.010106  -0.001916   0.008138
    11  C   -2.061414   0.089264  -0.540257  -0.070497  -0.051920  -0.038398
    12  H   -0.080495   0.216466   0.049694   0.001006   0.027541   0.011162
    13  H    0.002476  -0.005588   0.001899   0.004310  -0.092762   0.456592
    14  H    0.004657   0.014936  -0.007319   0.000634  -0.045542   0.400859
    15  H   -0.004288  -0.018254   0.063067   0.003389   0.002478   0.003690
    16  H    0.042578  -0.007269  -0.005225   0.000110  -0.000294  -0.000206
    17  C    2.302618  -0.031903  -0.342460  -0.001290  -0.000368  -0.004936
    18  C   -7.571037   0.110631   0.483457  -0.003537   0.006933   0.015623
    19  H    0.007733  -0.002215   0.002191  -0.000018  -0.000006   0.000012
    20  F   -0.010658   0.000020  -0.000080  -0.000005   0.000000  -0.000001
    21  F   -0.002910  -0.000065  -0.000079  -0.000003   0.000000  -0.000001
    22  F    0.037062  -0.000005  -0.000174   0.000002   0.000000  -0.000001
    23  F    0.317826  -0.001477   0.002493   0.000473  -0.000034  -0.000073
    24  F    0.023074   0.000428   0.000018   0.000008   0.000002   0.000002
    25  F    0.034489   0.000290  -0.000352   0.000006  -0.000000   0.000000
    26  O    0.049565  -0.020575   0.000156  -0.000111   0.000565  -0.000333
    27  C    0.023741   0.004234   0.000720   0.000081  -0.000299  -0.000193
    28  O    0.040599   0.004026  -0.001123   0.000006  -0.000031   0.000038
    29  C   -0.015748   0.003962   0.000597  -0.000008  -0.000213   0.001151
    30  C    0.003105  -0.000819  -0.000253   0.000006   0.000121  -0.001571
    31  H   -0.002841   0.000239   0.000105  -0.000000  -0.000002   0.000023
    32  H    0.002051  -0.000071  -0.000078   0.000000   0.000002  -0.000000
    33  H    0.002807  -0.000569  -0.000193   0.000001   0.000000  -0.000154
    34  H    0.000109  -0.000001  -0.000024  -0.000000   0.000001   0.000002
    35  H   -0.001486   0.000205   0.000176  -0.000000  -0.000014   0.000146
    36  C   -0.037955  -0.016490  -0.002360  -0.020121  -0.126228  -0.166387
    37  H   -0.002989   0.002232  -0.023263  -0.000301  -0.007445  -0.042751
    38  H    0.000006  -0.000050   0.006068   0.000451   0.018203  -0.053275
    39  C   -0.080673  -0.029364  -0.127178  -0.011417   0.051492   0.060208
    40  H   -0.015493  -0.004861  -0.013601  -0.001100   0.021216  -0.020109
    41  H   -0.000056   0.002217  -0.003609  -0.000846  -0.004552  -0.036227
    42  H    0.001959  -0.000530   0.013764  -0.000171  -0.001709   0.041975
               7          8          9         10         11         12
     1  C  -11.433303 -10.945039   5.804885  -5.085374  -2.061414  -0.080495
     2  N    0.070388   0.173487  -0.161247   0.188090   0.089264   0.216466
     3  C   -0.105142   0.200628  -1.465593   0.192051  -0.540257   0.049694
     4  O    0.371455   0.019170  -0.022993  -0.010106  -0.070497   0.001006
     5  O    0.059913   0.028711  -0.024524  -0.001916  -0.051920   0.027541
     6  C   -0.043268   0.002955  -0.058745   0.008138  -0.038398   0.011162
     7  C   24.085793   2.382779  -8.198486   0.952610  -4.704266   0.079658
     8  C    2.382779  55.272583 -18.009762  -6.724263  -6.624663   0.039332
     9  C   -8.198486 -18.009762  55.298861 -12.066377  -3.366579  -0.016457
    10  C    0.952610  -6.724263 -12.066377  28.457694   1.674248  -0.003277
    11  C   -4.704266  -6.624663  -3.366579   1.674248  22.441118  -0.074355
    12  H    0.079658   0.039332  -0.016457  -0.003277  -0.074355   0.277868
    13  H    0.006508   0.000417   0.000158  -0.000132  -0.001714  -0.000057
    14  H   -0.018608  -0.001650  -0.000706   0.000423   0.003478  -0.000140
    15  H    0.361736   0.005111  -0.003390  -0.041058  -0.070800   0.000325
    16  H   -0.065195  -0.012537   0.081325   0.055839   0.186501   0.005031
    17  C   -3.663592  10.366131 -12.734615  -6.006861  -3.498711  -0.000724
    18  C    5.184480 -19.274658   1.887775   4.648177   2.351071   0.003443
    19  H   -0.003403  -0.014714   0.082185   0.237530   0.019208   0.000045
    20  F    0.016010  -0.242233   0.246263   0.004231   0.042780   0.000001
    21  F    0.020235  -0.197698   0.181137   0.004912   0.018809   0.000001
    22  F    0.020442   0.042526  -0.292844   0.123036   0.170137  -0.000000
    23  F    0.217401  -0.686178   0.029803   0.041737   0.019489  -0.000007
    24  F   -0.008889   0.290299  -0.205520  -0.005771  -0.008309   0.000002
    25  F   -0.034376   0.359223  -0.203437  -0.011177  -0.016257   0.000001
    26  O    0.043462   0.018163  -0.019055   0.005920  -0.093727   0.010124
    27  C    0.004447   0.008601  -0.034832  -0.063343   0.040273   0.000478
    28  O   -0.007275  -0.006478   0.031083  -0.025406  -0.041417  -0.001165
    29  C   -0.014822  -0.006525   0.019655   0.028424  -0.018837  -0.000023
    30  C    0.000957   0.000525  -0.001819  -0.004837   0.002749   0.000642
    31  H   -0.000275  -0.000095   0.000226   0.000882   0.003863  -0.000059
    32  H    0.000177   0.000054  -0.000150  -0.001149  -0.001974   0.000008
    33  H    0.000351   0.000056  -0.000071  -0.000509  -0.003171   0.000263
    34  H    0.000009   0.000001  -0.000002  -0.000039  -0.000064  -0.000006
    35  H   -0.000191  -0.000038   0.000053   0.000319   0.001432  -0.000048
    36  C   -0.003995   0.010052  -0.008009   0.002398   0.006020   0.000369
    37  H   -0.001403  -0.000097  -0.000031   0.000086   0.000746  -0.000058
    38  H    0.000934   0.000055   0.000010  -0.000016  -0.000200   0.000012
    39  C    0.009749   0.001036  -0.001979   0.000867  -0.003164   0.000649
    40  H    0.008232   0.001692  -0.000185  -0.000512  -0.003508   0.000225
    41  H    0.000566  -0.000027   0.000025   0.000003   0.000082  -0.000015
    42  H   -0.001101  -0.000068   0.000005   0.000006   0.000179  -0.000000
              13         14         15         16         17         18
     1  C    0.002476   0.004657  -0.004288   0.042578   2.302618  -7.571037
     2  N   -0.005588   0.014936  -0.018254  -0.007269  -0.031903   0.110631
     3  C    0.001899  -0.007319   0.063067  -0.005225  -0.342460   0.483457
     4  O    0.004310   0.000634   0.003389   0.000110  -0.001290  -0.003537
     5  O   -0.092762  -0.045542   0.002478  -0.000294  -0.000368   0.006933
     6  C    0.456592   0.400859   0.003690  -0.000206  -0.004936   0.015623
     7  C    0.006508  -0.018608   0.361736  -0.065195  -3.663592   5.184480
     8  C    0.000417  -0.001650   0.005111  -0.012537  10.366131 -19.274658
     9  C    0.000158  -0.000706  -0.003390   0.081325 -12.734615   1.887775
    10  C   -0.000132   0.000423  -0.041058   0.055839  -6.006861   4.648177
    11  C   -0.001714   0.003478  -0.070800   0.186501  -3.498711   2.351071
    12  H   -0.000057  -0.000140   0.000325   0.005031  -0.000724   0.003443
    13  H    0.476572  -0.035015   0.000003  -0.000001   0.000006   0.000023
    14  H   -0.035015   0.434696  -0.000118   0.000000  -0.000028   0.000058
    15  H    0.000003  -0.000118   0.345014   0.000018   0.008116   0.002588
    16  H   -0.000001   0.000000   0.000018   0.333065   0.019094  -0.003504
    17  C    0.000006  -0.000028   0.008116   0.019094  30.738650 -12.097957
    18  C    0.000023   0.000058   0.002588  -0.003504 -12.097957  28.888836
    19  H   -0.000000   0.000000   0.000050  -0.003623  -0.020516   0.007552
    20  F    0.000000  -0.000000   0.000050   0.000037  -0.015940   0.125334
    21  F    0.000000  -0.000000   0.000038   0.000024   0.025069   0.115387
    22  F    0.000000  -0.000000  -0.000004   0.000051   0.002715   0.040382
    23  F    0.000000   0.000002   0.012893  -0.000007  -0.000761   0.203167
    24  F    0.000000   0.000000   0.000119  -0.000004   0.087577  -0.000131
    25  F   -0.000000   0.000000   0.000175  -0.000011   0.112673  -0.067269
    26  O   -0.000008  -0.000000   0.000001   0.002212  -0.000910   0.000893
    27  C   -0.000013   0.000005   0.000017   0.008062  -0.006817   0.000810
    28  O   -0.000000  -0.000000   0.000000   0.010353   0.000236  -0.000445
    29  C   -0.000066  -0.000006   0.000001   0.008410   0.002026  -0.000516
    30  C    0.000059  -0.000001   0.000001  -0.001649  -0.000079   0.000034
    31  H   -0.000000  -0.000000   0.000000  -0.000054   0.000010  -0.000001
    32  H    0.000000  -0.000000  -0.000000   0.000016  -0.000005   0.000001
    33  H   -0.000005   0.000000  -0.000000   0.000026  -0.000001   0.000001
    34  H    0.000000   0.000000  -0.000000   0.000000  -0.000000   0.000000
    35  H   -0.000001  -0.000000   0.000000  -0.000004   0.000001  -0.000000
    36  C   -0.090035  -0.025503   0.000407   0.000086  -0.000502   0.003270
    37  H   -0.005388   0.004761  -0.000000  -0.000000  -0.000001  -0.000001
    38  H   -0.001302  -0.005639  -0.000000   0.000000   0.000000   0.000000
    39  C    0.026220  -0.005974   0.000042  -0.000078  -0.000055   0.000460
    40  H   -0.000146  -0.000116  -0.000003   0.000001   0.000000   0.000123
    41  H    0.000001   0.003544  -0.000006   0.000000   0.000000  -0.000025
    42  H   -0.000205  -0.000370   0.000000   0.000000   0.000000  -0.000004
              19         20         21         22         23         24
     1  C    0.007733  -0.010658  -0.002910   0.037062   0.317826   0.023074
     2  N   -0.002215   0.000020  -0.000065  -0.000005  -0.001477   0.000428
     3  C    0.002191  -0.000080  -0.000079  -0.000174   0.002493   0.000018
     4  O   -0.000018  -0.000005  -0.000003   0.000002   0.000473   0.000008
     5  O   -0.000006   0.000000   0.000000   0.000000  -0.000034   0.000002
     6  C    0.000012  -0.000001  -0.000001  -0.000001  -0.000073   0.000002
     7  C   -0.003403   0.016010   0.020235   0.020442   0.217401  -0.008889
     8  C   -0.014714  -0.242233  -0.197698   0.042526  -0.686178   0.290299
     9  C    0.082185   0.246263   0.181137  -0.292844   0.029803  -0.205520
    10  C    0.237530   0.004231   0.004912   0.123036   0.041737  -0.005771
    11  C    0.019208   0.042780   0.018809   0.170137   0.019489  -0.008309
    12  H    0.000045   0.000001   0.000001  -0.000000  -0.000007   0.000002
    13  H   -0.000000   0.000000   0.000000   0.000000   0.000000   0.000000
    14  H    0.000000  -0.000000  -0.000000  -0.000000   0.000002   0.000000
    15  H    0.000050   0.000050   0.000038  -0.000004   0.012893   0.000119
    16  H   -0.003623   0.000037   0.000024   0.000051  -0.000007  -0.000004
    17  C   -0.020516  -0.015940   0.025069   0.002715  -0.000761   0.087577
    18  C    0.007552   0.125334   0.115387   0.040382   0.203167  -0.000131
    19  H    0.375605   0.000282   0.000120   0.008031  -0.000002   0.000036
    20  F    0.000282   8.954462  -0.034971  -0.028889   0.000087  -0.004094
    21  F    0.000120  -0.034971   8.952591  -0.030089   0.000096  -0.000622
    22  F    0.008031  -0.028889  -0.030089   9.032880   0.000127   0.000244
    23  F   -0.000002   0.000087   0.000096   0.000127   9.024878  -0.029214
    24  F    0.000036  -0.004094  -0.000622   0.000244  -0.029214   8.936353
    25  F    0.000027  -0.000791  -0.003976   0.000218  -0.028512  -0.034549
    26  O   -0.000066   0.000000  -0.000000   0.000002   0.000000   0.000000
    27  C   -0.000074   0.000003  -0.000013   0.000019  -0.000001   0.000005
    28  O   -0.000056  -0.000000  -0.000001  -0.000003  -0.000000  -0.000000
    29  C    0.000017   0.000001  -0.000000   0.000003  -0.000000   0.000000
    30  C   -0.000002  -0.000000  -0.000000  -0.000000   0.000000   0.000000
    31  H    0.000000   0.000000   0.000000  -0.000000   0.000000  -0.000000
    32  H    0.000000  -0.000000  -0.000000  -0.000000   0.000000   0.000000
    33  H    0.000000   0.000000  -0.000000  -0.000000   0.000000  -0.000000
    34  H   -0.000000  -0.000000  -0.000000  -0.000000  -0.000000   0.000000
    35  H    0.000000   0.000000   0.000000   0.000000   0.000000  -0.000000
    36  C   -0.000000   0.000000  -0.000000   0.000000  -0.000003   0.000004
    37  H    0.000000  -0.000000   0.000000  -0.000000  -0.000000  -0.000000
    38  H    0.000000   0.000000   0.000000   0.000000   0.000000  -0.000000
    39  C    0.000001  -0.000000   0.000000  -0.000000   0.000006  -0.000002
    40  H    0.000000   0.000000   0.000000   0.000000   0.000000  -0.000000
    41  H    0.000000   0.000000  -0.000000  -0.000000   0.000000   0.000000
    42  H   -0.000000  -0.000000  -0.000000   0.000000  -0.000000   0.000000
              25         26         27         28         29         30
     1  C    0.034489   0.049565   0.023741   0.040599  -0.015748   0.003105
     2  N    0.000290  -0.020575   0.004234   0.004026   0.003962  -0.000819
     3  C   -0.000352   0.000156   0.000720  -0.001123   0.000597  -0.000253
     4  O    0.000006  -0.000111   0.000081   0.000006  -0.000008   0.000006
     5  O   -0.000000   0.000565  -0.000299  -0.000031  -0.000213   0.000121
     6  C    0.000000  -0.000333  -0.000193   0.000038   0.001151  -0.001571
     7  C   -0.034376   0.043462   0.004447  -0.007275  -0.014822   0.000957
     8  C    0.359223   0.018163   0.008601  -0.006478  -0.006525   0.000525
     9  C   -0.203437  -0.019055  -0.034832   0.031083   0.019655  -0.001819
    10  C   -0.011177   0.005920  -0.063343  -0.025406   0.028424  -0.004837
    11  C   -0.016257  -0.093727   0.040273  -0.041417  -0.018837   0.002749
    12  H    0.000001   0.010124   0.000478  -0.001165  -0.000023   0.000642
    13  H   -0.000000  -0.000008  -0.000013  -0.000000  -0.000066   0.000059
    14  H    0.000000  -0.000000   0.000005  -0.000000  -0.000006  -0.000001
    15  H    0.000175   0.000001   0.000017   0.000000   0.000001   0.000001
    16  H   -0.000011   0.002212   0.008062   0.010353   0.008410  -0.001649
    17  C    0.112673  -0.000910  -0.006817   0.000236   0.002026  -0.000079
    18  C   -0.067269   0.000893   0.000810  -0.000445  -0.000516   0.000034
    19  H    0.000027  -0.000066  -0.000074  -0.000056   0.000017  -0.000002
    20  F   -0.000791   0.000000   0.000003  -0.000000   0.000001  -0.000000
    21  F   -0.003976  -0.000000  -0.000013  -0.000001  -0.000000  -0.000000
    22  F    0.000218   0.000002   0.000019  -0.000003   0.000003  -0.000000
    23  F   -0.028512   0.000000  -0.000001  -0.000000  -0.000000   0.000000
    24  F   -0.034549   0.000000   0.000005  -0.000000   0.000000   0.000000
    25  F    8.936879  -0.000000  -0.000003  -0.000000  -0.000000  -0.000000
    26  O   -0.000000   8.540136   0.334942  -0.204253  -0.280315   0.072234
    27  C   -0.000003   0.334942   5.479280   0.529463  -0.407004   0.177547
    28  O   -0.000000  -0.204253   0.529463   8.466431  -0.276136   0.033380
    29  C   -0.000000  -0.280315  -0.407004  -0.276136   6.983847  -0.512343
    30  C   -0.000000   0.072234   0.177547   0.033380  -0.512343   6.096859
    31  H   -0.000000  -0.001593  -0.045371  -0.000426   0.437614  -0.066787
    32  H    0.000000  -0.000908  -0.053318  -0.002550   0.446560  -0.061768
    33  H    0.000000  -0.009132  -0.016709  -0.000583  -0.013460   0.388118
    34  H   -0.000000   0.003353   0.043636  -0.000010  -0.095981   0.384980
    35  H   -0.000000  -0.009931  -0.002961  -0.000374  -0.033240   0.395880
    36  C   -0.000002  -0.000489  -0.000070  -0.000064  -0.000496   0.001420
    37  H    0.000000   0.000002   0.000035   0.000000  -0.000033  -0.000033
    38  H   -0.000000   0.000000   0.000001   0.000000  -0.000002   0.000004
    39  C    0.000002   0.000098   0.000101   0.000008  -0.000363  -0.000046
    40  H   -0.000000  -0.000001   0.000020   0.000000  -0.000025   0.000023
    41  H   -0.000000  -0.000000   0.000000  -0.000000  -0.000001   0.000000
    42  H   -0.000000   0.000000  -0.000001  -0.000000   0.000004  -0.000003
              31         32         33         34         35         36
     1  C   -0.002841   0.002051   0.002807   0.000109  -0.001486  -0.037955
     2  N    0.000239  -0.000071  -0.000569  -0.000001   0.000205  -0.016490
     3  C    0.000105  -0.000078  -0.000193  -0.000024   0.000176  -0.002360
     4  O   -0.000000   0.000000   0.000001  -0.000000  -0.000000  -0.020121
     5  O   -0.000002   0.000002   0.000000   0.000001  -0.000014  -0.126228
     6  C    0.000023  -0.000000  -0.000154   0.000002   0.000146  -0.166387
     7  C   -0.000275   0.000177   0.000351   0.000009  -0.000191  -0.003995
     8  C   -0.000095   0.000054   0.000056   0.000001  -0.000038   0.010052
     9  C    0.000226  -0.000150  -0.000071  -0.000002   0.000053  -0.008009
    10  C    0.000882  -0.001149  -0.000509  -0.000039   0.000319   0.002398
    11  C    0.003863  -0.001974  -0.003171  -0.000064   0.001432   0.006020
    12  H   -0.000059   0.000008   0.000263  -0.000006  -0.000048   0.000369
    13  H   -0.000000   0.000000  -0.000005   0.000000  -0.000001  -0.090035
    14  H   -0.000000  -0.000000   0.000000   0.000000  -0.000000  -0.025503
    15  H    0.000000  -0.000000  -0.000000  -0.000000   0.000000   0.000407
    16  H   -0.000054   0.000016   0.000026   0.000000  -0.000004   0.000086
    17  C    0.000010  -0.000005  -0.000001  -0.000000   0.000001  -0.000502
    18  C   -0.000001   0.000001   0.000001   0.000000  -0.000000   0.003270
    19  H    0.000000   0.000000   0.000000  -0.000000   0.000000  -0.000000
    20  F    0.000000  -0.000000   0.000000  -0.000000   0.000000   0.000000
    21  F    0.000000  -0.000000  -0.000000  -0.000000   0.000000  -0.000000
    22  F   -0.000000  -0.000000  -0.000000  -0.000000   0.000000   0.000000
    23  F    0.000000   0.000000   0.000000  -0.000000   0.000000  -0.000003
    24  F   -0.000000   0.000000  -0.000000   0.000000  -0.000000   0.000004
[...]
 00150,-0.00009162,0.00006056,-0.00001531,0.00022475,0.00001871,-0.0000
 4971,-0.00006142,-0.00034286,-0.00003229,-0.00095991,0.00080112,0.0004
 4890,-0.00008288,-0.00051270,0.00119160,-0.00003580,0.00002432,-0.0000
 0297,0.00000080,-0.00003413,0.00000965,-0.00023741,0.00006795,0.000031
 49,-0.00006019,0.00014914,-0.00006206,0.00000900,0.00000099,-0.0000023
 1,0.00006464,-0.00004454,0.00002484,0.00006790,-0.00003826,-0.00004678
 ,0.00006237,0.00001871,-0.00000848,0.00000191,-0.00004888,0.00001294,0
 .00002933,-0.00004795,-0.00000661,0.00002801,-0.00004113,0.00005346,0.
 00008323,0.00031413,-0.00001586,-0.00010791,-0.00019350,0.00007456,0.0
 0005980,0.00008192,-0.00003751,0.00000155,0.00002999,-0.00000877,-0.00
 000426,0.00000619,-0.00000892,0.00000102,0.00001048,0.00000346,-0.0000
 0427,0.00000616,-0.00000270,-0.00000215,-0.00000795,0.00000004,-0.0000
 0344,0.00001771,0.00000334,0.00000918,-0.00001450,0.00000560,0.0831710
 7,0.03248893,-0.08415559,0.00163329,0.00078314,-0.00218373,-0.08977516
 ,-0.03670981,0.09293646,-0.00035208,0.00008345,0.00009721,-0.00034200,
 -0.00039083,-0.00051056,0.00148097,0.00069150,0.00163223,-0.00044065,-
 0.00017179,-0.00014479,-0.00097873,-0.00052841,-0.00019006,0.00614529,
 -0.00206836,-0.00145504,0.00002191,-0.00001152,-0.00000072,-0.00000095
 ,-0.00003348,-0.00001007,0.00005815,-0.00001751,0.00003033,-0.00004583
 ,0.00002124,-0.00001038,0.00005253,0.00002213,-0.00001592,0.00001913,0
 .00003364,0.00031532,0.00053910,0.00103715,0.00309796,0.00014821,-0.00
 022289,0.00072934,0.00000065,0.00001357,0.00000924,-0.00000881,0.00000
 504,0.00001817,-0.00010505,0.00004197,0.00000404,-0.00001633,0.0001083
 8,-0.00005632,-0.00000041,0.00000264,0.00000146,0.00003211,-0.00002585
 ,0.00001583,0.00003120,-0.00002109,-0.00002151,0.00002483,-0.00000016,
 -0.00000212,-0.00001030,-0.00003710,0.00001333,0.00001220,-0.00002895,
 0.00000537,0.00001483,-0.00003058,0.00004259,0.00005002,0.00025253,-0.
 00030147,-0.00023760,-0.00028161,0.00013998,0.00014320,0.00005154,-0.0
 0008040,0.00000651,0.00001921,0.00000309,0.00000173,0.00001038,0.00003
 324,-0.00000510,0.00000422,0.00000796,-0.00000319,0.00000966,-0.000009
 82,0.00002005,-0.00002908,-0.00000681,-0.00001100,0.00001918,-0.000010
 45,-0.00000120,-0.00000480,-0.00001438,-0.15357762,0.02114331,-0.05833
 661,-0.00354750,0.00101034,-0.00256444,-0.02154491,0.00685588,-0.02095
 189,0.52482307,-0.00033358,0.00015526,0.00007618,0.00019379,-0.0004916
 4,-0.00014008,-0.00106608,0.00276516,-0.00003473,-0.00042782,-0.001285
 02,0.00088838,0.00137080,-0.00065742,0.00037060,-0.01286879,0.00366424
 ,-0.00858918,0.00008989,-0.00003508,0.00001640,-0.00005137,-0.00002967
 ,0.00001425,0.00008325,-0.00001807,0.00000886,-0.00004179,0.00002123,-
 0.00000088,0.00008196,-0.00001223,-0.00002404,-0.00005347,-0.00020711,
 0.00011079,0.00071669,-0.00077886,-0.00356913,-0.00106124,0.00088246,-
 0.00069185,-0.00000166,0.00002614,-0.00005708,0.00000248,-0.00002686,0
 .00001388,-0.00011825,0.00006187,0.00001118,0.00005980,0.00018416,-0.0
 0008422,0.00000583,-0.00000188,0.00000105,0.00003282,-0.00003226,0.000
 01645,0.00003539,-0.00002609,-0.00002698,0.00002339,-0.00000225,-0.000
 00510,-0.00005681,-0.00008362,0.00002736,-0.00000651,-0.00003632,0.000
 01620,0.00000245,-0.00004524,0.00004518,-0.00003100,0.00021335,-0.0000
 3349,-0.00000104,-0.00015552,0.00002083,-0.00002977,0.00007230,-0.0000
 0668,0.00002464,0.00002028,-0.00001856,-0.00001777,0.00001928,0.000011
 33,-0.00001441,0.00000403,0.00000496,-0.00001172,0.00000493,0.00000719
 ,0.00002924,0.00000988,0.00001306,-0.00000874,-0.00000042,0.00000537,0
 .00000928,0.00000710,-0.00004480,0.02135148,-0.08815758,0.01743951,0.0
 2698092,-0.00507065,0.02212176,-0.00895244,0.00239767,-0.00885399,0.01
 353692,0.57980330,-0.00018783,0.00003780,-0.00006393,0.00024071,0.0005
 0759,0.00003439,0.00019855,-0.00212788,0.00012465,0.00066823,0.0007004
 8,-0.00188065,-0.00231544,0.00013615,0.00223894,-0.02518902,0.00610400
 ,-0.02759171,0.00003988,-0.00007493,0.00003784,0.,0.00002634,0.0000115
 0,0.00004506,-0.00001327,0.00000335,-0.00000701,0.00002110,0.00000878,
 0.00006477,0.00001261,0.00000230,0.00003459,-0.00017434,-0.00006950,0.
 00090207,-0.00229594,-0.00478312,0.00014354,0.00078698,0.00212155,-0.0
 0006147,0.00001266,-0.00003464,0.00000434,-0.00001650,-0.00001082,-0.0
 0002855,-0.00000263,-0.00003439,-0.00004341,-0.00002304,-0.00008354,0.
 00000318,-0.00000157,-0.00000574,0.00000867,-0.00000711,0.00001430,0.0
 0000438,0.00000238,0.00000832,0.00000876,0.00000779,0.00000459,0.00002
 651,0.00001428,0.00001433,-0.00000036,0.00000714,0.00001490,0.00001564
 ,-0.00000049,0.00005045,-0.00004453,0.00000455,0.00014435,0.00008428,0
 .00009154,-0.00005597,-0.00006812,0.00000025,0.00004760,0.00000468,-0.
 00000552,-0.00000754,-0.00000704,0.00000258,-0.00001657,-0.00000422,0.
 00000188,-0.00000083,-0.00000388,-0.00000372,0.00000793,0.00000417,0.0
 0002431,0.00002041,0.00000148,-0.00001422,0.00001080,-0.00000162,0.000
 00126,-0.00001747,-0.05752451,0.01661166,-0.12568949,-0.00336717,0.001
 07279,-0.00300471,0.00869740,-0.00326121,0.00808834,-0.04413535,0.0156
 2642,0.54828737,0.00017167,-0.00002890,0.00001752,-0.00017775,-0.00006
 004,-0.00005221,0.00129572,-0.00040807,-0.00074012,-0.00001023,0.00022
 142,0.00013490,0.00137025,0.00071381,0.00081146,-0.00155152,-0.0003135
 6,0.00150005,-0.00003047,0.00004600,-0.00001371,-0.00000346,0.00000392
 ,-0.00000898,-0.00003805,0.00001458,-0.00000571,0.00002084,-0.00001331
 ,0.00000205,-0.00005770,-0.00002393,-0.00000749,0.00010138,-0.00008018
 ,-0.00010895,0.00015784,0.00006929,-0.00003735,-0.00002005,0.00008301,
 -0.00015347,0.00002151,-0.00000879,-0.00000096,0.00001268,-0.00001745,
 0.00000029,0.00006468,-0.00002471,-0.00000237,0.00002413,-0.00005132,0
 .00001755,0.00000047,-0.00000237,0.00000026,-0.00001868,0.00001444,-0.
 00000812,-0.00001957,0.00001342,0.00001449,-0.00001658,-0.00000056,0.0
 0000111,-0.00000146,0.00001513,-0.00000318,-0.00001212,0.00001803,0.00
 000394,-0.00000891,0.00001539,-0.00001728,-0.00014165,-0.00016699,0.00
 016399,0.00022630,0.00018587,-0.00012520,-0.00017103,-0.00001798,0.000
 07347,0.00000903,-0.00001318,0.00000615,-0.00000614,0.00000541,-0.0000
 4128,-0.00000229,-0.00000399,-0.00000527,-0.00000513,-0.00000620,0.000
 01338,0.00000295,0.00003189,0.00002000,0.00000175,-0.00002542,0.000013
 10,-0.00000508,0.00001241,-0.00000352,-0.02218143,-0.01025830,0.007651
 00,0.00072316,0.00026351,0.00045099,-0.00259473,0.00146150,-0.00376867
 ,-0.24272949,-0.09382609,0.07711685,0.26460063,0.00035516,-0.00014515,
 -0.00010006,-0.00031769,-0.00039336,0.00024731,-0.00013464,0.00142895,
 -0.00185264,0.00012166,-0.00060083,0.00108525,0.00065169,-0.00023488,0
 .00014425,-0.00114080,-0.00020924,0.00013223,-0.00006164,0.00008251,-0
 .00003286,0.00009774,-0.00000924,0.00000816,-0.00011978,-0.00000506,0.
 00001366,0.00001700,-0.00001600,0.00000043,-0.00006797,0.00000266,0.00
 001790,-0.00011542,0.00047145,0.00005558,0.00008774,0.00001476,-0.0001
 1642,-0.00003623,0.00001844,0.00004548,0.00003814,-0.00006683,-0.00004
 795,-0.00002884,0.00007885,-0.00000826,0.00020783,-0.00004198,-0.00005
 009,0.00008548,-0.00012707,-0.00002392,-0.00000934,0.00000153,0.000001
 55,-0.00005175,0.00002621,-0.00000762,-0.00006049,0.00003063,0.0000468
 8,-0.00006415,-0.00002714,0.00001276,-0.00001251,0.00003808,0.00000549
 ,-0.00004342,0.00005002,0.00002889,-0.00002568,0.00003164,-0.00000896,
 0.00015253,-0.00008370,-0.00024371,-0.00024276,-0.00006722,0.00010073,
 0.00020699,-0.00008429,-0.00006765,-0.00001540,-0.00001810,0.00000415,
 0.00001184,-0.00002082,0.00005677,0.00000511,-0.00000445,0.00000258,0.
 00001117,0.00000041,-0.00001417,-0.00000494,-0.00001723,-0.00003791,0.
 00000387,0.00001302,-0.00001905,-0.00000181,-0.00000405,0.00000663,0.0
 0755854,0.00292406,-0.00356726,0.00004966,0.00040940,-0.00073549,0.001
 73897,0.00067961,0.00134768,-0.09497155,-0.09420047,0.03665610,0.10159
 522,0.09714336,0.00073563,-0.00022052,0.00000283,-0.00070796,0.0000935
 1,0.00059084,0.00083958,-0.00136247,-0.00213090,-0.00026023,0.00040161
 ,0.00004296,0.00030311,0.00024349,-0.00087973,-0.00089984,-0.00074358,
 0.00090333,-0.00012039,0.00013487,-0.00002400,0.00002907,0.00000195,-0
 .00000142,-0.00015404,0.00006450,-0.00002120,0.00008983,-0.00006746,-0
 .00000663,-0.00021424,-0.00003954,0.00003581,0.00003711,0.00030514,-0.
 00024828,0.00022039,0.00020426,0.00018060,0.00003654,0.00003235,-0.000
 09876,0.00004555,-0.00001327,0.00002553,0.00000520,0.00002679,0.000004
 69,0.00020554,-0.00004348,0.00001247,0.00006953,-0.00009555,0.00010808
 ,-0.00000683,-0.00000096,0.00000833,-0.00005751,0.00003928,-0.00003226
 ,-0.00005623,0.00002541,0.00002562,-0.00005442,-0.00002142,0.00000057,
 -0.00001686,0.00002651,-0.00002035,-0.00002070,0.00003038,-0.00000994,
 -0.00003190,0.00002842,-0.00007752,-0.00013802,-0.00043556,0.00013394,
 0.00020338,0.00027080,-0.00008722,-0.00013006,-0.00008706,0.00004151,-
 0.00000874,-0.00003216,0.00000450,0.00000686,-0.00001527,0.00002534,-0
 .00000504,-0.00001913,0.00000013,0.00000623,-0.00000943,-0.00000229,0.
 00000191,0.00001142,-0.00000097,0.00000532,-0.00001415,-0.00000389,-0.
 00001082,0.00001133,-0.00001325,-0.01919118,-0.00996657,0.00813514,0.0
 0093863,-0.00005099,0.00099805,-0.00379011,0.00071997,-0.00279685,0.07
 848987,0.03716015,-0.07869546,-0.08237628,-0.04040962,0.08544089,-0.00
 000802,0.00000780,0.00000867,0.00010793,0.00028856,0.00004684,0.000161
 25,-0.00140199,0.00030505,-0.00032483,0.00066725,-0.00035676,-0.000279
 41,0.00019111,0.00023478,0.00123635,0.00028239,0.00102073,0.00000465,-
 0.00003616,-0.00001167,-0.00004613,0.00001304,-0.00000035,0.00003349,0
 .00001349,-0.00002095,0.00001625,-0.00000531,0.00000819,-0.00000609,-0
 .00000365,-0.00000238,0.00004662,-0.00014323,-0.00007612,-0.00008023,-
 0.00017375,0.00036416,0.00018106,-0.00060282,-0.00042460,-0.00002541,0
 .00002337,0.00005525,0.00001175,-0.00002710,-0.00000089,-0.00007801,0.
 00000835,0.00002994,-0.00006697,0.00002211,0.00006738,0.00000284,0.000
 00010,-0.00000111,0.00001821,-0.00000349,-0.00000278,0.00002289,-0.000
 01035,-0.00002057,0.00002862,0.00001441,-0.00000635,0.00002300,-0.0000
 0013,-0.00001799,0.00003029,-0.00002119,-0.00002849,0.00001205,-0.0000
 0400,-0.00002362,-0.00002706,0.00000213,0.00011004,0.00008573,0.000051
 24,-0.00004746,-0.00006293,0.00002161,0.00002362,-0.00000285,0.0000064
 4,0.00000332,0.00000029,0.00000046,-0.00003013,0.00000513,0.00000292,-
 0.00000336,-0.00000028,-0.00000116,0.00000301,-0.00001206,0.00000782,0
 .00000264,0.00000178,-0.00000286,0.00000669,0.00000157,-0.00000027,0.0
 0001740,-0.00371740,0.02734364,-0.00221118,-0.00365020,0.00061254,-0.0
 0374500,0.00053116,-0.00010890,0.00105731,-0.05300447,0.03483133,-0.00
 273558,0.00523336,-0.02805830,0.00085479,0.05596502,0.00000762,-0.0000
 0805,-0.00000154,0.00003810,0.00042576,0.00000945,0.00068313,-0.002165
 55,0.00063031,0.00032448,0.00065800,-0.00157822,-0.00078727,0.00050763
 ,0.00046216,-0.00006611,0.00083226,-0.00054413,-0.00000944,-0.00002909
 ,-0.00001486,-0.00002272,0.00002191,-0.00000796,0.00001222,0.00001596,
 -0.00000538,0.00001533,-0.00000223,-0.00000246,-0.00001202,0.00000075,
 0.00000333,0.00009930,-0.00019409,-0.00004799,-0.00003356,0.00023730,0
 .00002755,-0.00001281,0.00003554,0.00080396,-0.00001573,0.00002361,0.0
 0003676,0.00001883,-0.00004049,0.00000150,-0.00003044,-0.00001857,0.00
 002508,-0.00004967,-0.00003194,0.00007416,0.00000337,-0.00000130,-0.00
 000046,0.00000318,0.00000815,-0.00001044,0.00000877,-0.00000048,-0.000
 01027,0.00001705,0.00001601,-0.00000518,0.00002509,0.00001926,-0.00001
 713,0.00001993,-0.00000398,-0.00002387,0.00000353,0.00001024,-0.000032
 70,-0.00012176,-0.00000302,0.00013150,0.00018739,0.00005979,-0.0000918
 1,-0.00015561,0.00004360,0.00005895,0.00001378,0.00000319,-0.00000178,
 -0.00001177,0.00001740,-0.00002664,-0.00000728,0.00000006,-0.00000201,
 -0.00000837,-0.00000132,0.00001256,0.00001292,0.00001448,0.00002326,-0
 .00000265,-0.00001123,0.00000946,-0.00000319,0.00000171,-0.00001333,0.
 00092476,-0.00545915,0.00078939,0.00110499,0.00148766,0.00024845,0.000
 53476,0.00034765,0.00010941,0.03455659,-0.31141094,0.02194235,0.002069
 28,-0.01225204,0.00016378,-0.03986090,0.33672984,0.00029006,-0.0001063
 9,-0.00002720,-0.00046979,-0.00052211,0.00006746,0.00027436,0.00224004
 ,-0.00086632,0.00019620,-0.00121978,0.00045417,0.00048174,-0.00076014,
 -0.00030924,0.00035104,0.00181258,0.00132131,-0.00004152,0.00008441,-0
 .00001416,0.00002968,-0.00000893,0.00001439,-0.00008676,0.00001945,-0.
 00000796,0.00003227,-0.00002642,0.00000167,-0.00008268,-0.00001262,0.0
 0002027,-0.00008390,0.00022980,0.00001780,0.00002700,-0.00029061,0.000
 29529,-0.00010377,-0.00061607,-0.00040643,0.00005157,-0.00002641,-0.00
 001642,-0.00000845,0.00003159,-0.00000445,0.00014276,-0.00003687,-0.00
 000906,0.00008668,-0.00007458,0.00004919,-0.00000422,-0.00000044,0.000
 00217,-0.00003938,0.00002501,-0.00001663,-0.00003996,0.00002020,0.0000
 2462,-0.00004136,-0.00001353,0.00000445,-0.00002722,0.00001438,-0.0000
 0841,-0.00002956,0.00002944,0.00000574,-0.00002886,0.00002462,-0.00004
 725,0.00004122,-0.00012294,-0.00002875,-0.00003146,0.00003794,0.000004
 59,0.00004274,-0.00004678,-0.00000875,-0.00000493,-0.00001086,0.000007
 15,0.00000154,-0.00000537,-0.00000488,0.00000550,-0.00000217,-0.000003
 30,0.00000437,-0.00000154,-0.00000155,-0.00000824,-0.00000764,-0.00000
 887,0.00000484,0.00000024,-0.00000370,0.00000127,0.00000048,0.00001709
 ,-0.00232281,0.02230815,-0.00305788,-0.00390980,0.00078557,-0.00231183
 ,0.00041497,-0.00066808,0.00061816,-0.00235854,0.01990928,-0.05073343,
 -0.00224977,0.01125959,-0.00186296,0.00626663,-0.02405433,0.05258952,0
 .00032381,-0.00009294,-0.00005139,-0.00008112,-0.00014693,0.00018499,-
 0.00033091,0.00098535,-0.00098845,0.00012809,-0.00039001,0.00083497,0.
 00126396,0.00010357,0.00068089,-0.00598903,0.00182863,-0.00245888,-0.0
 0004370,0.00006926,-0.00000449,0.00003379,0.00000406,0.00001051,-0.000
 08358,0.00000920,-0.00001505,0.00002935,-0.00002158,0.00000419,-0.0000
 6871,-0.00001540,0.00001272,-0.00004879,0.00016256,-0.00010323,0.00021
 605,-0.00057013,-0.00164686,-0.00010985,0.00008849,0.00019165,0.000029
 35,-0.00002914,-0.00002185,-0.00000265,0.00002396,-0.00000413,0.000134
 37,-0.00002829,-0.00000279,0.00006736,-0.00007187,0.00003613,-0.000003
 90,-0.00000044,0.00000312,-0.00003716,0.00002250,-0.00001664,-0.000036
 87,0.00001766,0.00002069,-0.00003927,-0.00001460,0.00000268,-0.0000171
 3,0.00001681,-0.00000590,-0.00002413,0.00002648,0.00000519,-0.00002400
 ,0.00002272,-0.00003751,-0.00001687,-0.00018330,0.00005574,0.00006357,
 0.00011757,-0.00003074,-0.00003061,-0.00005196,0.00001452,-0.00000247,
 -0.00001616,0.00000049,-0.00000288,-0.00000976,0.00000994,-0.00000129,
 -0.00000877,-0.00000061,0.00000242,-0.00000400,-0.00000094,0.00000245,
 0.00000621,-0.00000059,0.00000475,-0.00000405,-0.00000175,-0.00000269,
 0.00000106,-0.00000509,0.00521763,-0.01186185,-0.02557322,0.00092707,0
 .00018848,0.00084954,0.00104730,-0.00065413,0.00081179,-0.05666247,0.0
 1951799,0.04740733,-0.00423485,0.01258877,0.02512735,-0.00236889,0.000
 52692,0.00322654,0.06077246,-0.00012182,0.00003888,0.00001059,0.000224
 65,0.00031973,-0.00000741,0.00011610,-0.00166815,0.00022470,0.00029070
 ,0.00063110,-0.00092440,0.00014274,0.00043067,0.00017212,0.00063399,0.
 00004329,0.00100416,0.00001166,-0.00004570,0.00000790,-0.00001296,0.00
 000247,-0.00000766,0.00004344,-0.00000781,0.00000552,-0.00001212,0.000
 00966,-0.00000094,0.00003199,0.00000710,-0.00001422,0.00004629,-0.0000
 4825,-0.00002337,0.00003007,0.00039170,0.00018066,0.00014884,0.0002466
 7,0.00034883,-0.00003285,0.00001850,0.00001899,0.00000012,-0.00000228,
 0.00000230,-0.00008287,0.00002606,0.00000300,-0.00006356,0.00004753,-0
 .00002801,0.00000064,0.00000143,-0.00000068,0.00002491,-0.00001628,0.0
 0001172,0.00002299,-0.00001217,-0.00001395,0.00002424,0.00000541,-0.00
 000201,0.00002078,-0.00000717,0.00000365,0.00002109,-0.00001963,-0.000
 00543,0.00002107,-0.00001658,0.00003028,0.00002162,0.00004667,-0.00003
 161,-0.00005359,-0.00002398,0.00003287,0.00003901,0.00000409,-0.000020
 76,-0.00000911,0.00000589,-0.00000204,0.00001041,-0.00001021,0.0000167
 9,0.00000353,0.00000039,0.00000225,0.00000381,0.00000079,-0.00000697,-
 0.00000891,-0.00000162,-0.00001118,-0.00000065,0.00000657,-0.00000357,
 -0.00000066,-0.00000275,0.00000539,-0.00225910,0.00215188,0.00763557,-
 0.00061877,0.00023074,-0.00008380,-0.00040111,0.00006463,-0.00049878,0
 .01934508,-0.08754744,-0.09239063,-0.00150219,0.00518355,0.01365230,0.
 00605346,-0.00988432,-0.03019813,-0.02215297,0.08939894,-0.00052194,0.
 00020375,0.00003893,0.00079900,0.00016310,-0.00026951,-0.00150107,0.00
 032467,0.00064731,0.00033593,-0.00016577,-0.00012235,0.00052466,-0.000
 36125,0.00030598,-0.00448325,0.00203394,-0.00107285,0.00010220,-0.0001
 2109,0.00002237,-0.00004875,0.00000160,0.00000921,0.00013976,-0.000037
 49,0.00000180,-0.00006272,0.00004728,0.00000223,0.00015515,0.00002252,
 -0.00002826,-0.00001546,-0.00030039,0.00006986,0.00032810,-0.00055323,
 -0.00128519,-0.00002590,0.00006902,0.00026137,-0.00004901,0.00002845,-
 0.00000618,0.00000157,-0.00003845,0.00000297,-0.00023112,0.00005086,0.
 00000960,-0.00010047,0.00012133,-0.00006958,0.00000688,0.00000042,-0.0
 0000536,0.00006367,-0.00003959,0.00002741,0.00006422,-0.00003092,-0.00
 003675,0.00006621,0.00002377,-0.00000555,0.00002432,-0.00002944,0.0000
 1296,0.00003737,-0.00004354,-0.00000739,0.00003815,-0.00003769,0.00006
 223,0.00009489,0.00036041,-0.00002213,-0.00011785,-0.00024811,0.000067
 68,0.00005958,0.00010242,-0.00002964,0.00001119,0.00003524,-0.00000002
 ,-0.00001993,0.00000895,-0.00003870,0.00000525,0.00001523,0.00000243,-
 0.00001142,0.00000460,0.00000503,0.00001040,-0.00001252,0.00001221,-0.
 00000605,0.00001888,0.00000446,0.00001191,-0.00001158,0.00001264,0.005
 20038,-0.00789733,-0.01724702,0.00030693,0.00053240,0.00015265,-0.0001
 7128,-0.00038330,0.00089886,0.04650106,-0.09175583,-0.26851749,0.00171
 734,-0.00393641,-0.00970730,-0.00071908,0.00092909,0.00424440,-0.04852
 086,0.10090598,0.29159667\\0.00000176,0.00000157,-0.00000158,0.0000001
 3,0.00000670,0.00000281,0.00000046,-0.00000178,-0.00000082,0.00000114,
 0.00000084,-0.00000038,0.00000007,-0.00000124,0.00000090,0.00000115,-0
 .00000069,-0.00000059,0.00000035,0.00000112,0.00000079,-0.00000016,0.0
 0000046,0.00000001,0.00000077,0.00000063,0.00000037,-0.00000029,0.0000
 0185,-0.00000027,-0.00000077,-0.00000164,0.00000028,-0.00000189,-0.000
 00624,-0.00000279,0.00000008,-0.00000156,-0.00000008,0.00000057,-0.000
 00128,0.00000012,0.00000094,0.00000035,-0.00000020,-0.00000034,0.00000
 008,0.00000060,-0.00000013,0.00000180,-0.00000168,0.00000209,0.0000011
 1,-0.00000077,-0.00000005,0.00000125,0.00000013,0.00000034,-0.00000018
 ,0.00000151,0.00000189,0.00000340,-0.00000003,0.00000080,0.00000316,0.
 00000025,0.00000114,0.00000021,0.00000018,0.00000139,0.00000061,-0.000
 00029,0.00000222,0.00000212,0.00000139,0.00000330,0.00000151,-0.000000
 62,0.00000196,-0.00000223,-0.00000145,-0.00000880,0.00000152,0.0000038
 4,-0.00000071,-0.00000215,-0.00000031,-0.00000234,-0.00000019,-0.00000
 007,-0.00000170,0.00000009,0.00000032,-0.00000190,0.00000005,-0.000000
 12,-0.00000107,-0.00000091,0.00000006,-0.00000175,-0.00000057,0.000000
 11,-0.00000116,-0.00000117,-0.00000038,0.00000027,-0.00000145,-0.00000
 025,-0.00000051,-0.00000137,-0.00000018,0.00000003,-0.00000169,-0.0000
 0016,0.00000012,-0.00000092,-0.00000013,0.00000009,-0.00000087,-0.0000
 0006,0.00000062,-0.00000130,-0.00000047,-0.00000014,-0.00000102,0.0000
 0002\\\@


 You never know when you're making a memory.
                        -- Rickie Lee Jones
 Job cpu time:       0 days 10 hours 32 minutes 29.8 seconds.
 Elapsed time:       0 days 10 hours 32 minutes 29.8 seconds.
 File lengths (MBytes):  RWF=   1593 Int=      0 D2E=      0 Chk=     42 Scr=      1
 Normal termination of Gaussian 16 at Wed Apr 14 01:14:44 2021.
