 Entering Gaussian System, Link 0=/apps/gaussian/g16c01/g16/g16
 Initial command:
 /apps/gaussian/g16c01/g16/l1.exe "/jobfs/19479188.gadi-pbs/Gau-444940.inp" -scrdir="/jobfs/19479188.gadi-pbs/"
 Entering Link 1 = /apps/gaussian/g16c01/g16/l1.exe PID=    444941.
  
 Copyright (c) 1988-2019, Gaussian, Inc.  All Rights Reserved.
  
 This is part of the Gaussian(R) 16 program.  It is based on
 the Gaussian(R) 09 system (copyright 2009, Gaussian, Inc.),
 the Gaussian(R) 03 system (copyright 2003, Gaussian, Inc.),
 the Gaussian(R) 98 system (copyright 1998, Gaussian, Inc.),
 the Gaussian(R) 94 system (copyright 1995, Gaussian, Inc.),
 the Gaussian 92(TM) system (copyright 1992, Gaussian, Inc.),
 the Gaussian 90(TM) system (copyright 1990, Gaussian, Inc.),
 the Gaussian 88(TM) system (copyright 1988, Gaussian, Inc.),
 the Gaussian 86(TM) system (copyright 1986, Carnegie Mellon
 University), and the Gaussian 82(TM) system (copyright 1983,
 Carnegie Mellon University). Gaussian is a federally registered
 trademark of Gaussian, Inc.
  
 This software contains proprietary and confidential information,
 including trade secrets, belonging to Gaussian, Inc.
  
 This software is provided under written license and may be
 used, copied, transmitted, or stored only in accord with that
 written license.
  
 The following legend is applicable only to US Government
 contracts under FAR:
  
                    RESTRICTED RIGHTS LEGEND
  
 Use, reproduction and disclosure by the US Government is
 subject to restrictions as set forth in subparagraphs (a)
 and (c) of the Commercial Computer Software - Restricted
 Rights clause in FAR 52.227-19.
  
 Gaussian, Inc.
 340 Quinnipiac St., Bldg. 40, Wallingford CT 06492
  
  
 ---------------------------------------------------------------
 Warning -- This program may not be used in any manner that
 competes with the business of Gaussian, Inc. or will provide
 assistance to any competitor of Gaussian, Inc.  The licensee
 of this program is prohibited from giving any competitor of
 Gaussian, Inc. access to this program.  By using this program,
 the user acknowledges that Gaussian, Inc. is engaged in the
 business of creating and licensing software in the field of
 computational chemistry and represents and warrants to the
 licensee that it is not a competitor of Gaussian, Inc. and that
 it will not use this program in any manner prohibited above.
 ---------------------------------------------------------------
  

 Cite this work as:
 Gaussian 16, Revision C.01,
 M. J. Frisch, G. W. Trucks, H. B. Schlegel, G. E. Scuseria, 
 M. A. Robb, J. R. Cheeseman, G. Scalmani, V. Barone, 
 G. A. Petersson, H. Nakatsuji, X. Li, M. Caricato, A. V. Marenich, 
 J. Bloino, B. G. Janesko, R. Gomperts, B. Mennucci, H. P. Hratchian, 
 J. V. Ortiz, A. F. Izmaylov, J. L. Sonnenberg, D. Williams-Young, 
 F. Ding, F. Lipparini, F. Egidi, J. Goings, B. Peng, A. Petrone, 
 T. Henderson, D. Ranasinghe, V. G. Zakrzewski, J. Gao, N. Rega, 
 G. Zheng, W. Liang, M. Hada, M. Ehara, K. Toyota, R. Fukuda, 
 J. Hasegawa, M. Ishida, T. Nakajima, Y. Honda, O. Kitao, H. Nakai, 
 T. Vreven, K. Throssell, J. A. Montgomery, Jr., J. E. Peralta, 
 F. Ogliaro, M. J. Bearpark, J. J. Heyd, E. N. Brothers, K. N. Kudin, 
 V. N. Staroverov, T. A. Keith, R. Kobayashi, J. Normand, 
 K. Raghavachari, A. P. Rendell, J. C. Burant, S. S. Iyengar, 
 J. Tomasi, M. Cossi, J. M. Millam, M. Klene, C. Adamo, R. Cammi, 
 J. W. Ochterski, R. L. Martin, K. Morokuma, O. Farkas, 
 J. B. Foresman, and D. J. Fox, Gaussian, Inc., Wallingford CT, 2019.
 
 ******************************************
 Gaussian 16:  ES64L-G16RevC.01  3-Jul-2019
                22-Mar-2021 
 ******************************************
 %NprocShared=32
 Will use up to   32 processors via shared memory.
 %Mem=10000MB
 %chk=NM2CA_carboxy_c2.M062X_6-311pGd_opt_GD3.chk
 ----------------------------------------------------------------------
 # M062X/6-311+G* SCF=Tight INT(grid=ultrafine) OPT=CalcFC IOP(2/17=4) 
 EmpiricalDispersion=GD3 MaxDisk=10000MB
 ----------------------------------------------------------------------
 1/10=4,18=20,19=15,26=4,38=1/1,3;
 2/9=110,12=2,17=4,18=5,40=1/2;
 3/5=4,6=6,7=11,11=2,25=1,30=1,71=2,74=-55,75=-5,124=31,140=1/1,2,3;
 4//1;
 5/5=2,32=2,38=5/2;
 8/6=4,10=90,11=11/1;
 11/6=1,8=1,9=11,15=111,16=1/1,2,10;
 10/6=1,13=1/2;
 6/7=2,8=2,9=2,10=2,28=1/1;
 7/10=1,25=1/1,2,3,16;
 1/10=4,18=20,19=15,26=4/3(2);
 2/9=110,17=4/2;
 99//99;
 2/9=110,17=4/2;
 3/5=4,6=6,7=11,11=2,25=1,30=1,71=1,74=-55,75=-5,124=31/1,2,3;
 4/5=5,16=3,69=1/1;
 5/5=2,32=2,38=5/2;
 7//1,2,3,16;
 1/18=20,19=15,26=4/3(-5);
 2/9=110,17=4/2;
 6/7=2,8=2,9=2,10=2,19=2,28=1/1;
 99/9=1/99;
 ---------------------------------------
 NM2CA_carboxy_c2.M062X_6-311pGd_opt_GD3
 ---------------------------------------
 Symbolic Z-matrix:
 Charge = -1 Multiplicity = 1
 C                    -6.06063   1.2031    0.20071 
 N                    -4.76129   0.58133   0.12276 
 C                    -3.53905   1.1934    0.08742 
 O                    -3.42769   2.40832   0.11869 
 O                    -2.42141   0.42387   0.01124 
 C                    -1.14214   0.94472  -0.03406 
 C                    -0.12025  -0.18669  -0.1181 
 C                     1.30241   0.36554  -0.17011 
 C                    -7.28475   0.50369   0.30452 
 C                    -8.52906   1.17561   0.37722 
 C                    -8.54195   2.60424   0.34444 
 C                    -7.31839   3.28406   0.24049 
 C                    -6.11023   2.60045   0.17013 
 H                    -4.74374  -0.56466   0.0825 
 H                    -0.95361   1.54562   0.88353 
 H                    -1.04051   1.60102  -0.92714 
 H                    -0.30978  -0.78948  -1.03265 
 H                    -0.22254  -0.84483   0.77186 
 H                     1.43294   1.01393  -1.06299 
 H                     2.02754  -0.47282  -0.23095 
 H                     1.52048   0.95861   0.74388 
 H                    -7.30321  -0.56524   0.32939 
 H                    -5.10393   3.23396   0.08318 
 C                    -9.77679   3.49343   0.41179 
 C                    -9.79826   0.34245   0.48679 
 H                    -7.29459   4.36711   0.21298 
 F                    -10.97248   2.81684   0.51335 
 F                    -9.8326    4.2737   -0.72947 
 F                    -9.67219   4.32654   1.51152 
 F                    -9.53986  -1.0181    0.49999 
 F                    -10.61936   0.59382  -0.5977 
 F                    -10.4587   0.64627   1.66363 
 O                    -6.70525  -2.86267   0.12019 
 O                    -4.48357  -2.62558   0.07417 
 C                    -5.45538  -3.37476   0.09401 
 C                    -5.28964  -4.87145   0.09074 
 C                    -3.82924  -5.31907   0.06284 
 H                    -5.80783  -5.28376  -0.8014 
 H                    -5.77261  -5.28353   1.00254 
 H                    -3.32739  -4.94186  -0.85356 
 H                    -3.78225  -6.42869   0.0622 
 H                    -3.29296  -4.94164   0.95948 
 
 Add virtual bond connecting atoms O34        and H14        Dist= 3.93D+00.

 GradGradGradGradGradGradGradGradGradGradGradGradGradGradGradGradGradGrad
 Berny optimization.
 Initialization pass.
                           ----------------------------
                           !    Initial Parameters    !
                           ! (Angstroms and Degrees)  !
 --------------------------                            --------------------------
 ! Name  Definition              Value          Derivative Info.                !
 --------------------------------------------------------------------------------
 ! R1    R(1,2)                  1.4426         calculate D2E/DX2 analytically  !
 ! R2    R(1,9)                  1.4137         calculate D2E/DX2 analytically  !
 ! R3    R(1,13)                 1.3986         calculate D2E/DX2 analytically  !
 ! R4    R(2,3)                  1.3674         calculate D2E/DX2 analytically  !
 ! R5    R(2,14)                 1.1468         calculate D2E/DX2 analytically  !
 ! R6    R(3,4)                  1.2204         calculate D2E/DX2 analytically  !
 ! R7    R(3,5)                  1.3591         calculate D2E/DX2 analytically  !
 ! R8    R(5,6)                  1.382          calculate D2E/DX2 analytically  !
 ! R9    R(6,7)                  1.5269         calculate D2E/DX2 analytically  !
 ! R10   R(6,15)                 1.1129         calculate D2E/DX2 analytically  !
 ! R11   R(6,16)                 1.1129         calculate D2E/DX2 analytically  !
 ! R12   R(7,8)                  1.527          calculate D2E/DX2 analytically  !
 ! R13   R(7,17)                 1.1116         calculate D2E/DX2 analytically  !
 ! R14   R(7,18)                 1.1116         calculate D2E/DX2 analytically  !
 ! R15   R(8,19)                 1.1112         calculate D2E/DX2 analytically  !
 ! R16   R(8,20)                 1.1101         calculate D2E/DX2 analytically  !
 ! R17   R(8,21)                 1.1112         calculate D2E/DX2 analytically  !
 ! R18   R(9,10)                 1.416          calculate D2E/DX2 analytically  !
 ! R19   R(9,22)                 1.0694         calculate D2E/DX2 analytically  !
 ! R20   R(10,11)                1.4291         calculate D2E/DX2 analytically  !
 ! R21   R(10,25)                1.5222         calculate D2E/DX2 analytically  !
 ! R22   R(11,12)                1.4036         calculate D2E/DX2 analytically  !
 ! R23   R(11,24)                1.5232         calculate D2E/DX2 analytically  !
 ! R24   R(12,13)                1.3899         calculate D2E/DX2 analytically  !
 ! R25   R(12,26)                1.0837         calculate D2E/DX2 analytically  !
 ! R26   R(13,23)                1.1923         calculate D2E/DX2 analytically  !
 ! R27   R(14,34)                2.0773         calculate D2E/DX2 analytically  !
 ! R28   R(24,27)                1.3776         calculate D2E/DX2 analytically  !
 ! R29   R(24,28)                1.3836         calculate D2E/DX2 analytically  !
 ! R30   R(24,29)                1.3836         calculate D2E/DX2 analytically  !
 ! R31   R(25,30)                1.3849         calculate D2E/DX2 analytically  !
 ! R32   R(25,31)                1.3833         calculate D2E/DX2 analytically  !
 ! R33   R(25,32)                1.3833         calculate D2E/DX2 analytically  !
 ! R34   R(33,35)                1.351          calculate D2E/DX2 analytically  !
 ! R35   R(34,35)                1.2272         calculate D2E/DX2 analytically  !
 ! R36   R(35,36)                1.5058         calculate D2E/DX2 analytically  !
 ! R37   R(36,37)                1.5277         calculate D2E/DX2 analytically  !
 ! R38   R(36,38)                1.1111         calculate D2E/DX2 analytically  !
 ! R39   R(36,39)                1.1111         calculate D2E/DX2 analytically  !
 ! R40   R(37,40)                1.1108         calculate D2E/DX2 analytically  !
 ! R41   R(37,41)                1.1106         calculate D2E/DX2 analytically  !
 ! R42   R(37,42)                1.1109         calculate D2E/DX2 analytically  !
 ! A1    A(2,1,9)              124.7975         calculate D2E/DX2 analytically  !
 ! A2    A(2,1,13)             117.4781         calculate D2E/DX2 analytically  !
 ! A3    A(9,1,13)             117.7244         calculate D2E/DX2 analytically  !
 ! A4    A(1,2,3)              127.8484         calculate D2E/DX2 analytically  !
 ! A5    A(1,2,14)             116.512          calculate D2E/DX2 analytically  !
 ! A6    A(3,2,14)             115.6394         calculate D2E/DX2 analytically  !
 ! A7    A(2,3,4)              121.7696         calculate D2E/DX2 analytically  !
 ! A8    A(2,3,5)              118.8853         calculate D2E/DX2 analytically  !
 ! A9    A(4,3,5)              119.3448         calculate D2E/DX2 analytically  !
 ! A10   A(3,5,6)              123.3445         calculate D2E/DX2 analytically  !
 ! A11   A(5,6,7)              110.0022         calculate D2E/DX2 analytically  !
 ! A12   A(5,6,15)             109.4678         calculate D2E/DX2 analytically  !
 ! A13   A(5,6,16)             109.4559         calculate D2E/DX2 analytically  !
 ! A14   A(7,6,15)             109.3955         calculate D2E/DX2 analytically  !
 ! A15   A(7,6,16)             109.3706         calculate D2E/DX2 analytically  !
 ! A16   A(15,6,16)            109.1319         calculate D2E/DX2 analytically  !
 ! A17   A(6,7,8)              110.943          calculate D2E/DX2 analytically  !
 ! A18   A(6,7,17)             109.4501         calculate D2E/DX2 analytically  !
 ! A19   A(6,7,18)             109.4548         calculate D2E/DX2 analytically  !
 ! A20   A(8,7,17)             109.0833         calculate D2E/DX2 analytically  !
 ! A21   A(8,7,18)             109.0945         calculate D2E/DX2 analytically  !
 ! A22   A(17,7,18)            108.7802         calculate D2E/DX2 analytically  !
 ! A23   A(7,8,19)             110.3558         calculate D2E/DX2 analytically  !
 ! A24   A(7,8,20)             109.7142         calculate D2E/DX2 analytically  !
 ! A25   A(7,8,21)             110.3565         calculate D2E/DX2 analytically  !
 ! A26   A(19,8,20)            108.6572         calculate D2E/DX2 analytically  !
 ! A27   A(19,8,21)            109.0544         calculate D2E/DX2 analytically  !
 ! A28   A(20,8,21)            108.661          calculate D2E/DX2 analytically  !
 ! A29   A(1,9,10)             122.0008         calculate D2E/DX2 analytically  !
 ! A30   A(1,9,22)             120.7439         calculate D2E/DX2 analytically  !
 ! A31   A(10,9,22)            117.2553         calculate D2E/DX2 analytically  !
 ! A32   A(9,10,11)            118.7587         calculate D2E/DX2 analytically  !
 ! A33   A(9,10,25)            118.4683         calculate D2E/DX2 analytically  !
 ! A34   A(11,10,25)           122.7729         calculate D2E/DX2 analytically  !
 ! A35   A(10,11,12)           118.557          calculate D2E/DX2 analytically  !
 ! A36   A(10,11,24)           126.1499         calculate D2E/DX2 analytically  !
 ! A37   A(12,11,24)           115.2931         calculate D2E/DX2 analytically  !
 ! A38   A(11,12,13)           121.5516         calculate D2E/DX2 analytically  !
 ! A39   A(11,12,26)           120.3378         calculate D2E/DX2 analytically  !
 ! A40   A(13,12,26)           118.1106         calculate D2E/DX2 analytically  !
 ! A41   A(1,13,12)            121.4075         calculate D2E/DX2 analytically  !
 ! A42   A(1,13,23)            120.1684         calculate D2E/DX2 analytically  !
 ! A43   A(12,13,23)           118.4241         calculate D2E/DX2 analytically  !
 ! A44   A(11,24,27)           114.8473         calculate D2E/DX2 analytically  !
 ! A45   A(11,24,28)           108.9923         calculate D2E/DX2 analytically  !
 ! A46   A(11,24,29)           108.9875         calculate D2E/DX2 analytically  !
 ! A47   A(27,24,28)           107.624          calculate D2E/DX2 analytically  !
 ! A48   A(27,24,29)           107.6226         calculate D2E/DX2 analytically  !
 ! A49   A(28,24,29)           108.6077         calculate D2E/DX2 analytically  !
 ! A50   A(10,25,30)           112.5088         calculate D2E/DX2 analytically  !
 ! A51   A(10,25,31)           109.8181         calculate D2E/DX2 analytically  !
 ! A52   A(10,25,32)           109.8233         calculate D2E/DX2 analytically  !
 ! A53   A(30,25,31)           107.262          calculate D2E/DX2 analytically  !
 ! A54   A(30,25,32)           107.2622         calculate D2E/DX2 analytically  !
 ! A55   A(31,25,32)           110.1009         calculate D2E/DX2 analytically  !
 ! A56   A(14,34,35)           120.4251         calculate D2E/DX2 analytically  !
 ! A57   A(33,35,34)           120.1015         calculate D2E/DX2 analytically  !
 ! A58   A(33,35,36)           118.5955         calculate D2E/DX2 analytically  !
 ! A59   A(34,35,36)           121.303          calculate D2E/DX2 analytically  !
 ! A60   A(35,36,37)           113.3579         calculate D2E/DX2 analytically  !
 ! A61   A(35,36,38)           108.6178         calculate D2E/DX2 analytically  !
 ! A62   A(35,36,39)           108.603          calculate D2E/DX2 analytically  !
 ! A63   A(37,36,38)           108.8111         calculate D2E/DX2 analytically  !
 ! A64   A(37,36,39)           108.7753         calculate D2E/DX2 analytically  !
 ! A65   A(38,36,39)           108.5776         calculate D2E/DX2 analytically  !
 ! A66   A(36,37,40)           110.3312         calculate D2E/DX2 analytically  !
 ! A67   A(36,37,41)           109.4627         calculate D2E/DX2 analytically  !
 ! A68   A(36,37,42)           110.316          calculate D2E/DX2 analytically  !
 ! A69   A(40,37,41)           108.6437         calculate D2E/DX2 analytically  !
 ! A70   A(40,37,42)           109.4148         calculate D2E/DX2 analytically  !
 ! A71   A(41,37,42)           108.6326         calculate D2E/DX2 analytically  !
 ! A72   L(2,14,34,5,-1)       173.754          calculate D2E/DX2 analytically  !
 ! A73   L(2,14,34,5,-2)       177.8687         calculate D2E/DX2 analytically  !
 ! D1    D(9,1,2,3)           -176.491          calculate D2E/DX2 analytically  !
 ! D2    D(9,1,2,14)             3.6821         calculate D2E/DX2 analytically  !
 ! D3    D(13,1,2,3)             3.5593         calculate D2E/DX2 analytically  !
 ! D4    D(13,1,2,14)         -176.2675         calculate D2E/DX2 analytically  !
 ! D5    D(2,1,9,10)          -179.9933         calculate D2E/DX2 analytically  !
 ! D6    D(2,1,9,22)            -0.1062         calculate D2E/DX2 analytically  !
 ! D7    D(13,1,9,10)           -0.0437         calculate D2E/DX2 analytically  !
 ! D8    D(13,1,9,22)          179.8434         calculate D2E/DX2 analytically  !
 ! D9    D(2,1,13,12)         -179.978          calculate D2E/DX2 analytically  !
 ! D10   D(2,1,13,23)           -0.0365         calculate D2E/DX2 analytically  !
 ! D11   D(9,1,13,12)            0.0687         calculate D2E/DX2 analytically  !
 ! D12   D(9,1,13,23)         -179.9898         calculate D2E/DX2 analytically  !
 ! D13   D(1,2,3,4)             -0.1266         calculate D2E/DX2 analytically  !
 ! D14   D(1,2,3,5)           -179.9191         calculate D2E/DX2 analytically  !
 ! D15   D(14,2,3,4)           179.7016         calculate D2E/DX2 analytically  !
 ! D16   D(14,2,3,5)            -0.091          calculate D2E/DX2 analytically  !
 ! D17   D(1,2,34,35)            1.4313         calculate D2E/DX2 analytically  !
 ! D18   D(3,2,34,35)         -179.7187         calculate D2E/DX2 analytically  !
 ! D19   D(2,3,5,6)            179.784          calculate D2E/DX2 analytically  !
 ! D20   D(4,3,5,6)             -0.0136         calculate D2E/DX2 analytically  !
 ! D21   D(3,5,6,7)           -179.9362         calculate D2E/DX2 analytically  !
 ! D22   D(3,5,6,15)            59.8314         calculate D2E/DX2 analytically  !
 ! D23   D(3,5,6,16)           -59.7421         calculate D2E/DX2 analytically  !
 ! D24   D(5,6,7,8)            179.968          calculate D2E/DX2 analytically  !
 ! D25   D(5,6,7,17)            59.543          calculate D2E/DX2 analytically  !
 ! D26   D(5,6,7,18)           -59.5899         calculate D2E/DX2 analytically  !
 ! D27   D(15,6,7,8)           -59.7559         calculate D2E/DX2 analytically  !
 ! D28   D(15,6,7,17)          179.8191         calculate D2E/DX2 analytically  !
 ! D29   D(15,6,7,18)           60.6862         calculate D2E/DX2 analytically  !
 ! D30   D(16,6,7,8)            59.7222         calculate D2E/DX2 analytically  !
 ! D31   D(16,6,7,17)          -60.7028         calculate D2E/DX2 analytically  !
 ! D32   D(16,6,7,18)         -179.8357         calculate D2E/DX2 analytically  !
 ! D33   D(6,7,8,19)           -60.2968         calculate D2E/DX2 analytically  !
 ! D34   D(6,7,8,20)          -179.9934         calculate D2E/DX2 analytically  !
 ! D35   D(6,7,8,21)            60.3049         calculate D2E/DX2 analytically  !
 ! D36   D(17,7,8,19)           60.3456         calculate D2E/DX2 analytically  !
 ! D37   D(17,7,8,20)          -59.351          calculate D2E/DX2 analytically  !
 ! D38   D(17,7,8,21)         -179.0526         calculate D2E/DX2 analytically  !
 ! D39   D(18,7,8,19)          179.0476         calculate D2E/DX2 analytically  !
 ! D40   D(18,7,8,20)           59.351          calculate D2E/DX2 analytically  !
 ! D41   D(18,7,8,21)          -60.3506         calculate D2E/DX2 analytically  !
 ! D42   D(1,9,10,11)           -0.0096         calculate D2E/DX2 analytically  !
 ! D43   D(1,9,10,25)          179.9733         calculate D2E/DX2 analytically  !
 ! D44   D(22,9,10,11)        -179.9004         calculate D2E/DX2 analytically  !
 ! D45   D(22,9,10,25)           0.0824         calculate D2E/DX2 analytically  !
 ! D46   D(9,10,11,12)           0.0391         calculate D2E/DX2 analytically  !
 ! D47   D(9,10,11,24)        -179.9792         calculate D2E/DX2 analytically  !
 ! D48   D(25,10,11,12)       -179.943          calculate D2E/DX2 analytically  !
 ! D49   D(25,10,11,24)          0.0388         calculate D2E/DX2 analytically  !
 ! D50   D(9,10,25,30)          -0.008          calculate D2E/DX2 analytically  !
 ! D51   D(9,10,25,31)        -119.3993         calculate D2E/DX2 analytically  !
 ! D52   D(9,10,25,32)         119.387          calculate D2E/DX2 analytically  !
 ! D53   D(11,10,25,30)        179.9741         calculate D2E/DX2 analytically  !
 ! D54   D(11,10,25,31)         60.5828         calculate D2E/DX2 analytically  !
 ! D55   D(11,10,25,32)        -60.6309         calculate D2E/DX2 analytically  !
 ! D56   D(10,11,12,13)         -0.0152         calculate D2E/DX2 analytically  !
 ! D57   D(10,11,12,26)        179.9849         calculate D2E/DX2 analytically  !
 ! D58   D(24,11,12,13)       -179.999          calculate D2E/DX2 analytically  !
 ! D59   D(24,11,12,26)          0.0012         calculate D2E/DX2 analytically  !
 ! D60   D(10,11,24,27)          0.0033         calculate D2E/DX2 analytically  !
 ! D61   D(10,11,24,28)       -120.8099         calculate D2E/DX2 analytically  !
 ! D62   D(10,11,24,29)        120.8112         calculate D2E/DX2 analytically  !
 ! D63   D(12,11,24,27)        179.9856         calculate D2E/DX2 analytically  !
 ! D64   D(12,11,24,28)         59.1724         calculate D2E/DX2 analytically  !
 ! D65   D(12,11,24,29)        -59.2065         calculate D2E/DX2 analytically  !
 ! D66   D(11,12,13,1)          -0.0404         calculate D2E/DX2 analytically  !
 ! D67   D(11,12,13,23)       -179.9828         calculate D2E/DX2 analytically  !
 ! D68   D(26,12,13,1)         179.9595         calculate D2E/DX2 analytically  !
 ! D69   D(26,12,13,23)          0.017          calculate D2E/DX2 analytically  !
 ! D70   D(14,34,35,33)          0.064          calculate D2E/DX2 analytically  !
 ! D71   D(14,34,35,36)       -179.8984         calculate D2E/DX2 analytically  !
 ! D72   D(33,35,36,37)       -179.8893         calculate D2E/DX2 analytically  !
 ! D73   D(33,35,36,38)         59.0385         calculate D2E/DX2 analytically  !
 ! D74   D(33,35,36,39)        -58.873          calculate D2E/DX2 analytically  !
 ! D75   D(34,35,36,37)          0.0737         calculate D2E/DX2 analytically  !
 ! D76   D(34,35,36,38)       -120.9985         calculate D2E/DX2 analytically  !
 ! D77   D(34,35,36,39)        121.09           calculate D2E/DX2 analytically  !
 ! D78   D(35,36,37,40)        -60.5118         calculate D2E/DX2 analytically  !
 ! D79   D(35,36,37,41)        179.9816         calculate D2E/DX2 analytically  !
 ! D80   D(35,36,37,42)         60.498          calculate D2E/DX2 analytically  !
 ! D81   D(38,36,37,40)         60.4515         calculate D2E/DX2 analytically  !
 ! D82   D(38,36,37,41)        -59.0551         calculate D2E/DX2 analytically  !
 ! D83   D(38,36,37,42)       -178.5386         calculate D2E/DX2 analytically  !
 ! D84   D(39,36,37,40)        178.569          calculate D2E/DX2 analytically  !
 ! D85   D(39,36,37,41)         59.0625         calculate D2E/DX2 analytically  !
 ! D86   D(39,36,37,42)        -60.4211         calculate D2E/DX2 analytically  !
 --------------------------------------------------------------------------------
 Trust Radius=3.00D-01 FncErr=1.00D-07 GrdErr=1.00D-06 EigMax=2.50D+02 EigMin=1.00D-04
 Number of steps in this run=    211 maximum allowed number of steps=    252.
 GradGradGradGradGradGradGradGradGradGradGradGradGradGradGradGradGradGrad

                          Input orientation:                          
 ---------------------------------------------------------------------
 Center     Atomic      Atomic             Coordinates (Angstroms)
 Number     Number       Type             X           Y           Z
 ---------------------------------------------------------------------
      1          6           0       -6.060630    1.203100    0.200710
      2          7           0       -4.761290    0.581330    0.122760
      3          6           0       -3.539050    1.193400    0.087420
      4          8           0       -3.427690    2.408320    0.118690
      5          8           0       -2.421410    0.423870    0.011240
      6          6           0       -1.142140    0.944720   -0.034060
      7          6           0       -0.120250   -0.186690   -0.118100
      8          6           0        1.302410    0.365540   -0.170110
      9          6           0       -7.284750    0.503690    0.304520
     10          6           0       -8.529060    1.175610    0.377220
     11          6           0       -8.541950    2.604240    0.344440
     12          6           0       -7.318390    3.284060    0.240490
     13          6           0       -6.110230    2.600450    0.170130
     14          1           0       -4.743740   -0.564660    0.082500
     15          1           0       -0.953610    1.545620    0.883530
     16          1           0       -1.040510    1.601020   -0.927140
     17          1           0       -0.309780   -0.789480   -1.032650
     18          1           0       -0.222540   -0.844830    0.771860
     19          1           0        1.432940    1.013930   -1.062990
     20          1           0        2.027540   -0.472820   -0.230950
     21          1           0        1.520480    0.958610    0.743880
     22          1           0       -7.303210   -0.565240    0.329390
     23          1           0       -5.103930    3.233960    0.083180
     24          6           0       -9.776790    3.493430    0.411790
     25          6           0       -9.798260    0.342450    0.486790
     26          1           0       -7.294590    4.367110    0.212980
     27          9           0      -10.972480    2.816840    0.513350
     28          9           0       -9.832600    4.273700   -0.729470
     29          9           0       -9.672190    4.326540    1.511520
     30          9           0       -9.539860   -1.018100    0.499990
     31          9           0      -10.619360    0.593820   -0.597700
     32          9           0      -10.458700    0.646270    1.663630
     33          8           0       -6.705250   -2.862670    0.120190
     34          8           0       -4.483570   -2.625580    0.074170
     35          6           0       -5.455380   -3.374760    0.094010
     36          6           0       -5.289640   -4.871450    0.090740
     37          6           0       -3.829240   -5.319070    0.062840
     38          1           0       -5.807830   -5.283760   -0.801400
     39          1           0       -5.772610   -5.283530    1.002540
     40          1           0       -3.327390   -4.941860   -0.853560
     41          1           0       -3.782250   -6.428690    0.062200
     42          1           0       -3.292960   -4.941640    0.959480
 ---------------------------------------------------------------------
                    Distance matrix (angstroms):
                    1          2          3          4          5
     1  C    0.000000
     2  N    1.442553   0.000000
     3  C    2.524142   1.367388   0.000000
     4  O    2.896835   2.261946   1.220414   0.000000
     5  O    3.726529   2.347822   1.359080   2.227597   0.000000
     6  C    4.930864   3.640727   2.412836   2.718308   1.381980
     7  C    6.109114   4.710321   3.692571   4.210618   2.384292
     8  C    7.419796   6.074603   4.918476   5.160446   3.728690
     9  C    1.413655   2.531188   3.814853   4.305701   4.872829
    10  C    2.474885   3.822827   4.998450   5.254559   6.164612
    11  C    2.853209   4.293565   5.204377   5.122988   6.505847
    12  C    2.431859   3.722549   4.321771   3.989900   5.675707
    13  C    1.398564   2.428730   2.932166   2.689904   4.286040
    14  H    2.207521   1.146831   2.131215   3.251447   2.524973
    15  H    5.163837   4.000882   2.728067   2.729524   2.042951
    16  H    5.160619   3.998282   2.727304   2.728392   2.042823
    17  H    6.209978   4.798962   3.951526   4.612252   2.649699
    18  H    6.213173   4.801616   3.952477   4.613307   2.650127
    19  H    7.601731   6.321521   5.106500   5.192920   4.044522
    20  H    8.271247   6.879285   5.819328   6.179219   4.544872
    21  H    7.604475   6.323667   5.107339   5.193930   4.044899
    22  H    2.165084   2.796190   4.161762   4.889387   4.991145
    23  H    2.247995   2.674961   2.571527   1.868883   3.885575
    24  C    4.370356   5.806815   6.656182   6.447825   7.980241
    25  C    3.846094   5.055754   6.329401   6.707271   7.392611
    26  H    3.396140   4.556082   4.918565   4.335743   6.271979
    27  F    5.179592   6.612787   7.620555   7.566142   8.893774
    28  F    4.951927   6.330725   7.054384   6.724722   8.384246
    29  F    4.951511   6.330260   7.032783   6.679321   8.369915
    30  F    4.138640   5.053238   6.408640   7.017433   7.279456
    31  F    4.668051   5.902220   7.138605   7.451560   8.222291
    32  F    4.668320   5.902455   7.117959   7.411259   8.208403
    33  O    4.117342   3.954760   5.145639   6.206910   5.400417
    34  O    4.142695   3.219280   3.934069   5.143638   3.681794
    35  C    4.618930   4.016620   4.953832   6.128307   4.862244
    36  C    6.124269   5.478411   6.312447   7.514166   6.022747
    37  C    6.894694   5.973862   6.518978   7.738018   5.913206
    38  H    6.568675   6.028980   6.920330   8.104303   6.686200
    39  H    6.542343   6.016092   6.912081   8.089771   6.692356
    40  H    6.807541   5.789205   6.210609   7.414882   5.509967
    41  H    7.965828   7.078317   7.626011   8.844300   6.986563
    42  H    6.781855   5.775750   6.201594   7.399121   5.517921
                    6          7          8          9         10
     6  C    0.000000
     7  C    1.526896   0.000000
     8  C    2.515906   1.526966   0.000000
     9  C    6.167723   7.210083   8.601376   0.000000
    10  C    7.401962   8.532836   9.879959   1.416005   0.000000
    11  C    7.593053   8.884158  10.108806   2.448358   1.429064
    12  C    6.610140   7.999244   9.110683   2.781311   2.435155
    13  C    5.240711   6.612948   7.749698   2.407065   2.814923
    14  H    3.906832   4.643249   6.122501   2.765393   4.176607
    15  H    1.112922   2.167637   2.755426   6.442376   7.601362
    16  H    1.112947   2.167333   2.754774   6.458456   7.613193
    17  H    2.167361   1.111611   2.162684   7.218762   8.567723
    18  H    2.167409   1.111594   2.162817   7.204979   8.557815
    19  H    2.773900   2.178693   1.111163   8.839035  10.066866
    20  H    3.477795   2.169702   1.110118   9.378648  10.701822
    21  H    2.773973   2.178696   1.111154   8.827914  10.058568
    22  H    6.353807   7.206834   8.670210   1.069379   2.129684
    23  H    4.577133   6.048010   7.023758   3.501334   4.006842
    24  C    9.013983  10.347600  11.526967   3.893625   2.632549
    25  C    8.692665   9.711321  11.120114   2.525263   1.522179
    26  H    7.044602   8.503991   9.490402   3.864517   3.425867
    27  F   10.021980  11.277891  12.535905   4.358168   2.946603
    28  F    9.332191  10.705073  11.814188   4.666224   3.538664
    29  F    9.305228  10.689456  11.788098   4.665930   3.538607
    30  F    8.640577   9.476409  10.950722   2.727558   2.418502
    31  F    9.500448  10.539000  11.931620   3.455683   2.378719
    32  F    9.474678  10.523874  11.906516   3.455643   2.378773
    33  O    6.743012   7.111953   8.638763   3.420845   4.438474
    34  O    4.891207   5.002371   6.517978   4.206186   5.559395
    35  C    6.105600   6.218713   7.728346   4.293400   5.498507
    36  C    7.144590   6.979483   8.423137   5.737447   6.866065
    37  C    6.816521   6.334877   7.661781   6.775212   8.022968
    38  H    7.819938   7.667828   9.103221   6.074449   7.107580
    39  H    7.829872   7.693035   9.129239   6.022102   7.050499
    40  H    6.332355   5.782585   7.076062   6.830510   8.123769
    41  H    7.832408   7.239152   8.489364   7.770722   8.969773
    42  H    6.345265   5.816942   7.110524   6.783434   8.073197
                   11         12         13         14         15
    11  C    0.000000
    12  C    1.403588   0.000000
    13  C    2.437962   1.389937   0.000000
    14  H    4.953477   4.633188   3.448608   0.000000
    15  H    7.680768   6.629185   5.311529   4.411351   0.000000
    16  H    7.674306   6.603617   5.282511   4.407205   1.813600
    17  H    9.010124   8.205805   6.825212   4.577565   3.088520
    18  H    9.016172   8.226857   6.848133   4.582026   2.502236
    19  H   10.198450   9.134458   7.806218   6.477304   3.125261
    20  H   11.023316  10.083789   8.707994   6.779153   3.768743
    21  H   10.203928   9.153510   7.826402   6.480604   2.546606
    22  H    3.402985   3.850356   3.386762   2.571350   6.714181
    23  H    3.504966   2.220606   1.192281   3.815659   4.551506
    24  C    1.523163   2.473239   3.781465   6.473648   9.047928
    25  C    2.591191   3.855319   4.335943   5.151162   8.934923
    26  H    2.163539   1.083661   2.127353   5.553937   6.972695
    27  F    2.445650   3.693930   4.879149   7.100519  10.105978
    28  F    2.367732   2.870795   4.179125   7.068629   9.427654
    29  F    2.367665   2.871003   4.179267   7.089115   9.172869
    30  F    3.760501   4.848799   4.996506   4.835563   8.969027
    31  F    3.040567   4.340087   4.994835   6.027243   9.824800
    32  F    3.041026   4.341061   4.995854   6.052032   9.579359
    33  O    5.771556   6.178406   5.495655   3.021555   7.286774
    34  O    6.625293   6.556501   5.474178   2.077294   5.524001
    35  C    6.733355   6.916079   6.011469   2.898832   6.715610
    36  C    8.156459   8.405391   7.517244   4.341257   7.785144
    37  C    9.223219   9.285450   8.242161   4.841602   7.487773
    38  H    8.426678   8.762127   7.949596   4.917669   8.546512
    39  H    8.385658   8.739208   7.934988   4.916582   8.359080
    40  H    9.250431   9.208191   8.104232   4.694905   7.123181
    41  H   10.214119  10.337968   9.325047   5.942367   8.500906
    42  H    9.212517   9.186031   8.089697   4.693806   6.896584
                   16         17         18         19         20
    16  H    0.000000
    17  H    2.501917   0.000000
    18  H    3.088342   1.807465   0.000000
    19  H    2.545797   2.508043   3.092293   0.000000
    20  H    3.768080   2.491197   2.491361   1.804512   0.000000
    21  H    3.124687   3.092205   2.508246   1.809835   1.804548
    22  H    6.744847   7.128359   7.099989   8.986257   9.348017
    23  H    4.494288   6.357438   6.398342   6.998065   8.043430
    24  C    9.038614  10.490663  10.499231  11.575014  12.469421
    25  C    8.959988   9.675806   9.653254  11.357489  11.875578
    26  H    6.932867   8.770951   8.802872   9.436191  10.513044
    27  F   10.109266  11.361727  11.359395  12.634468  13.430427
    28  F    9.191471  10.789431  10.991205  11.732422  12.784400
    29  F    9.374509  10.968190  10.797502  11.871200  12.765334
    30  F    9.007521   9.359254   9.322896  11.268291  11.603290
    31  F    9.637290  10.411059  10.584861  12.068592  12.697098
    32  F    9.814578  10.598674  10.382563  12.205766  12.678643
    33  O    7.287709   6.821231   6.820695   9.091649   9.060701
    34  O    5.542692   4.692210   4.670569   7.038768   6.864549
    35  C    6.729949   5.867728   5.851721   8.249133   8.032493
    36  C    7.809229   6.536321   6.507926   9.008988   8.543568
    37  C    7.526269   5.839853   5.790494   8.310531   7.607518
    38  H    8.375162   7.104969   7.305800   9.599900   9.212143
    39  H    8.573999   7.360774   7.110453   9.790014   9.246987
    40  H    6.931415   5.136176   5.391451   7.627322   7.002516
    41  H    8.542375   6.712483   6.659928   9.157339   8.325382
    42  H    7.172117   5.487110   5.123137   7.867231   7.049482
                   21         22         23         24         25
    21  H    0.000000
    22  H    8.963896   0.000000
    23  H    7.035378   4.396746   0.000000
    24  C   11.582914   4.753755   4.691581   0.000000
    25  C   11.338414   2.659690   5.528152   3.151946   0.000000
    26  H    9.466002   4.933731   2.469791   2.638969   4.747760
    27  F   12.632506   4.993581   5.899060   1.377593   2.738997
    28  F   11.918599   5.561865   4.909356   1.383622   4.115239
    29  F   11.713586   5.562285   4.909469   1.383625   4.115694
    30  F   11.238238   2.288403   6.158833   4.518608   1.384934
    31  F   12.219191   3.633148   6.152553   3.183824   1.383297
    32  F   12.018496   3.633878   6.153659   3.184089   1.383271
    33  O    9.091414   2.383171   6.303530   7.065366   4.469217
    34  O    7.024496   3.501501   5.892295   8.097805   6.101261
    35  C    8.237903   3.370947   6.618067   8.120813   5.729968
    36  C    8.988544   4.759712   8.107541   9.497832   6.904293
    37  C    8.276025   5.893930   8.647518  10.637447   8.237824
    38  H    9.749831   5.077330   8.592410   9.708941   7.016923
    39  H    9.603144   5.005809   8.593020   9.665271   6.937111
    40  H    7.801872   6.030035   8.418884  10.693455   8.461243
    41  H    9.118982   6.844603   9.752645  11.597637   9.067579
    42  H    7.617653   5.969254   8.419498  10.653188   8.394282
                   26         27         28         29         30
    26  H    0.000000
    27  F    4.002553   0.000000
    28  F    2.708954   2.228535   0.000000
    29  F    2.709397   2.228518   2.247345   0.000000
    30  F    5.841584   4.093818   5.440626   5.441129   0.000000
    31  F    5.094018   2.510168   3.765351   4.390802   2.229020
    32  F    5.095157   2.509679   4.390578   3.766447   2.229003
    33  O    7.254354   7.114820   7.837730   7.900840   3.403190
    34  O    7.537826   8.480493   8.766871   8.793164   5.322723
    35  C    7.958228   8.303623   8.850826   8.893865   4.733037
    36  C    9.454404   9.569905  10.244267  10.287292   5.751536
    37  C   10.288502  10.836137  11.344132  11.369984   7.162445
    38  H    9.817266   9.696489  10.370583  10.613234   5.815283
    39  H    9.801769   9.638151  10.527299  10.383604   5.713022
    40  H   10.175122  10.977854  11.280944  11.478385   7.471464
    41  H   11.353791  11.721040  12.319685  12.347749   7.913041
    42  H   10.159879  10.925570  11.425495  11.264923   7.391147
                   31         32         33         34         35
    31  F    0.000000
    32  F    2.267637   0.000000
    33  O    5.270953   5.365003   0.000000
    34  O    6.961599   6.995253   2.234769   0.000000
    35  C    6.549411   6.607995   1.350961   1.227224   0.000000
    36  C    7.664792   7.722590   2.457644   2.386201   1.505842
    37  C    9.027974   9.060770   3.782674   2.771852   2.534885
    38  H    7.598570   7.929200   2.741599   3.096160   2.137817
    39  H    7.784279   7.586765   2.740241   3.096481   2.137631
    40  H    9.158714   9.403139   4.084257   2.750016   2.807496
    41  H    9.823298   9.858733   4.611268   3.867252   3.482365
    42  H    9.313553   9.114186   4.082921   2.750538   2.807171
                   36         37         38         39         40
    36  C    0.000000
    37  C    1.527714   0.000000
    38  H    1.111051   2.159392   0.000000
    39  H    1.111058   2.158932   1.804284   0.000000
    40  H    2.178781   1.110824   2.504436   3.088842   0.000000
    41  H    2.167495   1.110615   2.481863   2.481363   1.804488
    42  H    2.178616   1.110861   3.089064   2.503479   1.813367
                   41         42
    41  H    0.000000
    42  H    1.804393   0.000000
 Stoichiometry    C15H16F6NO4(1-)
 Framework group  C1[X(C15H16F6NO4)]
 Deg. of freedom   120
 Full point group                 C1      NOp   1
 Largest Abelian subgroup         C1      NOp   1
 Largest concise Abelian subgroup C1      NOp   1
                         Standard orientation:                         
 ---------------------------------------------------------------------
 Center     Atomic      Atomic             Coordinates (Angstroms)
 Number     Number       Type             X           Y           Z
 ---------------------------------------------------------------------
      1          6           0        0.083194   -0.763009   -0.015627
      2          7           0       -1.358821   -0.723618   -0.016036
      3          6           0       -2.226983   -1.779631    0.013653
      4          8           0       -1.833337   -2.934438    0.043192
      5          8           0       -3.563185   -1.531439    0.005724
      6          6           0       -4.520963   -2.527418    0.029287
      7          6           0       -5.917256   -1.909824    0.010479
      8          6           0       -6.993446   -2.992795    0.035230
      9          6           0        0.921305    0.374734    0.023509
     10          6           0        2.333211    0.267093    0.021454
     11          6           0        2.923533   -1.033642   -0.021368
     12          6           0        2.077968   -2.153260   -0.060547
     13          6           0        0.694415   -2.020222   -0.058119
     14          1           0       -1.842540    0.315724   -0.047727
     15          1           0       -4.399068   -3.137469    0.952096
     16          1           0       -4.395499   -3.183501   -0.860917
     17          1           0       -6.038843   -1.297589   -0.909338
     18          1           0       -6.043035   -1.251844    0.897543
     19          1           0       -6.897546   -3.653379   -0.853091
     20          1           0       -7.998744   -2.522121    0.020914
     21          1           0       -6.901872   -3.607743    0.956163
     22          1           0        0.505268    1.359384    0.054306
     23          1           0        0.029136   -3.009046   -0.092285
     24          6           0        4.414771   -1.343749   -0.029654
     25          6           0        3.158422    1.545446    0.064674
     26          1           0        2.494726   -3.153024   -0.093770
     27          9           0        5.236096   -0.238436    0.008691
     28          9           0        4.720745   -2.053408   -1.177336
     29          9           0        4.717431   -2.128826    1.068741
     30          9           0        2.370748    2.683983    0.101358
     31          9           0        3.950693    1.630681   -1.066057
     32          9           0        3.948096    1.555862    1.200344
     33          8           0       -0.984784    3.212391   -0.105742
     34          8           0       -2.917503    2.093141   -0.027845
     35          6           0       -2.334312    3.172520   -0.057976
     36          6           0       -3.093661    4.472788   -0.042072
     37          6           0       -4.609131    4.288519    0.015436
     38          1           0       -2.836863    5.044762   -0.959315
     39          1           0       -2.771058    5.060827    0.843696
     40          1           0       -4.963370    3.724601   -0.873631
     41          1           0       -5.102781    5.283350    0.024725
     42          1           0       -4.896355    3.741150    0.938421
 ---------------------------------------------------------------------
 Rotational constants (GHZ):           0.2368035           0.0953910           0.0699950
 Standard basis: 6-311+G(d) (5D, 7F)
 There are   646 symmetry adapted cartesian basis functions of A   symmetry.
 There are   620 symmetry adapted basis functions of A   symmetry.
   620 basis functions,  1016 primitive gaussians,   646 cartesian basis functions
   100 alpha electrons      100 beta electrons
       nuclear repulsion energy      2429.2726784727 Hartrees.
 NAtoms=   42 NActive=   42 NUniq=   42 SFac= 1.00D+00 NAtFMM=   60 NAOKFM=F Big=F
 Integral buffers will be    131072 words long.
 Raffenetti 2 integral format.
 Two-electron integral symmetry is turned on.
 Nuclear repulsion after empirical dispersion term =     2429.2702664193 Hartrees.
 One-electron integrals computed using PRISM.
 NBasis=   620 RedAO= T EigKep=  1.80D-06  NBF=   620
 NBsUse=   616 1.00D-06 EigRej=  9.49D-07 NBFU=   616
 ExpMin= 4.38D-02 ExpMax= 1.14D+04 ExpMxC= 1.72D+03 IAcc=3 IRadAn=         5 AccDes= 0.00D+00
 Harris functional with IExCor= 1009 and IRadAn=       5 diagonalized for initial guess.
 HarFok:  IExCor= 1009 AccDes= 0.00D+00 IRadAn=         5 IDoV= 1 UseB2=F ITyADJ=14
 ICtDFT=  3500011 ScaDFX=  1.000000  1.000000  1.000000  1.000000
 FoFCou: FMM=F IPFlag=           0 FMFlag=      100000 FMFlg1=           0
         NFxFlg=           0 DoJE=T BraDBF=F KetDBF=T FulRan=T
         wScrn=  0.000000 ICntrl=       500 IOpCl=  0 I1Cent=   200000004 NGrid=           0
         NMat0=    1 NMatS0=      1 NMatT0=    0 NMatD0=    1 NMtDS0=    0 NMtDT0=    0
 Petite list used in FoFCou.
 Requested convergence on RMS density matrix=1.00D-08 within 128 cycles.
 Requested convergence on MAX density matrix=1.00D-06.
 Requested convergence on             energy=1.00D-06.
 No special actions if energy rises.
 SCF Done:  E(RM062X) =  -1535.90128994     A.U. after   16 cycles
            NFock= 16  Conv=0.23D-08     -V/T= 2.0041
 DoSCS=F DFT=T ScalE2(SS,OS)=  1.000000  1.000000
 Range of M.O.s used for correlation:     1   616
 NBasis=   620 NAE=   100 NBE=   100 NFC=     0 NFV=     0
 NROrb=    616 NOA=   100 NOB=   100 NVA=   516 NVB=   516

 **** Warning!!: The largest alpha MO coefficient is  0.11997445D+03

 Symmetrizing basis deriv contribution to polar:
 IMax=3 JMax=2 DiffMx= 0.00D+00
 G2DrvN: will do    43 centers at a time, making    1 passes.
 Calling FoFCou, ICntrl=  3107 FMM=F I1Cent=   0 AccDes= 0.00D+00.
 End of G2Drv F.D. properties file   721 does not exist.
 End of G2Drv F.D. properties file   722 does not exist.
 End of G2Drv F.D. properties file   788 does not exist.
          IDoAtm=111111111111111111111111111111111111111111
          Differentiating once with respect to nuclear coordinates.
 CalDSu exits because no D1Ps are significant.
          There are   129 degrees of freedom in the 1st order CPHF.  IDoFFX=6 NUNeed=     0.
    123 vectors produced by pass  0 Test12= 5.16D-14 1.00D-09 XBig12= 3.62D-01 1.79D-01.
 AX will form    64 AO Fock derivatives at one time.
    123 vectors produced by pass  1 Test12= 5.16D-14 1.00D-09 XBig12= 2.81D-02 5.95D-02.
    123 vectors produced by pass  2 Test12= 5.16D-14 1.00D-09 XBig12= 1.17D-03 4.69D-03.
    123 vectors produced by pass  3 Test12= 5.16D-14 1.00D-09 XBig12= 9.28D-06 4.37D-04.
    123 vectors produced by pass  4 Test12= 5.16D-14 1.00D-09 XBig12= 6.56D-08 2.81D-05.
    123 vectors produced by pass  5 Test12= 5.16D-14 1.00D-09 XBig12= 4.13D-10 1.94D-06.
    110 vectors produced by pass  6 Test12= 5.16D-14 1.00D-09 XBig12= 1.84D-12 9.80D-08.
     38 vectors produced by pass  7 Test12= 5.16D-14 1.00D-09 XBig12= 7.34D-15 7.55D-09.
 InvSVY:  IOpt=1 It=  1 EMax= 1.05D-15
 Solved reduced A of dimension   886 with   129 vectors.
 End of Minotr F.D. properties file   721 does not exist.
 End of Minotr F.D. properties file   722 does not exist.
 End of Minotr F.D. properties file   788 does not exist.

 **********************************************************************

            Population analysis using the SCF Density.

 **********************************************************************

 Orbital symmetries:
       Occupied  (A) (A) (A) (A) (A) (A) (A) (A) (A) (A) (A) (A)
                 (A) (A) (A) (A) (A) (A) (A) (A) (A) (A) (A) (A)
                 (A) (A) (A) (A) (A) (A) (A) (A) (A) (A) (A) (A)
                 (A) (A) (A) (A) (A) (A) (A) (A) (A) (A) (A) (A)
                 (A) (A) (A) (A) (A) (A) (A) (A) (A) (A) (A) (A)
                 (A) (A) (A) (A) (A) (A) (A) (A) (A) (A) (A) (A)
                 (A) (A) (A) (A) (A) (A) (A) (A) (A) (A) (A) (A)
                 (A) (A) (A) (A) (A) (A) (A) (A) (A) (A) (A) (A)
                 (A) (A) (A) (A)
       Virtual   (A) (A) (A) (A) (A) (A) (A) (A) (A) (A) (A) (A)
                 (A) (A) (A) (A) (A) (A) (A) (A) (A) (A) (A) (A)
                 (A) (A) (A) (A) (A) (A) (A) (A) (A) (A) (A) (A)
                 (A) (A) (A) (A) (A) (A) (A) (A) (A) (A) (A) (A)
                 (A) (A) (A) (A) (A) (A) (A) (A) (A) (A) (A) (A)
                 (A) (A) (A) (A) (A) (A) (A) (A) (A) (A) (A) (A)
                 (A) (A) (A) (A) (A) (A) (A) (A) (A) (A) (A) (A)
                 (A) (A) (A) (A) (A) (A) (A) (A) (A) (A) (A) (A)
                 (A) (A) (A) (A) (A) (A) (A) (A) (A) (A) (A) (A)
                 (A) (A) (A) (A) (A) (A) (A) (A) (A) (A) (A) (A)
                 (A) (A) (A) (A) (A) (A) (A) (A) (A) (A) (A) (A)
                 (A) (A) (A) (A) (A) (A) (A) (A) (A) (A) (A) (A)
                 (A) (A) (A) (A) (A) (A) (A) (A) (A) (A) (A) (A)
                 (A) (A) (A) (A) (A) (A) (A) (A) (A) (A) (A) (A)
                 (A) (A) (A) (A) (A) (A) (A) (A) (A) (A) (A) (A)
                 (A) (A) (A) (A) (A) (A) (A) (A) (A) (A) (A) (A)
                 (A) (A) (A) (A) (A) (A) (A) (A) (A) (A) (A) (A)
                 (A) (A) (A) (A) (A) (A) (A) (A) (A) (A) (A) (A)
                 (A) (A) (A) (A) (A) (A) (A) (A) (A) (A) (A) (A)
                 (A) (A) (A) (A) (A) (A) (A) (A) (A) (A) (A) (A)
                 (A) (A) (A) (A) (A) (A) (A) (A) (A) (A) (A) (A)
                 (A) (A) (A) (A) (A) (A) (A) (A) (A) (A) (A) (A)
                 (A) (A) (A) (A) (A) (A) (A) (A) (A) (A) (A) (A)
                 (A) (A) (A) (A) (A) (A) (A) (A) (A) (A) (A) (A)
                 (A) (A) (A) (A) (A) (A) (A) (A) (A) (A) (A) (A)
                 (A) (A) (A) (A) (A) (A) (A) (A) (A) (A) (A) (A)
                 (A) (A) (A) (A) (A) (A) (A) (A) (A) (A) (A) (A)
                 (A) (A) (A) (A) (A) (A) (A) (A) (A) (A) (A) (A)
                 (A) (A) (A) (A) (A) (A) (A) (A) (A) (A) (A) (A)
                 (A) (A) (A) (A) (A) (A) (A) (A) (A) (A) (A) (A)
                 (A) (A) (A) (A) (A) (A) (A) (A) (A) (A) (A) (A)
                 (A) (A) (A) (A) (A) (A) (A) (A) (A) (A) (A) (A)
                 (A) (A) (A) (A) (A) (A) (A) (A) (A) (A) (A) (A)
                 (A) (A) (A) (A) (A) (A) (A) (A) (A) (A) (A) (A)
                 (A) (A) (A) (A) (A) (A) (A) (A) (A) (A) (A) (A)
                 (A) (A) (A) (A) (A) (A) (A) (A) (A) (A) (A) (A)
                 (A) (A) (A) (A) (A) (A) (A) (A) (A) (A) (A) (A)
                 (A) (A) (A) (A) (A) (A) (A) (A) (A) (A) (A) (A)
                 (A) (A) (A) (A) (A) (A) (A) (A) (A) (A) (A) (A)
                 (A) (A) (A) (A) (A) (A) (A) (A) (A) (A) (A) (A)
                 (A) (A) (A) (A) (A) (A) (A) (A) (A) (A) (A) (A)
                 (A) (A) (A) (A) (A) (A) (A) (A) (A) (A) (A) (A)
                 (A) (A) (A) (A) (A) (A) (A) (A) (A) (A) (A) (A)
 The electronic state is 1-A.
 Alpha  occ. eigenvalues --  -25.19843 -25.19840 -25.19762 -25.18478 -25.18441
 Alpha  occ. eigenvalues --  -25.17739 -19.57609 -19.50808 -19.42582 -19.39073
 Alpha  occ. eigenvalues --  -14.70067 -10.73375 -10.72242 -10.61759 -10.52751
 Alpha  occ. eigenvalues --  -10.52102 -10.50817 -10.50320 -10.48141 -10.47889
 Alpha  occ. eigenvalues --  -10.47268 -10.47226 -10.46920 -10.46878 -10.41414
 Alpha  occ. eigenvalues --  -10.41062  -1.36677  -1.34865  -1.28655  -1.28653
 Alpha  occ. eigenvalues --   -1.27399  -1.26438  -1.15447  -1.05588  -0.99913
 Alpha  occ. eigenvalues --   -0.94846  -0.89358  -0.86190  -0.82343  -0.80018
 Alpha  occ. eigenvalues --   -0.79993  -0.73923  -0.73894  -0.72082  -0.70319
 Alpha  occ. eigenvalues --   -0.64750  -0.63441  -0.61250  -0.60292  -0.59962
 Alpha  occ. eigenvalues --   -0.59632  -0.58832  -0.58683  -0.57901  -0.57693
 Alpha  occ. eigenvalues --   -0.55364  -0.51657  -0.50503  -0.49210  -0.49071
 Alpha  occ. eigenvalues --   -0.48849  -0.47577  -0.47560  -0.47217  -0.45606
 Alpha  occ. eigenvalues --   -0.45337  -0.45099  -0.44772  -0.44104  -0.44031
 Alpha  occ. eigenvalues --   -0.43675  -0.43572  -0.42958  -0.41536  -0.41485
 Alpha  occ. eigenvalues --   -0.40586  -0.40399  -0.40267  -0.38441  -0.38058
 Alpha  occ. eigenvalues --   -0.37258  -0.36872  -0.35980  -0.35152  -0.34419
 Alpha  occ. eigenvalues --   -0.33575  -0.33435  -0.31804  -0.31540  -0.31007
 Alpha  occ. eigenvalues --   -0.29621  -0.28429  -0.28164  -0.27163  -0.25634
 Alpha  occ. eigenvalues --   -0.23830  -0.19909  -0.17246  -0.14884  -0.13969
 Alpha virt. eigenvalues --    0.07209   0.07836   0.08967   0.09415   0.10051
 Alpha virt. eigenvalues --    0.10526   0.10632   0.11310   0.11436   0.12512
 Alpha virt. eigenvalues --    0.12814   0.13156   0.13630   0.13713   0.14099
 Alpha virt. eigenvalues --    0.14328   0.14695   0.15115   0.15645   0.15722
 Alpha virt. eigenvalues --    0.15866   0.16587   0.17081   0.17342   0.17591
 Alpha virt. eigenvalues --    0.17854   0.18769   0.19092   0.19140   0.19665
 Alpha virt. eigenvalues --    0.20255   0.20461   0.21045   0.21414   0.21554
 Alpha virt. eigenvalues --    0.22041   0.22370   0.22554   0.22933   0.23237
 Alpha virt. eigenvalues --    0.23387   0.23697   0.24393   0.25140   0.25617
 Alpha virt. eigenvalues --    0.25775   0.25873   0.26139   0.26598   0.26727
 Alpha virt. eigenvalues --    0.26965   0.27525   0.27763   0.27826   0.27922
 Alpha virt. eigenvalues --    0.29049   0.29141   0.29549   0.29764   0.30326
 Alpha virt. eigenvalues --    0.30647   0.31066   0.31139   0.31445   0.31582
 Alpha virt. eigenvalues --    0.32035   0.32280   0.32415   0.33042   0.33426
 Alpha virt. eigenvalues --    0.33572   0.33757   0.34051   0.34273   0.34773
 Alpha virt. eigenvalues --    0.35269   0.35513   0.35954   0.36213   0.36854
 Alpha virt. eigenvalues --    0.37108   0.37251   0.37646   0.37676   0.37852
 Alpha virt. eigenvalues --    0.38206   0.38983   0.39388   0.39475   0.39843
 Alpha virt. eigenvalues --    0.39998   0.40447   0.40806   0.41353   0.41522
 Alpha virt. eigenvalues --    0.42163   0.42630   0.42746   0.43313   0.43601
 Alpha virt. eigenvalues --    0.43660   0.44183   0.44624   0.45047   0.45801
 Alpha virt. eigenvalues --    0.45934   0.46460   0.46697   0.47007   0.47131
 Alpha virt. eigenvalues --    0.47562   0.47983   0.48667   0.48894   0.49146
 Alpha virt. eigenvalues --    0.49837   0.49983   0.50422   0.50600   0.51066
 Alpha virt. eigenvalues --    0.51277   0.51796   0.52003   0.52343   0.52933
 Alpha virt. eigenvalues --    0.53750   0.54374   0.54528   0.55072   0.55240
 Alpha virt. eigenvalues --    0.55465   0.56055   0.56344   0.57739   0.58071
 Alpha virt. eigenvalues --    0.58278   0.58469   0.59073   0.59817   0.60660
 Alpha virt. eigenvalues --    0.61019   0.61970   0.63090   0.63616   0.64562
 Alpha virt. eigenvalues --    0.65613   0.66099   0.66358   0.66531   0.67228
 Alpha virt. eigenvalues --    0.67848   0.68165   0.68675   0.69014   0.70026
 Alpha virt. eigenvalues --    0.70615   0.70947   0.72559   0.73057   0.74064
 Alpha virt. eigenvalues --    0.74273   0.74921   0.75015   0.75182   0.76315
 Alpha virt. eigenvalues --    0.76680   0.76889   0.77191   0.77645   0.77969
 Alpha virt. eigenvalues --    0.78507   0.78956   0.79741   0.80633   0.80794
 Alpha virt. eigenvalues --    0.81408   0.82423   0.82722   0.83204   0.83492
 Alpha virt. eigenvalues --    0.83852   0.84097   0.84976   0.85002   0.85569
 Alpha virt. eigenvalues --    0.85786   0.86395   0.86811   0.87287   0.87608
 Alpha virt. eigenvalues --    0.88130   0.88472   0.89568   0.90368   0.91444
 Alpha virt. eigenvalues --    0.91652   0.94219   0.96356   0.98723   0.99594
 Alpha virt. eigenvalues --    1.00989   1.02782   1.03605   1.04546   1.05093
 Alpha virt. eigenvalues --    1.05729   1.06289   1.08091   1.09080   1.10508
 Alpha virt. eigenvalues --    1.12341   1.12851   1.13952   1.14775   1.16118
 Alpha virt. eigenvalues --    1.17202   1.17567   1.17901   1.19967   1.20135
 Alpha virt. eigenvalues --    1.20721   1.21600   1.22225   1.23157   1.24176
 Alpha virt. eigenvalues --    1.25121   1.25792   1.27434   1.27611   1.29740
 Alpha virt. eigenvalues --    1.30118   1.32334   1.33174   1.33915   1.34447
 Alpha virt. eigenvalues --    1.35258   1.36347   1.40015   1.41445   1.42044
 Alpha virt. eigenvalues --    1.42758   1.43367   1.46547   1.47084   1.48633
 Alpha virt. eigenvalues --    1.48851   1.49683   1.50768   1.52199   1.52397
 Alpha virt. eigenvalues --    1.53606   1.53909   1.54823   1.55534   1.56243
 Alpha virt. eigenvalues --    1.56643   1.57016   1.57896   1.58080   1.58553
 Alpha virt. eigenvalues --    1.58764   1.60835   1.61696   1.62872   1.63408
 Alpha virt. eigenvalues --    1.64207   1.65350   1.65652   1.65832   1.66647
 Alpha virt. eigenvalues --    1.67069   1.67949   1.68194   1.68410   1.68767
 Alpha virt. eigenvalues --    1.69432   1.70852   1.71641   1.71790   1.72261
 Alpha virt. eigenvalues --    1.72414   1.73371   1.73704   1.74030   1.75581
 Alpha virt. eigenvalues --    1.75963   1.79904   1.80416   1.80454   1.82116
 Alpha virt. eigenvalues --    1.83886   1.84138   1.85387   1.85962   1.86797
 Alpha virt. eigenvalues --    1.87140   1.87847   1.88739   1.90553   1.91203
 Alpha virt. eigenvalues --    1.91363   1.91497   1.92719   1.93162   1.95109
 Alpha virt. eigenvalues --    1.95741   1.96049   1.97489   1.97809   1.98874
 Alpha virt. eigenvalues --    2.00130   2.00789   2.01035   2.05290   2.06294
 Alpha virt. eigenvalues --    2.06531   2.07560   2.09574   2.11274   2.12854
 Alpha virt. eigenvalues --    2.14396   2.15645   2.16626   2.18604   2.20332
 Alpha virt. eigenvalues --    2.21121   2.23612   2.27370   2.28262   2.28881
 Alpha virt. eigenvalues --    2.29801   2.30971   2.34151   2.36939   2.38480
 Alpha virt. eigenvalues --    2.46147   2.46452   2.49712   2.50125   2.51293
 Alpha virt. eigenvalues --    2.55217   2.56620   2.58969   2.60274   2.61077
 Alpha virt. eigenvalues --    2.61987   2.63778   2.65334   2.66705   2.68246
 Alpha virt. eigenvalues --    2.69269   2.69680   2.71159   2.71972   2.73618
 Alpha virt. eigenvalues --    2.77167   2.78821   2.80199   2.84609   2.85999
 Alpha virt. eigenvalues --    2.89361   2.90494   2.90829   2.93787   2.95079
 Alpha virt. eigenvalues --    2.98892   3.00895   3.04923   3.05329   3.06421
 Alpha virt. eigenvalues --    3.07914   3.08582   3.09553   3.10325   3.10507
 Alpha virt. eigenvalues --    3.11947   3.12792   3.13312   3.14575   3.15070
 Alpha virt. eigenvalues --    3.16520   3.17654   3.18682   3.19165   3.20272
 Alpha virt. eigenvalues --    3.21468   3.23526   3.24024   3.26925   3.27793
 Alpha virt. eigenvalues --    3.28992   3.32637   3.34231   3.35037   3.36726
 Alpha virt. eigenvalues --    3.36829   3.38501   3.39076   3.40362   3.42233
 Alpha virt. eigenvalues --    3.46183   3.50203   3.50963   3.51586   3.52542
 Alpha virt. eigenvalues --    3.53078   3.55148   3.59871   3.61077   3.62196
 Alpha virt. eigenvalues --    3.75747   3.77348   3.78548   3.82170   3.86452
 Alpha virt. eigenvalues --    3.88331   3.89265   3.90941   3.91214   3.92904
 Alpha virt. eigenvalues --    3.93356   3.94114   3.94862   3.95421   3.95586
 Alpha virt. eigenvalues --    3.97160   3.97292   3.97406   3.99364   3.99608
 Alpha virt. eigenvalues --    4.00252   4.03630   4.06610   4.07939   4.08788
 Alpha virt. eigenvalues --    4.09187   4.09834   4.10849   4.12698   4.17778
 Alpha virt. eigenvalues --    4.19030   4.25214   4.25429   4.26207   4.28241
 Alpha virt. eigenvalues --    4.30052   4.31314   4.32758   4.33263   4.35732
 Alpha virt. eigenvalues --    4.37903   4.60470   4.76910   4.84145   4.89761
 Alpha virt. eigenvalues --    5.01648   5.03581   5.05235   5.07834   5.16328
 Alpha virt. eigenvalues --    5.20348   5.26811   5.33409   5.37913   5.49097
 Alpha virt. eigenvalues --    5.52527   5.56018   5.56816   5.83885   5.91172
 Alpha virt. eigenvalues --    6.10198   6.14083   6.49740   6.53659   6.57259
 Alpha virt. eigenvalues --    6.58809   6.60350   6.60942   6.62050   6.63487
 Alpha virt. eigenvalues --    6.64705   6.67255   6.68811   6.70410   6.71525
 Alpha virt. eigenvalues --    6.74854   6.89459   6.92375   6.95969   6.96774
 Alpha virt. eigenvalues --   23.52177  23.65092  23.67209  23.71174  23.73221
 Alpha virt. eigenvalues --   23.80903  23.87770  23.92726  23.98397  24.00639
 Alpha virt. eigenvalues --   24.03122  24.08129  24.13001  24.16005  24.26278
 Alpha virt. eigenvalues --   35.75953  50.12130  50.21147  50.24227  50.30375
 Alpha virt. eigenvalues --   66.95439  66.98974  66.99419  67.02495  67.04580
 Alpha virt. eigenvalues --   67.08079
          Condensed to atoms (all electrons):
               1          2          3          4          5          6
     1  C   26.163562  -0.265769  -0.414963  -0.073756  -0.317157  -0.573058
     2  N   -0.265769   7.748364   0.243019  -0.002688  -0.225543  -0.424014
     3  C   -0.414963   0.243019   9.514168   0.470382   0.305036  -0.736527
     4  O   -0.073756  -0.002688   0.470382   8.160468  -0.208991  -0.236206
     5  O   -0.317157  -0.225543   0.305036  -0.208991   8.404462   0.392022
     6  C   -0.573058  -0.424014  -0.736527  -0.236206   0.392022   8.594804
     7  C    0.003529   0.054542   0.280726   0.041982  -0.176194  -1.079825
     8  C   -0.016027  -0.010625  -0.269416  -0.000223   0.027345   0.370121
     9  C    0.335981   0.029653   0.530177   0.012339  -0.004660   0.049405
    10  C   -5.436842   0.051070  -0.727026  -0.009218   0.002166  -0.055762
    11  C   -2.875192   0.025516  -0.820045  -0.010232  -0.009587  -0.059710
    12  C   -5.331265   0.168830  -0.769081   0.010486  -0.005803  -0.136297
    13  C   -2.467882   0.104785  -1.577149   0.197696  -0.051647  -0.548482
    14  H   -0.042174   0.081921   0.047908   0.000141   0.018343  -0.001362
    15  H    0.012003   0.001631   0.033742  -0.000581  -0.047409   0.374318
    16  H    0.002083   0.005601   0.040697  -0.000490  -0.052388   0.362157
    17  H   -0.000078  -0.001278   0.000111  -0.000349   0.000753  -0.050267
    18  H   -0.000688  -0.000752   0.005536  -0.000359   0.000434  -0.059427
    19  H   -0.000149  -0.000021  -0.000889  -0.000066  -0.000378  -0.045533
    20  H    0.000141   0.000034   0.008169   0.000026  -0.000912   0.090501
    21  H   -0.000106  -0.000066  -0.002851  -0.000076  -0.000372  -0.042510
    22  H    0.012072  -0.014977  -0.006564   0.000140  -0.000353  -0.000564
    23  H    0.099571  -0.026377   0.140297  -0.011489   0.004154   0.017009
    24  C   -1.435665   0.014398  -0.064685  -0.002196   0.000576  -0.002085
    25  C   -1.407675  -0.034665  -0.084387  -0.004608   0.000980  -0.001121
    26  H   -0.027794  -0.002134   0.005141   0.000121   0.000050   0.000200
    27  F    0.024286   0.000004   0.000155  -0.000002   0.000000  -0.000001
    28  F    0.005686   0.000000  -0.000632  -0.000002  -0.000000  -0.000003
    29  F    0.029973  -0.000020   0.000414   0.000010   0.000000   0.000005
    30  F    0.044456   0.002589   0.000499  -0.000003   0.000008   0.000026
    31  F   -0.006403   0.000314  -0.001173  -0.000001   0.000000  -0.000006
    32  F   -0.001131   0.000232  -0.001175   0.000001   0.000000  -0.000007
    33  O   -0.029752  -0.011240   0.024384  -0.000048   0.000099  -0.000127
    34  O    0.097240  -0.005200  -0.047592   0.000396   0.008365  -0.015404
    35  C   -0.081847  -0.002934   0.041156   0.000096  -0.001731   0.010305
    36  C    0.079063  -0.033537   0.031253   0.000459   0.000653   0.001414
    37  C    0.014381   0.004335  -0.009938  -0.000145  -0.000653   0.000675
    38  H    0.000298   0.000012  -0.000053  -0.000000   0.000005  -0.000021
    39  H   -0.000855   0.000071   0.000168  -0.000000   0.000005  -0.000002
    40  H   -0.000561   0.000288  -0.000010   0.000001  -0.000006   0.000134
    41  H    0.000082  -0.000069   0.000045  -0.000000  -0.000000  -0.000027
    42  H    0.000021   0.000281  -0.000176   0.000001  -0.000008   0.000081
               7          8          9         10         11         12
     1  C    0.003529  -0.016027   0.335981  -5.436842  -2.875192  -5.331265
     2  N    0.054542  -0.010625   0.029653   0.051070   0.025516   0.168830
     3  C    0.280726  -0.269416   0.530177  -0.727026  -0.820045  -0.769081
     4  O    0.041982  -0.000223   0.012339  -0.009218  -0.010232   0.010486
     5  O   -0.176194   0.027345  -0.004660   0.002166  -0.009587  -0.005803
     6  C   -1.079825   0.370121   0.049405  -0.055762  -0.059710  -0.136297
     7  C    6.593762  -0.323201   0.018539  -0.001617   0.004009   0.003168
     8  C   -0.323201   6.308987  -0.000623  -0.000348  -0.000692  -0.002048
     9  C    0.018539  -0.000623  10.046764  -2.268335   1.743142   0.060233
    10  C   -0.001617  -0.000348  -2.268335  22.719470   2.247425  -0.929890
    11  C    0.004009  -0.000692   1.743142   2.247425  17.303182  -2.667869
    12  C    0.003168  -0.002048   0.060233  -0.929890  -2.667869  14.361550
    13  C    0.016795  -0.016201  -2.387194  -1.191431  -6.677920   3.891016
    14  H    0.000396  -0.000615  -0.041596   0.002335  -0.010052   0.004894
    15  H   -0.023963  -0.020138  -0.000987  -0.000070  -0.000109  -0.000653
    16  H   -0.018734  -0.022496   0.000308   0.000062   0.000154   0.000769
    17  H    0.452056  -0.070594  -0.000059   0.000004  -0.000001   0.000013
    18  H    0.458583  -0.073751   0.000140   0.000011   0.000010   0.000054
    19  H    0.023941   0.362349   0.000014  -0.000000   0.000001   0.000006
    20  H   -0.155085   0.406209  -0.000007   0.000001   0.000000   0.000001
    21  H    0.019463   0.365965   0.000008  -0.000001   0.000000  -0.000000
    22  H   -0.000026  -0.000002   0.270902  -0.063325   0.006887   0.005041
    23  H   -0.001472   0.000185  -0.008802  -0.015026  -0.061094  -0.152054
    24  C    0.000047  -0.000009  -1.598240   3.495298  -1.268392  -3.844870
    25  C   -0.000405   0.000014  -0.251786 -10.687491  -0.026958   0.772465
    26  H   -0.000000   0.000000  -0.016900   0.033039   0.022232   0.351211
    27  F   -0.000000  -0.000000   0.050268  -0.265283  -0.074148   0.162697
    28  F   -0.000000   0.000000   0.022326  -0.033346   0.080647  -0.039315
    29  F   -0.000000   0.000000   0.021087  -0.039166   0.041852  -0.042054
    30  F    0.000001   0.000000   0.150679  -0.432460   0.065404   0.013658
    31  F   -0.000000   0.000000  -0.030297   0.118956  -0.014921   0.018578
    32  F   -0.000000   0.000000  -0.046943   0.157644  -0.013317   0.021999
    33  O    0.000398  -0.000006   0.075670  -0.030519   0.008520  -0.003812
    34  O    0.004462   0.000639  -0.103448   0.004216  -0.003118   0.004022
    35  C   -0.001465  -0.000394   0.072802   0.011931  -0.022451   0.000115
    36  C    0.001309   0.001213  -0.079198  -0.040257  -0.015297  -0.000718
    37  C   -0.000949  -0.001135  -0.011660  -0.000691  -0.000458   0.000394
    38  H    0.000015  -0.000000  -0.000622   0.000006  -0.000015   0.000003
    39  H    0.000018   0.000000   0.001139   0.000197   0.000028  -0.000005
    40  H    0.000191   0.000101   0.000244  -0.000018  -0.000001  -0.000004
    41  H   -0.000022  -0.000008   0.000045   0.000008   0.000001   0.000001
    42  H    0.000125   0.000095  -0.000321  -0.000021  -0.000010  -0.000001
              13         14         15         16         17         18
     1  C   -2.467882  -0.042174   0.012003   0.002083  -0.000078  -0.000688
     2  N    0.104785   0.081921   0.001631   0.005601  -0.001278  -0.000752
     3  C   -1.577149   0.047908   0.033742   0.040697   0.000111   0.005536
     4  O    0.197696   0.000141  -0.000581  -0.000490  -0.000349  -0.000359
     5  O   -0.051647   0.018343  -0.047409  -0.052388   0.000753   0.000434
     6  C   -0.548482  -0.001362   0.374318   0.362157  -0.050267  -0.059427
     7  C    0.016795   0.000396  -0.023963  -0.018734   0.452056   0.458583
     8  C   -0.016201  -0.000615  -0.020138  -0.022496  -0.070594  -0.073751
     9  C   -2.387194  -0.041596  -0.000987   0.000308  -0.000059   0.000140
    10  C   -1.191431   0.002335  -0.000070   0.000062   0.000004   0.000011
    11  C   -6.677920  -0.010052  -0.000109   0.000154  -0.000001   0.000010
    12  C    3.891016   0.004894  -0.000653   0.000769   0.000013   0.000054
    13  C   16.155065   0.030501  -0.005764   0.002010   0.000027   0.000598
    14  H    0.030501   0.270031   0.000034   0.000044  -0.000032  -0.000026
    15  H   -0.005764   0.000034   0.489090  -0.047098   0.005615  -0.008684
    16  H    0.002010   0.000044  -0.047098   0.491896  -0.008996   0.005661
    17  H    0.000027  -0.000032   0.005615  -0.008996   0.443766  -0.028586
    18  H    0.000598  -0.000026  -0.008684   0.005661  -0.028586   0.442835
    19  H    0.000072  -0.000000  -0.000942   0.004777  -0.008203   0.006628
    20  H    0.000045  -0.000000  -0.000222  -0.000218  -0.003955  -0.003955
    21  H   -0.000014  -0.000000   0.004673  -0.001050   0.006658  -0.008141
    22  H    0.019309   0.005466   0.000000  -0.000000  -0.000000  -0.000000
    23  H    0.329504  -0.000348  -0.000099  -0.000076  -0.000001  -0.000000
    24  C   -1.397110  -0.000297  -0.000001   0.000005   0.000000   0.000000
    25  C    1.321407   0.004210  -0.000007   0.000003   0.000000   0.000000
    26  H   -0.156553  -0.000002  -0.000000  -0.000000   0.000000   0.000000
    27  F    0.029366   0.000000  -0.000000  -0.000000   0.000000   0.000000
    28  F    0.001135   0.000000   0.000000   0.000000   0.000000  -0.000000
    29  F    0.027644   0.000000   0.000000   0.000000  -0.000000   0.000000
    30  F   -0.003138   0.000045  -0.000000   0.000000   0.000000   0.000000
    31  F    0.005272  -0.000008  -0.000000   0.000000  -0.000000   0.000000
    32  F    0.006031  -0.000004  -0.000000   0.000000   0.000000  -0.000000
    33  O   -0.029416   0.024339   0.000000  -0.000000   0.000000  -0.000001
    34  O    0.034800   0.057163   0.000001  -0.000007  -0.000009  -0.000031
    35  C   -0.025646  -0.005275   0.000072  -0.000020   0.000150   0.000135
    36  C   -0.029766   0.029566   0.000019  -0.000031  -0.000362  -0.000498
    37  C    0.003441  -0.003429   0.000013   0.000019   0.000325   0.000389
    38  H    0.000011  -0.000000   0.000000   0.000000   0.000000  -0.000000
    39  H   -0.000040  -0.000017   0.000000   0.000000  -0.000000  -0.000000
    40  H   -0.000078  -0.000209   0.000000  -0.000000  -0.000016  -0.000009
    41  H    0.000015   0.000031  -0.000000  -0.000000   0.000000   0.000000
    42  H   -0.000050  -0.000200  -0.000000  -0.000000  -0.000006  -0.000016
              19         20         21         22         23         24
     1  C   -0.000149   0.000141  -0.000106   0.012072   0.099571  -1.435665
     2  N   -0.000021   0.000034  -0.000066  -0.014977  -0.026377   0.014398
     3  C   -0.000889   0.008169  -0.002851  -0.006564   0.140297  -0.064685
     4  O   -0.000066   0.000026  -0.000076   0.000140  -0.011489  -0.002196
     5  O   -0.000378  -0.000912  -0.000372  -0.000353   0.004154   0.000576
     6  C   -0.045533   0.090501  -0.042510  -0.000564   0.017009  -0.002085
     7  C    0.023941  -0.155085   0.019463  -0.000026  -0.001472   0.000047
     8  C    0.362349   0.406209   0.365965  -0.000002   0.000185  -0.000009
     9  C    0.000014  -0.000007   0.000008   0.270902  -0.008802  -1.598240
    10  C   -0.000000   0.000001  -0.000001  -0.063325  -0.015026   3.495298
    11  C    0.000001   0.000000   0.000000   0.006887  -0.061094  -1.268392
    12  C    0.000006   0.000001  -0.000000   0.005041  -0.152054  -3.844870
    13  C    0.000072   0.000045  -0.000014   0.019309   0.329504  -1.397110
    14  H   -0.000000  -0.000000  -0.000000   0.005466  -0.000348  -0.000297
    15  H   -0.000942  -0.000222   0.004673   0.000000  -0.000099  -0.000001
    16  H    0.004777  -0.000218  -0.001050  -0.000000  -0.000076   0.000005
    17  H   -0.008203  -0.003955   0.006658  -0.000000  -0.000001   0.000000
    18  H    0.006628  -0.003955  -0.008141  -0.000000  -0.000000   0.000000
    19  H    0.477904  -0.026068  -0.038167  -0.000000  -0.000000   0.000000
    20  H   -0.026068   0.451255  -0.025951   0.000000   0.000000   0.000000
    21  H   -0.038167  -0.025951   0.477725  -0.000000  -0.000000  -0.000000
    22  H   -0.000000   0.000000  -0.000000   0.265483  -0.000015  -0.003816
    23  H   -0.000000   0.000000  -0.000000  -0.000015   0.381795  -0.005764
    24  C    0.000000   0.000000  -0.000000  -0.003816  -0.005764  13.445759
    25  C   -0.000000   0.000000  -0.000000   0.013475   0.003060  -2.339126
    26  H    0.000000  -0.000000   0.000000   0.000025  -0.003443   0.101165
    27  F   -0.000000   0.000000  -0.000000   0.000060   0.000015   0.043018
    28  F    0.000000  -0.000000  -0.000000   0.000010   0.000022   0.094271
    29  F   -0.000000  -0.000000   0.000000   0.000008  -0.000013   0.099230
    30  F    0.000000  -0.000000   0.000000   0.006325  -0.000004   0.004603
    31  F   -0.000000  -0.000000  -0.000000  -0.000134   0.000000   0.022012
    32  F   -0.000000   0.000000  -0.000000  -0.000020  -0.000003   0.017178
    33  O    0.000000   0.000000   0.000000   0.015395  -0.000011   0.001000
    34  O    0.000001   0.000001   0.000001   0.004849   0.000003  -0.000072
    35  C   -0.000001  -0.000003   0.000000  -0.000782   0.000154  -0.005529
    36  C   -0.000005   0.000007  -0.000004   0.006443   0.000017  -0.002508
    37  C    0.000006  -0.000016   0.000005   0.000465   0.000003  -0.000020
    38  H    0.000000  -0.000000   0.000000  -0.000010   0.000000  -0.000001
    39  H    0.000000  -0.000000   0.000000  -0.000066   0.000000   0.000002
    40  H   -0.000000   0.000000  -0.000000  -0.000003   0.000000  -0.000000
    41  H    0.000000  -0.000000   0.000000  -0.000001  -0.000000   0.000000
    42  H   -0.000000   0.000000  -0.000000   0.000001   0.000000  -0.000000
              25         26         27         28         29         30
     1  C   -1.407675  -0.027794   0.024286   0.005686   0.029973   0.044456
     2  N   -0.034665  -0.002134   0.000004   0.000000  -0.000020   0.002589
     3  C   -0.084387   0.005141   0.000155  -0.000632   0.000414   0.000499
     4  O   -0.004608   0.000121  -0.000002  -0.000002   0.000010  -0.000003
     5  O    0.000980   0.000050   0.000000  -0.000000   0.000000   0.000008
     6  C   -0.001121   0.000200  -0.000001  -0.000003   0.000005   0.000026
     7  C   -0.000405  -0.000000  -0.000000  -0.000000  -0.000000   0.000001
     8  C    0.000014   0.000000  -0.000000   0.000000   0.000000   0.000000
     9  C   -0.251786  -0.016900   0.050268   0.022326   0.021087   0.150679
    10  C  -10.687491   0.033039  -0.265283  -0.033346  -0.039166  -0.432460
    11  C   -0.026958   0.022232  -0.074148   0.080647   0.041852   0.065404
    12  C    0.772465   0.351211   0.162697  -0.039315  -0.042054   0.013658
    13  C    1.321407  -0.156553   0.029366   0.001135   0.027644  -0.003138
    14  H    0.004210  -0.000002   0.000000   0.000000   0.000000   0.000045
    15  H   -0.000007  -0.000000  -0.000000   0.000000   0.000000  -0.000000
    16  H    0.000003  -0.000000  -0.000000   0.000000   0.000000   0.000000
    17  H    0.000000   0.000000   0.000000   0.000000  -0.000000   0.000000
    18  H    0.000000   0.000000   0.000000  -0.000000   0.000000   0.000000
    19  H   -0.000000   0.000000  -0.000000   0.000000  -0.000000   0.000000
    20  H    0.000000  -0.000000   0.000000  -0.000000  -0.000000  -0.000000
    21  H   -0.000000   0.000000  -0.000000  -0.000000   0.000000   0.000000
    22  H    0.013475   0.000025   0.000060   0.000010   0.000008   0.006325
    23  H    0.003060  -0.003443   0.000015   0.000022  -0.000013  -0.000004
    24  C   -2.339126   0.101165   0.043018   0.094271   0.099230   0.004603
    25  C   17.327026   0.006323   0.170877   0.032484   0.021600   0.329512
    26  H    0.006323   0.421239   0.000685  -0.001556  -0.001315   0.000022
    27  F    0.170877   0.000685   9.024781  -0.020368  -0.021229   0.000606
    28  F    0.032484  -0.001556  -0.020368   8.981440  -0.048531   0.000069
    29  F    0.021600  -0.001315  -0.021229  -0.048531   8.984746   0.000072
    30  F    0.329512   0.000022   0.000606   0.000069   0.000072   8.982962
    31  F    0.051832   0.000007  -0.007556  -0.001988   0.000303  -0.028208
    32  F    0.024513   0.000008  -0.007568   0.000317  -0.002032  -0.023923
    33  O   -0.001761   0.000000  -0.000002  -0.000000  -0.000000   0.004172
    34  O    0.009769  -0.000001   0.000000   0.000000   0.000000  -0.000021
    35  C   -0.008649  -0.000016   0.000012  -0.000002  -0.000003   0.000352
    36  C   -0.003636  -0.000001   0.000001  -0.000000  -0.000000   0.000274
    37  C    0.001473  -0.000000   0.000000  -0.000000  -0.000000  -0.000010
    38  H   -0.000004  -0.000000  -0.000000  -0.000000  -0.000000  -0.000001
    39  H   -0.000151   0.000000  -0.000000   0.000000   0.000000  -0.000005
    40  H   -0.000010  -0.000000  -0.000000  -0.000000   0.000000  -0.000000
    41  H    0.000003   0.000000  -0.000000   0.000000   0.000000  -0.000000
    42  H   -0.000002  -0.000000  -0.000000  -0.000000  -0.000000  -0.000000
              31         32         33         34         35         36
     1  C   -0.006403  -0.001131  -0.029752   0.097240  -0.081847   0.079063
     2  N    0.000314   0.000232  -0.011240  -0.005200  -0.002934  -0.033537
     3  C   -0.001173  -0.001175   0.024384  -0.047592   0.041156   0.031253
     4  O   -0.000001   0.000001  -0.000048   0.000396   0.000096   0.000459
     5  O    0.000000   0.000000   0.000099   0.008365  -0.001731   0.000653
     6  C   -0.000006  -0.000007  -0.000127  -0.015404   0.010305   0.001414
     7  C   -0.000000  -0.000000   0.000398   0.004462  -0.001465   0.001309
     8  C    0.000000   0.000000  -0.000006   0.000639  -0.000394   0.001213
     9  C   -0.030297  -0.046943   0.075670  -0.103448   0.072802  -0.079198
    10  C    0.118956   0.157644  -0.030519   0.004216   0.011931  -0.040257
    11  C   -0.014921  -0.013317   0.008520  -0.003118  -0.022451  -0.015297
    12  C    0.018578   0.021999  -0.003812   0.004022   0.000115  -0.000718
    13  C    0.005272   0.006031  -0.029416   0.034800  -0.025646  -0.029766
    14  H   -0.000008  -0.000004   0.024339   0.057163  -0.005275   0.029566
    15  H   -0.000000  -0.000000   0.000000   0.000001   0.000072   0.000019
    16  H    0.000000   0.000000  -0.000000  -0.000007  -0.000020  -0.000031
    17  H   -0.000000   0.000000   0.000000  -0.000009   0.000150  -0.000362
    18  H    0.000000  -0.000000  -0.000001  -0.000031   0.000135  -0.000498
    19  H   -0.000000  -0.000000   0.000000   0.000001  -0.000001  -0.000005
    20  H   -0.000000   0.000000   0.000000   0.000001  -0.000003   0.000007
    21  H   -0.000000  -0.000000   0.000000   0.000001   0.000000  -0.000004
    22  H   -0.000134  -0.000020   0.015395   0.004849  -0.000782   0.006443
    23  H    0.000000  -0.000003  -0.000011   0.000003   0.000154   0.000017
    24  C    0.022012   0.017178   0.001000  -0.000072  -0.005529  -0.002508
[...]
 000195,0.00000204,0.00000023,0.00001249,0.00000179,0.00001458,-0.00000
 481,-0.00000771,0.00000536,-0.00000436,0.00000340,-0.00000407,0.000000
 33,0.00000144,-0.00000031,-0.00001174,-0.00003967,-0.00003246,-0.00000
 349,0.00000457,-0.00000312,-0.00007697,0.00003256,-0.00001640,-0.00008
 229,-0.00000131,-0.00008242,0.00000113,-0.00000209,-0.00000220,0.00003
 248,0.00000024,0.00001475,0.00001441,-0.00002045,0.00000342,0.00002040
 ,-0.00000834,-0.00000354,0.00002016,-0.00000921,0.00002512,0.00003957,
 0.00000755,0.00005242,0.00001954,0.00000127,0.00001016,0.00076878,0.00
 089115,0.00165480,0.00118306,-0.00021851,0.00070523,-0.00283589,0.0027
 6852,0.00128409,0.00696765,-0.10074848,-0.26657435,0.00068937,-0.00583
 757,-0.01390206,-0.00463813,0.10775395,0.29052383,-0.00018343,0.000065
 41,0.00001118,0.00015740,-0.00022491,-0.00000297,-0.00018181,0.0001041
 9,0.00001345,0.00003211,-0.00007412,-0.00000153,0.00011284,-0.00010853
 ,-0.00000915,-0.00002715,0.00002415,0.00000404,0.00000580,0.00002358,-
 0.00000856,0.00001177,-0.00001275,0.00000186,0.00005412,0.00002745,0.0
 0000201,-0.00000494,0.00002044,-0.00000043,0.00003990,-0.00001633,-0.0
 0000489,-0.00002230,0.00000652,0.00000197,0.00003791,-0.00004161,-0.00
 000433,-0.00003778,0.00031764,-0.00002067,0.00000320,-0.00000761,-0.00
 000622,0.00000522,-0.00000855,0.00000602,0.00000488,0.00000812,-0.0000
 3078,0.00001462,0.00001450,0.00003204,-0.00000805,-0.00000749,0.000008
 73,0.00000798,0.00000402,-0.00000146,-0.00000814,-0.00000689,-0.000006
 74,-0.00000880,-0.00007689,-0.00002501,-0.00000735,0.00000733,0.000002
 98,-0.00006091,-0.00000079,0.00001939,-0.00003531,-0.00011051,0.000024
 98,0.00000139,-0.00000127,-0.00000005,0.00002191,0.00000568,0.00000334
 ,0.00000943,0.00000163,-0.00000401,0.00002097,0.00000032,-0.00001956,-
 0.00000026,0.00005523,-0.00000670,0.00001146,0.00002031,-0.00000464,0.
 00001748,0.00002071,-0.00001104,0.00047105,0.00069906,0.00010279,0.000
 73073,-0.00067699,0.00070882,0.00140074,0.00111810,-0.00347553,-0.2189
 2640,-0.07704025,0.09732323,-0.02231739,-0.00937579,0.01225851,-0.0012
 2546,0.00001559,0.00108412,0.24163225,-0.00028233,0.00009096,0.0000302
 2,-0.00003929,-0.00070013,0.00024003,0.00023982,0.00010237,-0.00001372
 ,-0.00009509,-0.00014300,-0.00000338,-0.00008957,-0.00000708,0.0000086
 8,0.00008021,0.00001279,-0.00000505,-0.00000536,-0.00000371,0.00000334
 ,0.00000007,0.00000498,-0.00000070,0.00011723,-0.00000504,-0.00002998,
 -0.00004477,0.00002766,-0.00001179,0.00008344,-0.00005102,-0.00000821,
 -0.00001858,0.00000295,0.00000036,0.00004039,-0.00005483,-0.00002854,0
 .00026416,0.00105582,-0.00053247,-0.00000967,-0.00000447,-0.00000204,-
 0.00000974,-0.00000380,0.00000347,0.00000492,-0.00000364,-0.00000019,0
 .00000348,-0.00000385,-0.00000202,0.00000026,-0.00000108,0.,-0.0000071
 5,0.00000189,0.00000096,-0.00000068,-0.00000200,-0.00000046,-0.0000892
 7,0.00007033,0.00008389,-0.00000567,0.00000257,0.00000273,-0.00011576,
 0.00000043,0.00003636,-0.00005479,-0.00036921,0.00010527,0.00000474,-0
 .00000262,0.00000152,0.00003869,0.00000889,0.00000596,0.00002000,-0.00
 000622,-0.00000614,0.00003869,0.00000063,-0.00003607,0.00000565,0.0002
 2513,-0.00006314,0.00001024,0.00006328,-0.00004053,0.00002644,0.000062
 95,-0.00001361,0.00406183,0.00065826,-0.00307150,0.00262474,-0.0054915
 3,-0.00352317,-0.03085321,-0.00995369,0.01859615,-0.08062721,-0.079897
 81,0.04766699,0.00847150,0.00290149,-0.00458499,0.01232152,0.00512398,
 -0.00653922,0.08324017,0.08574535,0.00009881,-0.00001569,0.00000110,-0
 .00000750,0.00020091,0.00000802,-0.00012203,-0.00007593,0.00001345,0.0
 0004312,0.00007170,-0.00000778,0.00006832,0.00000820,0.00000690,-0.000
 05720,-0.00000527,0.00000256,0.00000015,-0.00000202,-0.00001604,0.0000
 0062,-0.00000299,0.00000514,-0.00005186,-0.00000397,0.00000235,0.00003
 175,-0.00002122,0.00000311,-0.00004117,0.00003862,-0.00000019,-0.00000
 248,0.00000242,-0.00000014,-0.00001048,0.00001554,-0.00000112,-0.00000
 441,-0.00032679,-0.00001808,0.00000654,0.00000409,0.00000312,0.0000064
 7,-0.00000204,-0.00000240,-0.00000579,0.00000530,-0.00000083,0.0000026
 5,0.00000815,0.00000950,-0.00000204,-0.00000129,0.00000012,0.00000579,
 -0.00000193,-0.00000222,0.00000106,0.00000249,0.00000129,0.00005307,-0
 .00009566,-0.00004166,0.00000177,0.00000048,-0.00000032,0.00009958,-0.
 00001830,-0.00000540,0.00010916,0.00013493,0.00001927,-0.00000160,0.00
 000192,0.00000072,-0.00003756,-0.00000400,-0.00001163,-0.00001909,0.00
 001610,0.00000133,-0.00002995,0.00000478,0.00001764,-0.00003496,-0.000
 06918,0.00000550,-0.00004172,-0.00003077,-0.00002526,-0.00003449,-0.00
 002508,0.00000155,-0.00207729,0.00104635,0.00022696,0.00008453,0.00014
 836,-0.00047758,0.00263289,-0.00140477,-0.00156365,0.09774869,0.044359
 72,-0.10040355,-0.01654752,-0.00729343,0.00889893,0.02476001,0.0120631
 4,-0.01441456,-0.10441722,-0.04879216,0.10744341,-0.00016815,0.0000801
 4,0.00001297,0.00020534,-0.00000897,-0.00003611,-0.00033629,0.00013697
 ,0.00003614,0.00007245,-0.00006446,-0.00000882,0.00015928,-0.00015553,
 -0.00002889,-0.00000532,0.00003756,-0.00000008,-0.00000470,0.00001623,
 0.00003684,0.00001491,-0.00001809,-0.00001022,0.00003414,0.00002318,-0
 .00000733,-0.00000393,0.00003008,-0.00000327,0.00003727,-0.00001279,-0
 .00000199,-0.00002435,0.00001282,0.00000312,0.00003407,-0.00003750,-0.
 00000252,-0.00003871,0.00003314,0.00002577,0.00000159,-0.00001076,-0.0
 0000866,0.00000273,-0.00000290,0.00000608,0.00001489,0.00000868,-0.000
 03239,0.00001862,0.00000836,0.00001489,-0.00000732,-0.00000382,0.00000
 681,0.00000365,0.00000466,0.00000232,-0.00001241,-0.00000969,-0.000006
 65,-0.00000802,-0.00005106,-0.00000061,-0.00000800,0.00000870,0.000003
 52,-0.00004431,-0.00001708,0.00001268,-0.00000362,-0.00019895,0.000026
 68,0.00000116,0.00000047,0.00000017,0.00001742,0.00000933,0.00000401,0
 .00000507,0.00001188,-0.00000372,0.00001502,0.00000400,-0.00001309,-0.
 00000549,0.00011683,-0.00001706,0.00000219,0.00003506,-0.00001483,-0.0
 0000037,0.00003586,0.00000403,0.00062768,0.00081099,0.00015471,0.00217
 472,0.00093703,0.00040411,-0.00144542,-0.00304303,-0.00062202,-0.02365
 716,-0.00904486,0.01305394,-0.22455256,-0.07774407,0.10140203,0.001026
 95,-0.00049130,-0.00025519,-0.00354122,0.00181171,-0.00392468,0.246502
 02,0.00015179,-0.00004382,-0.00001356,-0.00005658,0.00024680,-0.000019
 86,0.00003425,-0.00017614,0.00000343,0.00002444,0.00014179,-0.00000806
 ,0.00001497,0.00011608,-0.00001478,-0.00012606,-0.00003900,0.00001413,
 0.00001195,-0.00004427,0.00001830,-0.00001604,0.00002096,-0.00000571,-
 0.00005232,-0.00002026,0.00001288,0.00001920,-0.00001834,-0.00000632,-
 0.00003727,0.00002741,0.00000320,0.00000988,0.00000121,-0.00000067,-0.
 00002702,0.00003304,0.00000652,-0.00000923,-0.00041670,0.00006993,0.00
 001445,0.00000954,0.00000626,0.00001155,0.00001348,-0.00001105,-0.0000
 4484,-0.00000308,0.00003163,-0.00005964,-0.00001794,-0.00002368,0.0000
 1182,0.00000727,-0.00000434,0.00002255,-0.00000715,-0.00000036,0.00000
 960,0.00000384,0.00000097,0.00003007,-0.00003275,-0.00001201,0.0000046
 7,-0.00000383,-0.00000159,0.00008254,-0.00003784,-0.00001523,0.0000740
 6,0.00001113,0.00000179,-0.00000142,0.00000304,0.00000041,-0.00002819,
 0.00000302,-0.00000593,-0.00001575,0.00002308,0.00000080,-0.00002641,0
 .00000842,0.00001948,-0.00001446,-0.00000099,0.00000210,-0.00002444,-0
 .00000463,-0.00001558,-0.00002945,-0.00000130,0.00001347,-0.00044425,0
 .00006315,-0.00020255,-0.00045693,-0.00011937,0.00001826,0.00137948,0.
 00036391,-0.00013217,0.00660984,0.00283802,-0.00445470,-0.07969781,-0.
 08213264,0.04500497,-0.00064047,0.00012871,-0.00020842,0.00181183,0.00
 006794,0.00073086,0.08576432,0.08481731,0.00008288,-0.00004659,-0.0000
 0942,-0.00014789,-0.00002526,-0.00000030,0.00028177,-0.00008627,0.0000
 0070,-0.00006779,0.00003858,0.00000054,-0.00017078,0.00011138,-0.00004
 328,0.00006668,-0.00003102,-0.00000997,-0.00000103,-0.00002030,0.00012
 283,-0.00001761,0.00001626,-0.00003652,-0.00002051,-0.00000584,0.00000
 032,-0.00000190,-0.00001002,0.00000238,-0.00002036,0.00000665,-0.00000
 039,0.00001383,-0.00000632,-0.00000059,-0.00001521,0.00002416,0.000003
 12,0.00002351,0.00004730,0.00000753,-0.00000613,-0.00000363,0.00000297
 ,-0.00001481,0.00002136,-0.00000897,0.00001289,-0.00000912,0.00000144,
 -0.00003922,-0.00003777,-0.00006464,0.00001845,0.00001834,-0.00001445,
 -0.00001214,-0.00000435,0.00001130,0.00000198,-0.00000077,0.00000598,-
 0.00000159,0.00001516,0.00000840,0.00000556,-0.00000524,-0.00000122,0.
 00002739,0.00000080,-0.00000975,0.00001628,0.00003568,-0.00001321,0.00
 000026,0.00000033,0.00000007,-0.00000982,-0.00000264,-0.00000149,-0.00
 000386,-0.00000226,0.00000161,-0.00000995,-0.00000043,0.00000988,-0.00
 000105,-0.00001928,0.00000443,-0.00000484,-0.00000684,0.00000139,-0.00
 000829,-0.00000666,0.00000643,0.00013930,-0.00038853,-0.00032899,-0.00
 084232,-0.00003845,-0.00015907,0.00054960,0.00060330,0.00083318,-0.016
 32189,-0.00721179,0.00915230,0.10240508,0.04417560,-0.10461285,0.00071
 842,-0.00069125,0.00086956,-0.00368387,0.00127964,-0.00116578,-0.10792
 259,-0.04999964,0.11168230,-0.00003077,0.00004017,0.00000249,0.0001350
 1,0.00016343,-0.00001937,-0.00032344,0.00000972,0.00002589,0.00008468,
 0.00002508,-0.00000655,0.00016035,-0.00009456,-0.00000030,-0.00005068,
 0.00001575,-0.00000016,0.00000001,0.00002455,-0.00000520,0.00001348,-0
 .00002201,0.00000131,-0.00002832,0.00001425,0.00003680,0.00002507,0.00
 000690,0.00000257,-0.00001201,0.00002972,-0.00000168,-0.00002159,0.000
 01271,0.00000722,0.00001848,-0.00001068,-0.00000598,-0.00003199,-0.000
 28236,0.00001290,0.00000791,-0.00000186,-0.00000310,0.00000766,-0.0000
 0485,0.00000333,0.00001028,0.00000747,-0.00002700,0.00002620,0.0000138
 7,0.00002556,-0.00000939,-0.00000418,0.00000485,0.00000200,0.00000269,
 -0.00000031,-0.00000789,-0.00000322,-0.00000262,0.00005131,-0.00015665
 ,-0.00009451,-0.00000352,0.00000730,0.00000022,0.00006379,-0.00003178,
 -0.00002161,0.00010713,-0.00006169,-0.00002862,-0.00000018,0.00000277,
 -0.00000011,-0.00001897,0.00000577,-0.00000086,-0.00001539,0.00002431,
 0.00000257,-0.00002143,0.00000731,0.00002037,-0.00003008,0.00003896,0.
 00000975,-0.00002731,0.00000664,-0.00000796,-0.00004970,0.00001187,0.0
 0003176,-0.00139542,0.00309507,-0.00124891,0.00155299,0.00052360,0.000
 58515,-0.00416058,-0.00433215,-0.00294473,-0.00184016,0.03018262,-0.00
 122100,-0.05059293,0.02274264,-0.00100876,0.00108709,-0.00076141,0.000
 06878,0.00069115,-0.00031913,0.00104604,0.00408388,-0.02658141,0.00043
 779,0.05261045,-0.00025827,0.00005759,0.00002604,-0.00003116,-0.000600
 51,0.00005056,0.00028972,0.00028536,-0.00004773,-0.00012631,-0.0002601
 0,0.00002296,-0.00017126,-0.00008351,0.00003164,0.00018442,0.00004584,
 -0.00002001,-0.00001103,0.00001743,-0.00001017,0.00001687,-0.00000949,
 0.00000366,0.00011108,0.00003854,-0.00002861,-0.00005322,0.00003105,0.
 00000536,0.00007764,-0.00008281,-0.00000449,-0.00000021,-0.00001354,-0
 .00000184,0.00003295,-0.00004973,-0.00001163,0.00008810,0.00104892,-0.
 00011702,-0.00002080,-0.00001474,-0.00000970,-0.00001884,-0.00001613,0
 .00001473,0.00002009,0.00000071,-0.00002299,0.00003733,0.00000452,0.00
 002276,-0.00000969,-0.00000928,0.00000613,-0.00002108,0.00001262,0.000
 00251,-0.00000823,-0.00000994,-0.00000486,-0.00010104,0.00020489,0.000
 07718,-0.00000504,0.00000147,0.00000184,-0.00022627,0.00011777,0.00004
 810,-0.00025916,0.00009631,0.00001402,0.00000208,-0.00000904,-0.000000
 71,0.00007517,-0.00001411,0.00001162,0.00004657,-0.00007338,-0.0000042
 8,0.00007497,-0.00002623,-0.00005929,0.00006720,-0.00007317,-0.0000016
 3,0.00007742,-0.00000636,0.00004510,0.00010949,-0.00001864,-0.00005968
 ,0.00152696,-0.00126270,0.00127148,0.00122735,-0.00109171,0.00094907,-
 0.00078263,0.00175707,-0.00094089,-0.00101743,-0.00564176,-0.00059152,
 0.02270950,-0.30316021,0.02429167,0.00019346,0.00025145,0.00067832,0.0
 0067105,0.00024931,-0.00019144,0.00100485,-0.01056311,0.00026301,-0.02
 603365,0.33108560,-0.00000151,0.00001397,-0.00000872,0.00003118,0.0000
 6623,0.00001692,-0.00008493,-0.00005292,-0.00000270,0.00002934,0.00004
 562,-0.00000216,0.00005248,0.00000868,0.00001398,-0.00003698,-0.000008
 72,0.00000018,0.00000124,0.00000077,-0.00001576,-0.00000278,0.00000197
 ,0.00000584,-0.00002220,0.00000874,0.00003119,0.00001461,0.00000383,0.
 00000068,-0.00001139,0.00001871,-0.00000497,-0.00000962,0.00000661,0.0
 0000321,0.00000810,0.00000058,0.00000026,0.00001974,-0.00011999,-0.000
 01618,0.00000594,0.00000640,0.00000156,0.00000377,0.00000231,-0.000000
 90,-0.00000994,-0.00000240,0.00001274,-0.00000255,-0.00000661,-0.00000
 469,0.00000025,0.00000180,-0.00000062,0.00000441,-0.00000220,0.0000004
 7,0.00000377,0.00000209,-0.00000026,0.00003323,-0.00010333,-0.00005465
 ,-0.00000081,0.00000346,-0.00000085,0.00004097,-0.00002502,-0.00001040
 ,0.00006369,-0.00005260,-0.00000764,-0.00000016,0.00000203,0.00000018,
 -0.00001284,0.00000447,-0.00000136,-0.00000973,0.00001776,0.00000089,-
 0.00001329,0.00000557,0.00001142,-0.00001646,0.00003313,0.00000154,-0.
 00001735,0.00000645,-0.00000962,-0.00002823,0.00001000,0.00001720,-0.0
 0081619,0.00203472,-0.00070885,0.00080087,0.00014463,0.00123808,-0.003
 23858,-0.00320670,-0.00144221,-0.00066293,0.01923537,-0.00210460,-0.00
 093601,0.02446224,-0.05197022,0.00079228,-0.00011510,0.00002731,0.0003
 2829,-0.00067940,0.00059193,-0.00298533,0.01536940,-0.00235882,0.00435
 963,-0.02761768,0.05081175,0.00003245,-0.00001811,-0.00000606,-0.00007
 951,-0.00005908,0.00000108,0.00014584,-0.00002126,0.00000708,-0.000036
 93,-0.00000228,-0.00000074,-0.00007324,0.00004761,-0.00003649,0.000017
 61,-0.00000594,-0.00000088,0.00000593,-0.00001907,0.00008237,-0.000006
 37,0.00000831,-0.00002120,-0.00001104,0.00001199,0.00001158,-0.0000022
 9,-0.00000133,0.00000716,-0.00001098,0.00000124,-0.00000179,0.00000751
 ,-0.00000462,0.00000157,-0.00000406,0.00001157,-0.00000135,0.00003213,
 0.00011221,0.00000823,-0.00000095,-0.00001057,-0.00000073,-0.00000679,
 0.00000728,-0.00000574,0.00000254,0.00000735,-0.00002241,-0.00001435,0
 .00000436,-0.00001605,0.00000789,0.00000742,-0.00000643,0.00000110,-0.
 00000013,0.00000733,-0.00000393,-0.00000798,0.00000011,0.00000484,-0.0
 0000774,-0.00002629,0.00000238,-0.00000198,-0.00000002,0.00000403,0.00
 001092,-0.00001298,-0.00000956,0.00005368,-0.00005348,0.00000021,-0.00
 000050,0.00000003,-0.00000015,-0.00000240,0.00000276,-0.00000006,-0.00
 000714,0.00000242,-0.00000310,-0.00000294,0.00000741,0.00000554,-0.000
 03549,0.00001885,0.00000932,-0.00000653,0.00002507,-0.00000394,-0.0000
 0910,0.00001196,0.00022178,0.00011373,0.00053859,-0.00012647,0.0004741
 9,0.00070660,0.00005928,-0.00072693,-0.00070294,0.00115703,-0.01240079
 ,-0.02785455,-0.04701568,0.00455086,0.01204985,-0.00458604,0.00199309,
 -0.00305021,0.00110040,-0.00084262,0.00066999,-0.00118769,0.01229673,0
 .02454378,-0.00206719,0.00051105,0.00232600,0.05243248,0.00016686,-0.0
 0004415,-0.00001938,-0.00000873,0.00033831,-0.00003170,-0.00013824,-0.
 00013266,0.00003899,0.00006094,0.00012194,-0.00001250,0.00008315,0.000
 03626,-0.00003771,-0.00009801,-0.00001833,0.00001200,0.00001024,-0.000
 00407,0.00002524,-0.00000297,-0.00000039,-0.00000886,-0.00005421,-0.00
 002907,0.00000724,0.00002411,-0.00002351,-0.00000195,-0.00004148,0.000
 03652,0.00000527,0.00000693,0.00000357,-0.00000146,-0.00002757,0.00002
 857,0.00000679,-0.00004623,-0.00053795,0.00008266,0.00001045,0.0000029
 9,0.00000277,0.00001106,0.00000758,-0.00000787,-0.00000309,0.00000304,
 -0.00000501,-0.00001659,0.00000921,-0.00000789,0.00000441,0.00000327,-
 0.00000123,0.00000981,-0.00000433,-0.00000215,-0.00000048,0.00000332,0
 .00000162,0.00003603,-0.00004891,-0.00001393,0.00000328,-0.00000272,-0
 .00000053,0.00010390,-0.00004309,-0.00002551,0.00010579,0.00001468,-0.
 00001471,-0.00000166,0.00000388,0.00000041,-0.00003452,0.00000325,-0.0
 0000496,-0.00002015,0.00002624,0.00000312,-0.00003516,0.00000954,0.000
 02924,-0.00002519,-0.00000071,0.00000438,-0.00003136,-0.00000687,-0.00
 001436,-0.00004487,-0.00000212,0.00002467,-0.00055174,0.00009388,-0.00
 053152,0.00021672,-0.00091167,-0.00019561,0.00043590,0.00029773,0.0013
 0111,-0.00117391,0.00362001,0.00758296,0.00443789,-0.09416612,-0.10507
 087,0.00149112,-0.00011633,0.00134469,-0.00049176,0.00022477,-0.000480
 16,-0.00002797,0.00473399,0.01200274,0.00168640,-0.01221626,-0.0295249
 2,-0.00602907,0.09868672,-0.00010230,0.00003799,-0.00000566,0.00002177
 ,-0.00015982,0.00004318,0.00001221,0.00005773,-0.00004762,-0.00001503,
 -0.00005201,0.00001719,-0.00000697,-0.00002770,0.00006070,0.00003889,0
 .00000870,-0.00001563,-0.00001035,0.00000656,-0.00007343,0.00000423,-0
 .00000107,0.00002133,0.00002003,0.00002952,0.00002065,-0.00000718,0.00
 001843,0.00000443,0.00001940,-0.00001142,0.00000084,-0.00001010,0.0000
 0286,0.00000149,0.00002160,-0.00001769,0.00000388,0.00005673,0.0002711
 2,-0.00005091,-0.00000385,0.00000961,0.00000203,-0.00000363,-0.0000112
 8,0.00000828,-0.00000416,-0.00000640,0.00002413,0.00002069,-0.00000486
 ,0.00000844,-0.00000658,-0.00000784,0.00000492,-0.00000611,0.00000139,
 -0.00000605,0.00000531,0.00000700,0.00000140,-0.00000646,-0.00003512,-
 0.00003731,-0.00000284,0.00000458,-0.00000327,-0.00004264,0.00001083,-
 0.00001895,-0.00003420,-0.00005223,-0.00005775,0.00000089,-0.00000059,
 -0.00000188,0.00002007,0.00000307,0.00001155,0.00000705,-0.00000672,0.
 00000334,0.00001001,-0.00000294,0.00000303,0.00000792,0.00002387,0.000
 01448,0.00002104,0.00001321,0.00003105,0.00000205,0.00001050,0.0000152
 1,0.00068440,0.00092170,0.00079341,0.00162612,0.00038308,0.00235231,-0
 .00159802,-0.00322014,-0.00185587,0.00045458,-0.00623244,-0.01644267,0
 .01095078,-0.10230901,-0.27328374,-0.00340304,0.00113989,-0.00010780,-
 0.00019240,-0.00007709,0.00089427,0.00069525,-0.00617256,-0.01388892,-
 0.00003564,0.00190840,0.00593886,-0.00920949,0.11353886,0.29561705\\0.
 00000279,0.00000018,-0.00000045,-0.00000423,0.00000086,0.,0.00000030,0
 .00000137,-0.00000046,0.00000023,-0.00000094,-0.00000257,-0.00000089,-
 0.00000118,-0.00000060,0.00000150,-0.00000038,-0.00000031,-0.00000002,
 -0.00000101,-0.00000015,-0.00000014,-0.00000128,-0.00000044,0.00000096
 ,-0.00000064,-0.00000032,-0.00000077,0.00000134,-0.00000109,-0.0000000
 8,0.00000061,-0.00000086,0.00000063,0.00000040,-0.00000234,0.00000118,
 0.00000117,-0.00000219,0.00000231,-0.00000083,-0.00000080,0.00000018,-
 0.00000017,-0.00000177,-0.00000004,-0.00000143,-0.00000129,-0.00000029
 ,-0.00000149,0.00000061,-0.00000012,-0.00000028,0.00000026,0.00000002,
 -0.00000189,-0.00000083,-0.00000010,-0.00000111,0.00000009,0.00000014,
 -0.00000066,-0.00000116,0.00000077,-0.00000067,0.00000018,-0.00000062,
 -0.00000046,-0.00000259,0.00000087,0.00000038,-0.00000189,0.00000001,0
 .00000141,0.00000108,0.00000049,0.00000059,-0.00000295,-0.00000049,0.0
 0000051,-0.00000212,0.00000067,0.00000124,-0.00000331,0.00000083,0.000
 00180,-0.00000156,-0.00000003,-0.00000077,0.00000132,-0.00000004,-0.00
 000056,-0.00000138,-0.00000041,0.00000238,0.00000080,-0.00000017,-0.00
 000043,0.00000174,-0.00000009,-0.00000085,0.00000163,-0.00000223,0.000
 00188,0.00000170,-0.00000003,-0.00000105,0.00000317,-0.00000056,0.0000
 0026,0.00000374,-0.00000077,-0.00000058,0.00000368,-0.00000050,0.00000
 051,0.00000354,-0.00000060,0.00000002,0.00000289,-0.00000046,0.0000005
 9,0.00000415,-0.00000019,0.00000115,0.00000282\\\@


 THE MORE PROGRESS PHYSICAL SCIENCES MAKE, THE MORE THEY TEND TO ENTER
 THE DOMAIN OF MATHEMATICS, WHICH IS A KIND OF CENTRE TO WHICH THEY ALL
 CONVERGE.  WE MAY EVEN JUDGE THE DEGREE OF PERFECTION TO WHICH A 
 SCIENCE HAS ARRIVED BY THE FACILITY WITH WHICH IT MAY BE SUBMITTED
 TO CALCULATION.

                               -- ADOLPHE QUETELET, 1796-1874
 Job cpu time:       0 days 10 hours 19 minutes 44.0 seconds.
 Elapsed time:       0 days 10 hours 19 minutes 46.1 seconds.
 File lengths (MBytes):  RWF=   1593 Int=      0 D2E=      0 Chk=     39 Scr=      1
 Normal termination of Gaussian 16 at Tue Mar 23 01:39:21 2021.
