 Entering Gaussian System, Link 0=/apps/gaussian/g16c01/g16/g16
 Initial command:
 /apps/gaussian/g16c01/g16/l1.exe "/jobfs/19479179.gadi-pbs/Gau-456512.inp" -scrdir="/jobfs/19479179.gadi-pbs/"
 Entering Link 1 = /apps/gaussian/g16c01/g16/l1.exe PID=    456513.
  
 Copyright (c) 1988-2019, Gaussian, Inc.  All Rights Reserved.
  
 This is part of the Gaussian(R) 16 program.  It is based on
 the Gaussian(R) 09 system (copyright 2009, Gaussian, Inc.),
 the Gaussian(R) 03 system (copyright 2003, Gaussian, Inc.),
 the Gaussian(R) 98 system (copyright 1998, Gaussian, Inc.),
 the Gaussian(R) 94 system (copyright 1995, Gaussian, Inc.),
 the Gaussian 92(TM) system (copyright 1992, Gaussian, Inc.),
 the Gaussian 90(TM) system (copyright 1990, Gaussian, Inc.),
 the Gaussian 88(TM) system (copyright 1988, Gaussian, Inc.),
 the Gaussian 86(TM) system (copyright 1986, Carnegie Mellon
 University), and the Gaussian 82(TM) system (copyright 1983,
 Carnegie Mellon University). Gaussian is a federally registered
 trademark of Gaussian, Inc.
  
 This software contains proprietary and confidential information,
 including trade secrets, belonging to Gaussian, Inc.
  
 This software is provided under written license and may be
 used, copied, transmitted, or stored only in accord with that
 written license.
  
 The following legend is applicable only to US Government
 contracts under FAR:
  
                    RESTRICTED RIGHTS LEGEND
  
 Use, reproduction and disclosure by the US Government is
 subject to restrictions as set forth in subparagraphs (a)
 and (c) of the Commercial Computer Software - Restricted
 Rights clause in FAR 52.227-19.
  
 Gaussian, Inc.
 340 Quinnipiac St., Bldg. 40, Wallingford CT 06492
  
  
 ---------------------------------------------------------------
 Warning -- This program may not be used in any manner that
 competes with the business of Gaussian, Inc. or will provide
 assistance to any competitor of Gaussian, Inc.  The licensee
 of this program is prohibited from giving any competitor of
 Gaussian, Inc. access to this program.  By using this program,
 the user acknowledges that Gaussian, Inc. is engaged in the
 business of creating and licensing software in the field of
 computational chemistry and represents and warrants to the
 licensee that it is not a competitor of Gaussian, Inc. and that
 it will not use this program in any manner prohibited above.
 ---------------------------------------------------------------
  

 Cite this work as:
 Gaussian 16, Revision C.01,
 M. J. Frisch, G. W. Trucks, H. B. Schlegel, G. E. Scuseria, 
 M. A. Robb, J. R. Cheeseman, G. Scalmani, V. Barone, 
 G. A. Petersson, H. Nakatsuji, X. Li, M. Caricato, A. V. Marenich, 
 J. Bloino, B. G. Janesko, R. Gomperts, B. Mennucci, H. P. Hratchian, 
 J. V. Ortiz, A. F. Izmaylov, J. L. Sonnenberg, D. Williams-Young, 
 F. Ding, F. Lipparini, F. Egidi, J. Goings, B. Peng, A. Petrone, 
 T. Henderson, D. Ranasinghe, V. G. Zakrzewski, J. Gao, N. Rega, 
 G. Zheng, W. Liang, M. Hada, M. Ehara, K. Toyota, R. Fukuda, 
 J. Hasegawa, M. Ishida, T. Nakajima, Y. Honda, O. Kitao, H. Nakai, 
 T. Vreven, K. Throssell, J. A. Montgomery, Jr., J. E. Peralta, 
 F. Ogliaro, M. J. Bearpark, J. J. Heyd, E. N. Brothers, K. N. Kudin, 
 V. N. Staroverov, T. A. Keith, R. Kobayashi, J. Normand, 
 K. Raghavachari, A. P. Rendell, J. C. Burant, S. S. Iyengar, 
 J. Tomasi, M. Cossi, J. M. Millam, M. Klene, C. Adamo, R. Cammi, 
 J. W. Ochterski, R. L. Martin, K. Morokuma, O. Farkas, 
 J. B. Foresman, and D. J. Fox, Gaussian, Inc., Wallingford CT, 2019.
 
 ******************************************
 Gaussian 16:  ES64L-G16RevC.01  3-Jul-2019
                22-Mar-2021 
 ******************************************
 %NprocShared=32
 Will use up to   32 processors via shared memory.
 %Mem=10000MB
 %chk=NM2CA_carboxy.M062X_6-311pGd_opt_water_GD3.chk
 ----------------------------------------------------------------------
 # M062X/6-311+G* SCF=Tight INT(grid=ultrafine) OPT=CalcFC IOP(2/17=4) 
 EmpiricalDispersion=GD3 SCRF=(SMD,Solvent=h2o) MaxDisk=10000MB
 ----------------------------------------------------------------------
 1/10=4,18=20,19=15,26=6,38=1/1,3;
 2/9=110,12=2,17=4,18=5,40=1/2;
 3/5=4,6=6,7=11,11=2,25=1,30=1,70=32201,71=2,72=1,74=-55,75=-5,124=31,140=1/1,2,3;
 4//1;
 5/5=2,32=2,38=5,53=1/2;
 8/6=4,10=90,11=11/1;
 11/6=1,8=1,9=11,15=111,16=1/1,2,10;
 10/6=1,13=1/2;
 6/7=2,8=2,9=2,10=2,28=1/1;
 7/10=1,25=1/1,2,3,16;
 1/10=4,18=20,19=15,26=6/3(2);
 2/9=110,17=4/2;
 99//99;
 2/9=110,17=4/2;
 3/5=4,6=6,7=11,11=2,25=1,30=1,70=32205,71=1,72=1,74=-55,75=-5,124=31/1,2,3;
 4/5=5,16=3,69=1/1;
 5/5=2,32=2,38=5,53=1/2;
 7//1,2,3,16;
 1/18=20,19=15,26=6/3(-5);
 2/9=110,17=4/2;
 6/7=2,8=2,9=2,10=2,19=2,28=1/1;
 99/9=1/99;
 ------------------------------------------
 NM2CA_carboxy.M062X_6-311pGd_opt_water_GD3
 ------------------------------------------
 Symbolic Z-matrix:
 Charge = -1 Multiplicity = 1
 C                    -6.06063   1.2031    0.20071 
 N                    -4.76129   0.58133   0.12276 
 C                    -3.53905   1.1934    0.08742 
 O                    -3.42769   2.40832   0.11869 
 O                    -2.42141   0.42387   0.01124 
 C                    -1.14214   0.94472  -0.03406 
 C                    -0.12025  -0.18669  -0.1181 
 C                     1.30241   0.36554  -0.17011 
 C                    -6.28468   2.59662   0.28021 
 C                    -7.58849   3.14397   0.35463 
 C                    -8.70828   2.25612   0.3486 
 C                    -8.4693    0.87527   0.26986 
 C                    -7.17904   0.36338   0.19827 
 H                    -4.74374  -0.56466   0.0825 
 H                    -0.95361   1.54562   0.88353 
 H                    -1.04051   1.60102  -0.92714 
 H                    -0.30978  -0.78948  -1.03265 
 H                    -0.22254  -0.84483   0.77186 
 H                     1.43294   1.01393  -1.06299 
 H                     2.02754  -0.47282  -0.23095 
 H                     1.52048   0.95861   0.74388 
 H                    -5.46437   3.28262   0.28811 
 H                    -7.04041  -0.81901   0.13285 
 C                    -10.17525   2.65959   0.42095 
 C                    -7.73673   4.6566    0.43819 
 H                    -9.29713   0.17599   0.26347 
 F                    -10.39924   4.01666   0.49827 
 F                    -10.7482   2.07618   1.53709 
 F                    -10.82714   2.19098  -0.70593 
 F                    -6.5158    5.31029   0.42907 
 F                    -8.37781   5.00074   1.61466 
 F                    -8.45752   5.11805  -0.64854 
 O                    -6.70525  -2.86267   0.12019 
 O                    -4.48357  -2.62558   0.07417 
 C                    -5.45538  -3.37476   0.09401 
 C                    -5.28964  -4.87145   0.09074 
 C                    -3.82924  -5.31907   0.06284 
 H                    -5.80783  -5.28376  -0.8014 
 H                    -5.77261  -5.28353   1.00254 
 H                    -3.32739  -4.94186  -0.85356 
 H                    -3.78225  -6.42869   0.0622 
 H                    -3.29296  -4.94164   0.95948 
 
 Add virtual bond connecting atoms O33        and H23        Dist= 3.91D+00.
 Add virtual bond connecting atoms O34        and H14        Dist= 3.93D+00.

 GradGradGradGradGradGradGradGradGradGradGradGradGradGradGradGradGradGrad
 Berny optimization.
 Initialization pass.
                           ----------------------------
                           !    Initial Parameters    !
                           ! (Angstroms and Degrees)  !
 --------------------------                            --------------------------
 ! Name  Definition              Value          Derivative Info.                !
 --------------------------------------------------------------------------------
 ! R1    R(1,2)                  1.4426         calculate D2E/DX2 analytically  !
 ! R2    R(1,9)                  1.4137         calculate D2E/DX2 analytically  !
 ! R3    R(1,13)                 1.3986         calculate D2E/DX2 analytically  !
 ! R4    R(2,3)                  1.3674         calculate D2E/DX2 analytically  !
 ! R5    R(2,14)                 1.1468         calculate D2E/DX2 analytically  !
 ! R6    R(3,4)                  1.2204         calculate D2E/DX2 analytically  !
 ! R7    R(3,5)                  1.3591         calculate D2E/DX2 analytically  !
 ! R8    R(5,6)                  1.382          calculate D2E/DX2 analytically  !
 ! R9    R(6,7)                  1.5269         calculate D2E/DX2 analytically  !
 ! R10   R(6,15)                 1.1129         calculate D2E/DX2 analytically  !
 ! R11   R(6,16)                 1.1129         calculate D2E/DX2 analytically  !
 ! R12   R(7,8)                  1.527          calculate D2E/DX2 analytically  !
 ! R13   R(7,17)                 1.1116         calculate D2E/DX2 analytically  !
 ! R14   R(7,18)                 1.1116         calculate D2E/DX2 analytically  !
 ! R15   R(8,19)                 1.1112         calculate D2E/DX2 analytically  !
 ! R16   R(8,20)                 1.1101         calculate D2E/DX2 analytically  !
 ! R17   R(8,21)                 1.1112         calculate D2E/DX2 analytically  !
 ! R18   R(9,10)                 1.416          calculate D2E/DX2 analytically  !
 ! R19   R(9,22)                 1.0694         calculate D2E/DX2 analytically  !
 ! R20   R(10,11)                1.4291         calculate D2E/DX2 analytically  !
 ! R21   R(10,25)                1.5222         calculate D2E/DX2 analytically  !
 ! R22   R(11,12)                1.4036         calculate D2E/DX2 analytically  !
 ! R23   R(11,24)                1.5232         calculate D2E/DX2 analytically  !
 ! R24   R(12,13)                1.3899         calculate D2E/DX2 analytically  !
 ! R25   R(12,26)                1.0837         calculate D2E/DX2 analytically  !
 ! R26   R(13,23)                1.1923         calculate D2E/DX2 analytically  !
 ! R27   R(14,34)                2.0773         calculate D2E/DX2 analytically  !
 ! R28   R(23,33)                2.071          calculate D2E/DX2 analytically  !
 ! R29   R(24,27)                1.3776         calculate D2E/DX2 analytically  !
 ! R30   R(24,28)                1.3836         calculate D2E/DX2 analytically  !
 ! R31   R(24,29)                1.3836         calculate D2E/DX2 analytically  !
 ! R32   R(25,30)                1.3849         calculate D2E/DX2 analytically  !
 ! R33   R(25,31)                1.3833         calculate D2E/DX2 analytically  !
 ! R34   R(25,32)                1.3833         calculate D2E/DX2 analytically  !
 ! R35   R(33,35)                1.351          calculate D2E/DX2 analytically  !
 ! R36   R(34,35)                1.2272         calculate D2E/DX2 analytically  !
 ! R37   R(35,36)                1.5058         calculate D2E/DX2 analytically  !
 ! R38   R(36,37)                1.5277         calculate D2E/DX2 analytically  !
 ! R39   R(36,38)                1.1111         calculate D2E/DX2 analytically  !
 ! R40   R(36,39)                1.1111         calculate D2E/DX2 analytically  !
 ! R41   R(37,40)                1.1108         calculate D2E/DX2 analytically  !
 ! R42   R(37,41)                1.1106         calculate D2E/DX2 analytically  !
 ! R43   R(37,42)                1.1109         calculate D2E/DX2 analytically  !
 ! A1    A(2,1,9)              124.7974         calculate D2E/DX2 analytically  !
 ! A2    A(2,1,13)             117.478          calculate D2E/DX2 analytically  !
 ! A3    A(9,1,13)             117.7245         calculate D2E/DX2 analytically  !
 ! A4    A(1,2,3)              127.8484         calculate D2E/DX2 analytically  !
 ! A5    A(1,2,14)             116.512          calculate D2E/DX2 analytically  !
 ! A6    A(3,2,14)             115.6394         calculate D2E/DX2 analytically  !
 ! A7    A(2,3,4)              121.7696         calculate D2E/DX2 analytically  !
 ! A8    A(2,3,5)              118.8853         calculate D2E/DX2 analytically  !
 ! A9    A(4,3,5)              119.3448         calculate D2E/DX2 analytically  !
 ! A10   A(3,5,6)              123.3445         calculate D2E/DX2 analytically  !
 ! A11   A(5,6,7)              110.0022         calculate D2E/DX2 analytically  !
 ! A12   A(5,6,15)             109.4678         calculate D2E/DX2 analytically  !
 ! A13   A(5,6,16)             109.4559         calculate D2E/DX2 analytically  !
 ! A14   A(7,6,15)             109.3955         calculate D2E/DX2 analytically  !
 ! A15   A(7,6,16)             109.3706         calculate D2E/DX2 analytically  !
 ! A16   A(15,6,16)            109.1319         calculate D2E/DX2 analytically  !
 ! A17   A(6,7,8)              110.943          calculate D2E/DX2 analytically  !
 ! A18   A(6,7,17)             109.4501         calculate D2E/DX2 analytically  !
 ! A19   A(6,7,18)             109.4548         calculate D2E/DX2 analytically  !
 ! A20   A(8,7,17)             109.0833         calculate D2E/DX2 analytically  !
 ! A21   A(8,7,18)             109.0945         calculate D2E/DX2 analytically  !
 ! A22   A(17,7,18)            108.7802         calculate D2E/DX2 analytically  !
 ! A23   A(7,8,19)             110.3558         calculate D2E/DX2 analytically  !
 ! A24   A(7,8,20)             109.7142         calculate D2E/DX2 analytically  !
 ! A25   A(7,8,21)             110.3565         calculate D2E/DX2 analytically  !
 ! A26   A(19,8,20)            108.6572         calculate D2E/DX2 analytically  !
 ! A27   A(19,8,21)            109.0544         calculate D2E/DX2 analytically  !
 ! A28   A(20,8,21)            108.661          calculate D2E/DX2 analytically  !
 ! A29   A(1,9,10)             122.0008         calculate D2E/DX2 analytically  !
 ! A30   A(1,9,22)             120.7436         calculate D2E/DX2 analytically  !
 ! A31   A(10,9,22)            117.2555         calculate D2E/DX2 analytically  !
 ! A32   A(9,10,11)            118.7587         calculate D2E/DX2 analytically  !
 ! A33   A(9,10,25)            118.4688         calculate D2E/DX2 analytically  !
 ! A34   A(11,10,25)           122.7725         calculate D2E/DX2 analytically  !
 ! A35   A(10,11,12)           118.5571         calculate D2E/DX2 analytically  !
 ! A36   A(10,11,24)           126.15           calculate D2E/DX2 analytically  !
 ! A37   A(12,11,24)           115.2929         calculate D2E/DX2 analytically  !
 ! A38   A(11,12,13)           121.5511         calculate D2E/DX2 analytically  !
 ! A39   A(11,12,26)           120.338          calculate D2E/DX2 analytically  !
 ! A40   A(13,12,26)           118.1108         calculate D2E/DX2 analytically  !
 ! A41   A(1,13,12)            121.4077         calculate D2E/DX2 analytically  !
 ! A42   A(1,13,23)            120.1687         calculate D2E/DX2 analytically  !
 ! A43   A(12,13,23)           118.4236         calculate D2E/DX2 analytically  !
 ! A44   A(11,24,27)           114.8474         calculate D2E/DX2 analytically  !
 ! A45   A(11,24,28)           108.9924         calculate D2E/DX2 analytically  !
 ! A46   A(11,24,29)           108.9877         calculate D2E/DX2 analytically  !
 ! A47   A(27,24,28)           107.6237         calculate D2E/DX2 analytically  !
 ! A48   A(27,24,29)           107.6223         calculate D2E/DX2 analytically  !
 ! A49   A(28,24,29)           108.6077         calculate D2E/DX2 analytically  !
 ! A50   A(10,25,30)           112.5087         calculate D2E/DX2 analytically  !
 ! A51   A(10,25,31)           109.8187         calculate D2E/DX2 analytically  !
 ! A52   A(10,25,32)           109.8233         calculate D2E/DX2 analytically  !
 ! A53   A(30,25,31)           107.2617         calculate D2E/DX2 analytically  !
 ! A54   A(30,25,32)           107.2618         calculate D2E/DX2 analytically  !
 ! A55   A(31,25,32)           110.101          calculate D2E/DX2 analytically  !
 ! A56   A(23,33,35)           121.5939         calculate D2E/DX2 analytically  !
 ! A57   A(14,34,35)           120.4251         calculate D2E/DX2 analytically  !
 ! A58   A(33,35,34)           120.1015         calculate D2E/DX2 analytically  !
 ! A59   A(33,35,36)           118.5955         calculate D2E/DX2 analytically  !
 ! A60   A(34,35,36)           121.303          calculate D2E/DX2 analytically  !
 ! A61   A(35,36,37)           113.3579         calculate D2E/DX2 analytically  !
 ! A62   A(35,36,38)           108.6178         calculate D2E/DX2 analytically  !
 ! A63   A(35,36,39)           108.603          calculate D2E/DX2 analytically  !
 ! A64   A(37,36,38)           108.8111         calculate D2E/DX2 analytically  !
 ! A65   A(37,36,39)           108.7753         calculate D2E/DX2 analytically  !
 ! A66   A(38,36,39)           108.5776         calculate D2E/DX2 analytically  !
 ! A67   A(36,37,40)           110.3312         calculate D2E/DX2 analytically  !
 ! A68   A(36,37,41)           109.4627         calculate D2E/DX2 analytically  !
 ! A69   A(36,37,42)           110.316          calculate D2E/DX2 analytically  !
 ! A70   A(40,37,41)           108.6437         calculate D2E/DX2 analytically  !
 ! A71   A(40,37,42)           109.4148         calculate D2E/DX2 analytically  !
 ! A72   A(41,37,42)           108.6326         calculate D2E/DX2 analytically  !
 ! A73   L(2,14,34,5,-1)       173.754          calculate D2E/DX2 analytically  !
 ! A74   L(13,23,33,5,-1)      177.4588         calculate D2E/DX2 analytically  !
 ! A75   L(2,14,34,5,-2)       177.8687         calculate D2E/DX2 analytically  !
 ! A76   L(13,23,33,5,-2)      177.1067         calculate D2E/DX2 analytically  !
 ! D1    D(9,1,2,3)             -1.2439         calculate D2E/DX2 analytically  !
 ! D2    D(9,1,2,14)           178.9293         calculate D2E/DX2 analytically  !
 ! D3    D(13,1,2,3)           178.8056         calculate D2E/DX2 analytically  !
 ! D4    D(13,1,2,14)           -1.0213         calculate D2E/DX2 analytically  !
 ! D5    D(2,1,9,10)          -179.9936         calculate D2E/DX2 analytically  !
 ! D6    D(2,1,9,22)            -0.1072         calculate D2E/DX2 analytically  !
 ! D7    D(13,1,9,10)           -0.0432         calculate D2E/DX2 analytically  !
 ! D8    D(13,1,9,22)          179.8432         calculate D2E/DX2 analytically  !
 ! D9    D(2,1,13,12)         -179.977          calculate D2E/DX2 analytically  !
 ! D10   D(2,1,13,23)           -0.0366         calculate D2E/DX2 analytically  !
 ! D11   D(9,1,13,12)            0.0689         calculate D2E/DX2 analytically  !
 ! D12   D(9,1,13,23)         -179.9907         calculate D2E/DX2 analytically  !
 ! D13   D(1,2,3,4)             -0.1266         calculate D2E/DX2 analytically  !
 ! D14   D(1,2,3,5)           -179.9191         calculate D2E/DX2 analytically  !
 ! D15   D(14,2,3,4)           179.7016         calculate D2E/DX2 analytically  !
 ! D16   D(14,2,3,5)            -0.091          calculate D2E/DX2 analytically  !
 ! D17   D(1,2,34,35)            1.4313         calculate D2E/DX2 analytically  !
 ! D18   D(3,2,34,35)         -179.7187         calculate D2E/DX2 analytically  !
 ! D19   D(2,3,5,6)            179.784          calculate D2E/DX2 analytically  !
 ! D20   D(4,3,5,6)             -0.0136         calculate D2E/DX2 analytically  !
 ! D21   D(3,5,6,7)           -179.9362         calculate D2E/DX2 analytically  !
 ! D22   D(3,5,6,15)            59.8314         calculate D2E/DX2 analytically  !
 ! D23   D(3,5,6,16)           -59.7421         calculate D2E/DX2 analytically  !
 ! D24   D(5,6,7,8)            179.968          calculate D2E/DX2 analytically  !
 ! D25   D(5,6,7,17)            59.543          calculate D2E/DX2 analytically  !
 ! D26   D(5,6,7,18)           -59.5899         calculate D2E/DX2 analytically  !
 ! D27   D(15,6,7,8)           -59.7559         calculate D2E/DX2 analytically  !
 ! D28   D(15,6,7,17)          179.8191         calculate D2E/DX2 analytically  !
 ! D29   D(15,6,7,18)           60.6862         calculate D2E/DX2 analytically  !
 ! D30   D(16,6,7,8)            59.7222         calculate D2E/DX2 analytically  !
 ! D31   D(16,6,7,17)          -60.7028         calculate D2E/DX2 analytically  !
 ! D32   D(16,6,7,18)         -179.8357         calculate D2E/DX2 analytically  !
 ! D33   D(6,7,8,19)           -60.2968         calculate D2E/DX2 analytically  !
 ! D34   D(6,7,8,20)          -179.9934         calculate D2E/DX2 analytically  !
 ! D35   D(6,7,8,21)            60.3049         calculate D2E/DX2 analytically  !
 ! D36   D(17,7,8,19)           60.3456         calculate D2E/DX2 analytically  !
 ! D37   D(17,7,8,20)          -59.351          calculate D2E/DX2 analytically  !
 ! D38   D(17,7,8,21)         -179.0526         calculate D2E/DX2 analytically  !
 ! D39   D(18,7,8,19)          179.0476         calculate D2E/DX2 analytically  !
 ! D40   D(18,7,8,20)           59.351          calculate D2E/DX2 analytically  !
 ! D41   D(18,7,8,21)          -60.3506         calculate D2E/DX2 analytically  !
 ! D42   D(1,9,10,11)           -0.0106         calculate D2E/DX2 analytically  !
 ! D43   D(1,9,10,25)          179.9727         calculate D2E/DX2 analytically  !
 ! D44   D(22,9,10,11)        -179.9008         calculate D2E/DX2 analytically  !
 ! D45   D(22,9,10,25)           0.0825         calculate D2E/DX2 analytically  !
 ! D46   D(9,10,11,12)           0.0398         calculate D2E/DX2 analytically  !
 ! D47   D(9,10,11,24)        -179.9794         calculate D2E/DX2 analytically  !
 ! D48   D(25,10,11,12)       -179.9427         calculate D2E/DX2 analytically  !
 ! D49   D(25,10,11,24)          0.0381         calculate D2E/DX2 analytically  !
 ! D50   D(9,10,25,30)          -0.0082         calculate D2E/DX2 analytically  !
 ! D51   D(9,10,25,31)        -119.3995         calculate D2E/DX2 analytically  !
 ! D52   D(9,10,25,32)         119.3863         calculate D2E/DX2 analytically  !
 ! D53   D(11,10,25,30)        179.9744         calculate D2E/DX2 analytically  !
 ! D54   D(11,10,25,31)         60.5831         calculate D2E/DX2 analytically  !
 ! D55   D(11,10,25,32)        -60.6311         calculate D2E/DX2 analytically  !
 ! D56   D(10,11,12,13)         -0.0153         calculate D2E/DX2 analytically  !
 ! D57   D(10,11,12,26)        179.9844         calculate D2E/DX2 analytically  !
 ! D58   D(24,11,12,13)       -179.9981         calculate D2E/DX2 analytically  !
 ! D59   D(24,11,12,26)          0.0016         calculate D2E/DX2 analytically  !
 ! D60   D(10,11,24,27)          0.004          calculate D2E/DX2 analytically  !
 ! D61   D(10,11,24,28)       -120.809          calculate D2E/DX2 analytically  !
 ! D62   D(10,11,24,29)        120.8118         calculate D2E/DX2 analytically  !
 ! D63   D(12,11,24,27)        179.9854         calculate D2E/DX2 analytically  !
 ! D64   D(12,11,24,28)         59.1723         calculate D2E/DX2 analytically  !
 ! D65   D(12,11,24,29)        -59.2069         calculate D2E/DX2 analytically  !
 ! D66   D(11,12,13,1)          -0.0408         calculate D2E/DX2 analytically  !
 ! D67   D(11,12,13,23)       -179.9822         calculate D2E/DX2 analytically  !
 ! D68   D(26,12,13,1)         179.9594         calculate D2E/DX2 analytically  !
 ! D69   D(26,12,13,23)          0.0181         calculate D2E/DX2 analytically  !
 ! D70   D(1,13,33,35)           0.1543         calculate D2E/DX2 analytically  !
 ! D71   D(12,13,33,35)       -177.8606         calculate D2E/DX2 analytically  !
 ! D72   D(23,33,35,34)         -0.1553         calculate D2E/DX2 analytically  !
 ! D73   D(23,33,35,36)        179.8081         calculate D2E/DX2 analytically  !
 ! D74   D(14,34,35,33)          0.064          calculate D2E/DX2 analytically  !
 ! D75   D(14,34,35,36)       -179.8984         calculate D2E/DX2 analytically  !
 ! D76   D(33,35,36,37)       -179.8893         calculate D2E/DX2 analytically  !
 ! D77   D(33,35,36,38)         59.0385         calculate D2E/DX2 analytically  !
 ! D78   D(33,35,36,39)        -58.873          calculate D2E/DX2 analytically  !
 ! D79   D(34,35,36,37)          0.0737         calculate D2E/DX2 analytically  !
 ! D80   D(34,35,36,38)       -120.9985         calculate D2E/DX2 analytically  !
 ! D81   D(34,35,36,39)        121.09           calculate D2E/DX2 analytically  !
 ! D82   D(35,36,37,40)        -60.5118         calculate D2E/DX2 analytically  !
 ! D83   D(35,36,37,41)        179.9816         calculate D2E/DX2 analytically  !
 ! D84   D(35,36,37,42)         60.498          calculate D2E/DX2 analytically  !
 ! D85   D(38,36,37,40)         60.4515         calculate D2E/DX2 analytically  !
 ! D86   D(38,36,37,41)        -59.0551         calculate D2E/DX2 analytically  !
 ! D87   D(38,36,37,42)       -178.5386         calculate D2E/DX2 analytically  !
 ! D88   D(39,36,37,40)        178.569          calculate D2E/DX2 analytically  !
 ! D89   D(39,36,37,41)         59.0625         calculate D2E/DX2 analytically  !
 ! D90   D(39,36,37,42)        -60.4211         calculate D2E/DX2 analytically  !
 --------------------------------------------------------------------------------
 Trust Radius=3.00D-01 FncErr=5.00D-06 GrdErr=5.00D-06 EigMax=2.50D+02 EigMin=1.00D-04
 Number of steps in this run=    219 maximum allowed number of steps=    252.
 GradGradGradGradGradGradGradGradGradGradGradGradGradGradGradGradGradGrad

                          Input orientation:                          
 ---------------------------------------------------------------------
 Center     Atomic      Atomic             Coordinates (Angstroms)
 Number     Number       Type             X           Y           Z
 ---------------------------------------------------------------------
      1          6           0       -6.060630    1.203100    0.200710
      2          7           0       -4.761290    0.581330    0.122760
      3          6           0       -3.539050    1.193400    0.087420
      4          8           0       -3.427690    2.408320    0.118690
      5          8           0       -2.421410    0.423870    0.011240
      6          6           0       -1.142140    0.944720   -0.034060
      7          6           0       -0.120250   -0.186690   -0.118100
      8          6           0        1.302410    0.365540   -0.170110
      9          6           0       -6.284680    2.596620    0.280210
     10          6           0       -7.588490    3.143970    0.354630
     11          6           0       -8.708280    2.256120    0.348600
     12          6           0       -8.469300    0.875270    0.269860
     13          6           0       -7.179040    0.363380    0.198270
     14          1           0       -4.743740   -0.564660    0.082500
     15          1           0       -0.953610    1.545620    0.883530
     16          1           0       -1.040510    1.601020   -0.927140
     17          1           0       -0.309780   -0.789480   -1.032650
     18          1           0       -0.222540   -0.844830    0.771860
     19          1           0        1.432940    1.013930   -1.062990
     20          1           0        2.027540   -0.472820   -0.230950
     21          1           0        1.520480    0.958610    0.743880
     22          1           0       -5.464370    3.282620    0.288110
     23          1           0       -7.040410   -0.819010    0.132850
     24          6           0      -10.175250    2.659590    0.420950
     25          6           0       -7.736730    4.656600    0.438190
     26          1           0       -9.297130    0.175990    0.263470
     27          9           0      -10.399240    4.016660    0.498270
     28          9           0      -10.748200    2.076180    1.537090
     29          9           0      -10.827140    2.190980   -0.705930
     30          9           0       -6.515800    5.310290    0.429070
     31          9           0       -8.377810    5.000740    1.614660
     32          9           0       -8.457520    5.118050   -0.648540
     33          8           0       -6.705250   -2.862670    0.120190
     34          8           0       -4.483570   -2.625580    0.074170
     35          6           0       -5.455380   -3.374760    0.094010
     36          6           0       -5.289640   -4.871450    0.090740
     37          6           0       -3.829240   -5.319070    0.062840
     38          1           0       -5.807830   -5.283760   -0.801400
     39          1           0       -5.772610   -5.283530    1.002540
     40          1           0       -3.327390   -4.941860   -0.853560
     41          1           0       -3.782250   -6.428690    0.062200
     42          1           0       -3.292960   -4.941640    0.959480
 ---------------------------------------------------------------------
                    Distance matrix (angstroms):
                    1          2          3          4          5
     1  C    0.000000
     2  N    1.442553   0.000000
     3  C    2.524142   1.367388   0.000000
     4  O    2.896835   2.261946   1.220414   0.000000
     5  O    3.726529   2.347822   1.359080   2.227597   0.000000
     6  C    4.930864   3.640727   2.412836   2.718308   1.381980
     7  C    6.109114   4.710321   3.692571   4.210618   2.384292
     8  C    7.419796   6.074603   4.918476   5.160446   3.728690
     9  C    1.413654   2.531186   3.089446   2.867741   4.440500
    10  C    2.474879   3.822819   4.502676   4.231915   5.849408
    11  C    2.853204   4.293560   5.283799   5.287783   6.557110
    12  C    2.431860   3.722550   4.943871   5.271710   6.070224
    13  C    1.398562   2.428728   3.735070   4.273259   4.761689
    14  H    2.207521   1.146831   2.131215   3.251447   2.524973
    15  H    5.163837   4.000882   2.728067   2.729524   2.042951
    16  H    5.160619   3.998282   2.727304   2.728392   2.042823
    17  H    6.209978   4.798962   3.951526   4.612252   2.649699
    18  H    6.213173   4.801616   3.952477   4.613307   2.650127
    19  H    7.601731   6.321521   5.106500   5.192920   4.044522
    20  H    8.271247   6.879285   5.819328   6.179219   4.544872
    21  H    7.604475   6.323667   5.107339   5.193930   4.044899
    22  H    2.165079   2.796181   2.848153   2.222874   4.184342
    23  H    2.248000   2.674966   4.038735   4.844337   4.784841
    24  C    4.370351   5.806810   6.804418   6.758999   8.080120
    25  C    3.846085   5.055746   5.453193   4.870798   6.808151
    26  H    3.396149   4.556089   5.849923   6.281288   6.884809
    27  F    5.179594   6.612789   7.429791   7.164729   8.763054
    28  F    4.951918   6.330719   7.406260   7.464050   8.625183
    29  F    4.951517   6.330264   7.398704   7.448429   8.619357
    30  F    4.138640   5.053236   5.091812   4.249022   6.388718
    31  F    4.668045   5.902217   6.343650   5.784657   7.680976
    32  F    4.668312   5.902444   6.335287   5.764587   7.674976
    33  O    4.117342   3.954760   5.145639   6.206910   5.400417
    34  O    4.142695   3.219280   3.934069   5.143638   3.681794
    35  C    4.618930   4.016620   4.953832   6.128307   4.862244
    36  C    6.124269   5.478411   6.312447   7.514166   6.022747
    37  C    6.894694   5.973862   6.518978   7.738018   5.913206
    38  H    6.568675   6.028980   6.920330   8.104303   6.686200
    39  H    6.542343   6.016092   6.912081   8.089771   6.692356
    40  H    6.807541   5.789205   6.210609   7.414882   5.509967
    41  H    7.965828   7.078317   7.626011   8.844300   6.986563
    42  H    6.781855   5.775750   6.201594   7.399121   5.517921
                    6          7          8          9         10
     6  C    0.000000
     7  C    1.526896   0.000000
     8  C    2.515906   1.526966   0.000000
     9  C    5.410477   6.775372   7.921139   0.000000
    10  C    6.822258   8.190933   9.329691   1.415998   0.000000
    11  C    7.688477   8.940883  10.200846   2.448357   1.429071
    12  C    7.333789   8.425254   9.794882   2.781316   2.435162
    13  C    6.069275   7.087255   8.489447   2.407064   2.814921
    14  H    3.906832   4.643249   6.122501   3.522396   4.681943
    15  H    1.112922   2.167637   2.755426   5.467074   6.845151
    16  H    1.112947   2.167333   2.754774   5.472681   6.848333
    17  H    2.167361   1.111611   2.162684   6.992046   8.389052
    18  H    2.167409   1.111594   2.162817   6.988193   8.387003
    19  H    2.773900   2.178693   1.111163   7.991918   9.377255
    20  H    3.477795   2.169702   1.110118   8.875570  10.290389
    21  H    2.773973   2.178696   1.111154   7.988654   9.375535
    22  H    4.924555   6.384414   7.382996   1.069377   2.129679
    23  H    6.158587   6.953518   8.431939   3.501338   4.006843
    24  C    9.205699  10.463982  11.719586   3.893624   2.632556
    25  C    7.582196   9.043101  10.024434   2.525257   1.522172
    26  H    8.196544   9.191967  10.610098   3.864529   3.425882
    27  F    9.768014  11.122306  12.276238   4.358173   2.946614
    28  F    9.799240  10.991522  12.290566   4.666221   3.538666
    29  F    9.787941  10.983458  12.277838   4.665936   3.538620
    30  F    6.938942   8.450991   9.270058   2.727559   2.418501
    31  F    8.457216   9.904503  10.880126   3.455683   2.378717
    32  F    8.444469   9.896045  10.866070   3.455636   2.378772
    33  O    6.743012   7.111953   8.638763   5.477804   6.075755
    34  O    4.891207   5.002371   6.517978   5.527913   6.557964
    35  C    6.105600   6.218713   7.728346   6.031566   6.863812
    36  C    7.144590   6.979483   8.423137   7.536450   8.342740
    37  C    6.816521   6.334877   7.661781   8.290632   9.264996
    38  H    7.819938   7.667828   9.103221   7.968542   8.691018
    39  H    7.829872   7.693035   9.129239   7.929738   8.645228
    40  H    6.332355   5.782585   7.076062   8.176777   9.219400
    41  H    7.832408   7.239152   8.489364   9.368346  10.305765
    42  H    6.345265   5.816942   7.110524   8.138622   9.175757
                   11         12         13         14         15
    11  C    0.000000
    12  C    1.403588   0.000000
    13  C    2.437958   1.389938   0.000000
    14  H    4.872903   3.998537   2.608706   0.000000
    15  H    7.805502   7.570440   6.373637   4.411351   0.000000
    16  H    7.800729   7.559527   6.362378   4.407205   1.813600
    17  H    9.039819   8.428861   7.073258   4.577565   3.088520
    18  H    9.044491   8.439182   7.083902   4.582026   2.502236
    19  H   10.314066   9.992501   8.728126   6.477304   3.125261
    20  H   11.092377  10.594895   9.254435   6.779153   3.768743
    21  H   10.318300  10.001367   8.736912   6.480604   2.546606
    22  H    3.402986   3.850360   3.386758   3.919585   4.870180
    23  H    3.504963   2.220604   1.192285   2.311260   6.572985
    24  C    1.523162   2.473235   3.781460   6.325475   9.300191
    25  C    2.591185   3.855315   4.335933   6.028769   7.475777
    26  H    2.163546   1.083668   2.127363   4.616782   8.477894
    27  F    2.445659   3.693937   4.879154   7.290133   9.771100
    28  F    2.367733   2.870791   4.179118   6.718884   9.830698
    29  F    2.367666   2.871005   4.179274   6.724800  10.021450
    30  F    3.760505   4.848805   4.996506   6.146165   6.731807
    31  F    3.040569   4.340088   4.994829   6.821118   8.221384
    32  F    3.041022   4.341057   4.995847   6.827867   8.450927
    33  O    5.501483   4.135997   3.261590   3.021555   7.286774
    34  O    6.461771   5.308511   4.026766   2.077294   5.524001
    35  C    6.507917   5.213194   4.117714   2.898832   6.715610
    36  C    7.909225   6.570168   5.566403   4.341257   7.785144
    37  C    9.014998   7.742278   6.597707   4.841602   7.487773
    38  H    8.159957   6.794459   5.896588   4.917669   8.546512
    39  H    8.117396   6.763119   5.874733   4.916582   8.359080
    40  H    9.066978   7.844763   6.639814   4.694905   7.123181
    41  H    9.988680   8.680979   7.595322   5.942367   8.500906
    42  H    9.028101   7.817066   6.619992   4.693806   6.896584
                   16         17         18         19         20
    16  H    0.000000
    17  H    2.501917   0.000000
    18  H    3.088342   1.807465   0.000000
    19  H    2.545797   2.508043   3.092293   0.000000
    20  H    3.768080   2.491197   2.491361   1.804512   0.000000
    21  H    3.124687   3.092205   2.508246   1.809835   1.804548
    22  H    4.886220   6.700463   6.689293   7.385480   8.396515
    23  H    6.555831   6.830860   6.847799   8.751421   9.081845
    24  C    9.294159  10.551613  10.557487  11.817798  12.615271
    25  C    7.485991   9.326454   9.318805   9.980252  11.049872
    26  H    8.462862   9.131512   9.145967  10.844171  11.354011
    27  F    9.770002  11.280067  11.281585  12.306681  13.232991
    28  F   10.026837  11.125475  10.950224  12.500758  13.146973
    29  F    9.806891  10.936396  11.129131  12.321627  13.136371
    30  F    6.751058   8.823747   8.809548   9.157916  10.337729
    31  F    8.476722  10.277549  10.069232  10.923153  11.901153
    32  F    8.213352  10.071351  10.265884  10.716192  11.889857
    33  O    7.287709   6.821231   6.820695   9.091649   9.060701
    34  O    5.542692   4.692210   4.670569   7.038768   6.864549
    35  C    6.729949   5.867728   5.851721   8.249133   8.032493
    36  C    7.809229   6.536321   6.507926   9.008988   8.543568
    37  C    7.526269   5.839853   5.790494   8.310531   7.607518
    38  H    8.375162   7.104969   7.305800   9.599900   9.212143
    39  H    8.573999   7.360774   7.110453   9.790014   9.246987
    40  H    6.931415   5.136176   5.391451   7.627322   7.002516
    41  H    8.542375   6.712483   6.659928   9.157339   8.325382
    42  H    7.172117   5.487110   5.123137   7.867231   7.049482
                   21         22         23         24         25
    21  H    0.000000
    22  H    7.375424   0.000000
    23  H    8.764823   4.396746   0.000000
    24  C   11.823186   4.753757   4.691576   0.000000
    25  C    9.973190   2.659693   5.528146   3.151940   0.000000
    26  H   10.856518   4.933742   2.469792   2.638970   4.747762
    27  F   12.308197   4.993588   5.899066   1.377603   2.738995
    28  F   12.344985   5.561862   4.909350   1.383621   4.115228
    29  F   12.493374   5.562292   4.909472   1.383624   4.115693
    30  F    9.144289   2.288410   6.158838   4.518612   1.384942
    31  F   10.727219   3.633153   6.152551   3.183821   1.383292
    32  F   10.899553   3.633877   6.153654   3.184090   1.383277
    33  O    9.091414   6.271568   2.070999   6.528914   7.596348
    34  O    7.024496   5.992876   3.131225   7.774863   7.984091
    35  C    8.237903   6.660215   3.007605   7.667949   8.356181
    36  C    8.988544   8.158330   4.414662   8.983028   9.843409
    37  C    8.276025   8.758622   5.528748  10.200936  10.720231
    38  H    9.749831   8.642214   4.725047   9.146874  10.201372
    39  H    9.603144   8.601415   4.721823   9.100255  10.148027
    40  H    7.801872   8.573924   5.635372  10.310170  10.641491
    41  H    9.118982   9.858504   6.487612  11.117373  11.775523
    42  H    7.617653   8.532538   5.632298  10.268137  10.589856
                   26         27         28         29         30
    26  H    0.000000
    27  F    4.002565   0.000000
    28  F    2.708954   2.228538   0.000000
    29  F    2.709401   2.228520   2.247343   0.000000
    30  F    5.841597   4.093821   5.440624   5.441137   0.000000
    31  F    5.094024   2.510163   3.765344   4.390798   2.229019
    32  F    5.095161   2.509683   4.390577   3.766448   2.229008
    33  O    3.996477   7.817524   6.537988   6.573571   8.180989
    34  O    5.572700   8.904738   7.968204   8.003042   8.199631
    35  C    5.234079   8.901588   7.733639   7.776450   8.755961
    36  C    6.447206  10.260243   8.953065   9.009801  10.260885
    37  C    7.754596  11.424113  10.234019  10.293807  10.969732
    38  H    6.566432  10.453134   9.167579   9.004128  10.688740
    39  H    6.540247  10.399689   8.899864   9.183433  10.635329
    40  H    7.942162  11.493197  10.489829  10.351109  10.812848
    41  H    8.606754  12.372552  11.092005  11.158818  12.058629
    42  H    7.919888  11.443910  10.254952  10.507698  10.759652
                   31         32         33         34         35
    31  F    0.000000
    32  F    2.267640   0.000000
    33  O    8.177048   8.206905   0.000000
    34  O    8.700516   8.733750   2.234769   0.000000
    35  C    9.000110   9.038365   1.350961   1.227224   0.000000
    36  C   10.455585  10.505813   2.457644   2.386201   1.505842
    37  C   11.384029  11.439428   3.782674   2.771852   2.534885
    38  H   10.872584  10.735077   2.741599   3.096160   2.137817
    39  H   10.626757  10.868656   2.740241   3.096481   2.137631
    40  H   11.421653  11.294337   4.084257   2.750016   2.807496
    41  H   12.416166  12.477600   4.611268   3.867252   3.482365
    42  H   11.186415  11.421724   4.082921   2.750538   2.807171
                   36         37         38         39         40
    36  C    0.000000
    37  C    1.527714   0.000000
    38  H    1.111051   2.159392   0.000000
    39  H    1.111058   2.158932   1.804284   0.000000
    40  H    2.178781   1.110824   2.504436   3.088842   0.000000
    41  H    2.167495   1.110615   2.481863   2.481363   1.804488
    42  H    2.178616   1.110861   3.089064   2.503479   1.813367
                   41         42
    41  H    0.000000
    42  H    1.804393   0.000000
 Stoichiometry    C15H16F6NO4(1-)
 Framework group  C1[X(C15H16F6NO4)]
 Deg. of freedom   120
 Full point group                 C1      NOp   1
 Largest Abelian subgroup         C1      NOp   1
 Largest concise Abelian subgroup C1      NOp   1
                         Standard orientation:                         
 ---------------------------------------------------------------------
 Center     Atomic      Atomic             Coordinates (Angstroms)
 Number     Number       Type             X           Y           Z
 ---------------------------------------------------------------------
      1          6           0        0.121642   -0.069945   -0.022985
      2          7           0       -1.288065   -0.376014   -0.025314
      3          6           0       -1.878887   -1.609150   -0.017917
      4          8           0       -1.220813   -2.636910   -0.010249
      5          8           0       -3.235719   -1.687086   -0.023480
      6          6           0       -3.927917   -2.883216   -0.021201
      7          6           0       -5.431334   -2.616643   -0.030524
      8          6           0       -6.217743   -3.925529   -0.028980
      9          6           0        1.156150   -1.032713    0.012925
     10          6           0        2.523609   -0.665146    0.013282
     11          6           0        2.862549    0.722646   -0.024105
     12          6           0        1.824068    1.666259   -0.058857
     13          6           0        0.489165    1.279012   -0.057862
     14          1           0       -2.006044    0.518177   -0.037561
     15          1           0       -3.661247   -3.464344    0.889718
     16          1           0       -3.651978   -3.472921   -0.923838
     17          1           0       -5.698217   -2.033379   -0.938409
     18          1           0       -5.708040   -2.025110    0.869011
     19          1           0       -5.969433   -4.526700   -0.929878
     20          1           0       -7.306383   -3.708325   -0.035958
     21          1           0       -5.979354   -4.518615    0.879911
     22          1           0        0.929845   -2.077439    0.042948
     23          1           0       -0.347904    2.127487   -0.088707
     24          6           0        4.270441    1.303877   -0.030041
     25          6           0        3.571505   -1.768444    0.053973
     26          1           0        2.048245    2.726101   -0.087410
     27          9           0        5.282458    0.369847    0.004558
     28          9           0        4.422366    2.127147    1.071573
     29          9           0        4.439491    2.062445   -1.174773
     30          9           0        3.008563   -3.033395    0.086508
     31          9           0        4.348511   -1.635588    1.190682
     32          9           0        4.366743   -1.702002   -1.075912
     33          8           0       -1.864896    3.536433   -0.037276
     34          8           0       -3.474243    1.986771    0.015095
     35          6           0       -3.165729    3.174557    0.007182
     36          6           0       -4.213528    4.255336    0.047112
     37          6           0       -5.640997    3.713455    0.098175
     38          1           0       -4.103352    4.889812   -0.858281
     39          1           0       -4.038127    4.886054    0.944820
     40          1           0       -5.852887    3.098666   -0.802417
     41          1           0       -6.357874    4.561263    0.126010
     42          1           0       -5.786577    3.095491    1.009734
 ---------------------------------------------------------------------
 Rotational constants (GHZ):           0.2289740           0.0926494           0.0678330
 Standard basis: 6-311+G(d) (5D, 7F)
 There are   646 symmetry adapted cartesian basis functions of A   symmetry.
 There are   620 symmetry adapted basis functions of A   symmetry.
   620 basis functions,  1016 primitive gaussians,   646 cartesian basis functions
   100 alpha electrons      100 beta electrons
       nuclear repulsion energy      2413.4136358011 Hartrees.
 NAtoms=   42 NActive=   42 NUniq=   42 SFac= 1.00D+00 NAtFMM=   60 NAOKFM=F Big=F
 Integral buffers will be    131072 words long.
 Raffenetti 2 integral format.
 Two-electron integral symmetry is turned on.
 Nuclear repulsion after empirical dispersion term =     2413.4112581403 Hartrees.
 Force inversion solution in PCM.
 ------------------------------------------------------------------------------
 Polarizable Continuum Model (PCM)
 =================================
 Model                : PCM.
 Atomic radii         : SMD-Coulomb.
 Polarization charges : Total charges.
 Charge compensation  : None.
 Solution method      : Matrix inversion.
 Cavity type          : VdW (van der Waals Surface) (Alpha=1.000).
 Cavity algorithm     : GePol (No added spheres)
                        Default sphere list used, NSphG=   42.
                        Lebedev-Laikov grids with approx.  5.0 points / Ang**2.
                        Smoothing algorithm: York/Karplus (Gamma=1.0000).
                        Polarization charges: spherical gaussians, with
                                              point-specific exponents (IZeta= 3).
                        Self-potential: point-specific (ISelfS= 7).
                        Self-field    : sphere-specific E.n sum rule (ISelfD= 2).
 1st derivatives      : Analytical E(r).r(x)/FMM algorithm (CHGder, D1EAlg=3).
                        Cavity 1st derivative terms included.
 2nd derivatives      : Analytical E(r).r(xy)/FMM algorithm (CHGder, D2EAlg=3).
                        Cavity 2nd derivative terms included.
 Solvent              : Water, Eps=  78.355300 Eps(inf)=   1.777849
 ------------------------------------------------------------------------------
 ------------------------------------------------------------------------------
 Atomic radii for non-electrostatic terms: SMD-CDS.
 ------------------------------------------------------------------------------
 Nuclear repulsion after PCM non-electrostatic terms =     2413.4315030679 Hartrees.
 One-electron integrals computed using PRISM.
 NBasis=   620 RedAO= T EigKep=  1.21D-06  NBF=   620
 NBsUse=   617 1.00D-06 EigRej=  9.22D-07 NBFU=   617
 ExpMin= 4.38D-02 ExpMax= 1.14D+04 ExpMxC= 1.72D+03 IAcc=3 IRadAn=         5 AccDes= 0.00D+00
 Harris functional with IExCor= 1009 and IRadAn=       5 diagonalized for initial guess.
 HarFok:  IExCor= 1009 AccDes= 0.00D+00 IRadAn=         5 IDoV= 1 UseB2=F ITyADJ=14
 ICtDFT=  3500011 ScaDFX=  1.000000  1.000000  1.000000  1.000000
 FoFCou: FMM=F IPFlag=           0 FMFlag=      100000 FMFlg1=           0
         NFxFlg=           0 DoJE=T BraDBF=F KetDBF=T FulRan=T
         wScrn=  0.000000 ICntrl=       500 IOpCl=  0 I1Cent=   200000004 NGrid=           0
         NMat0=    1 NMatS0=      1 NMatT0=    0 NMatD0=    1 NMtDS0=    0 NMtDT0=    0
 Petite list used in FoFCou.
 Requested convergence on RMS density matrix=1.00D-08 within 128 cycles.
 Requested convergence on MAX density matrix=1.00D-06.
 Requested convergence on             energy=1.00D-06.
 No special actions if energy rises.
 Inv3:  Mode=1 IEnd=    30796848.
 Iteration    1 A*A^-1 deviation from unit magnitude is 5.55D-15 for   3194.
 Iteration    1 A*A^-1 deviation from orthogonality  is 2.65D-15 for   1819    241.
 Iteration    1 A^-1*A deviation from unit magnitude is 5.33D-15 for   3189.
 Iteration    1 A^-1*A deviation from orthogonality  is 1.18D-14 for   2231   2183.
 Error on total polarization charges =  0.06304
 SCF Done:  E(RM062X) =  -1535.99710009     A.U. after   16 cycles
            NFock= 16  Conv=0.18D-08     -V/T= 2.0042
 SMD-CDS (non-electrostatic) energy       (kcal/mol) =      12.70
 (included in total energy above)
 DoSCS=F DFT=T ScalE2(SS,OS)=  1.000000  1.000000
 Range of M.O.s used for correlation:     1   617
 NBasis=   620 NAE=   100 NBE=   100 NFC=     0 NFV=     0
 NROrb=    617 NOA=   100 NOB=   100 NVA=   517 NVB=   517

 **** Warning!!: The largest alpha MO coefficient is  0.15067453D+03

 Symmetrizing basis deriv contribution to polar:
 IMax=3 JMax=2 DiffMx= 0.00D+00
 G2DrvN: will do    43 centers at a time, making    1 passes.
 Calling FoFCou, ICntrl=  3107 FMM=F I1Cent=   0 AccDes= 0.00D+00.
 NEqPCM:  Using equilibrium solvation (IEInf=0, Eps=  78.3553, EpsInf=   1.7778)
 G2PCM: DoFxE=T DoFxN=T DoGrad=T DoDP/DQ/DG/TGxP=FFFF NFrqRd=   0 IEInf=0 SqF1=F DoCFld=F IF1Alg=4.
 End of G2Drv F.D. properties file   721 does not exist.
 End of G2Drv F.D. properties file   722 does not exist.
 End of G2Drv F.D. properties file   788 does not exist.
          IDoAtm=111111111111111111111111111111111111111111
 NEqPCM:  Using equilibrium solvation (IEInf=0, Eps=  78.3553, EpsInf=   1.7778)
          Differentiating once with respect to nuclear coordinates.
 CalDSu exits because no D1Ps are significant.
          There are   129 degrees of freedom in the 1st order CPHF.  IDoFFX=6 NUNeed=     0.
    123 vectors produced by pass  0 Test12= 5.17D-14 1.00D-09 XBig12= 4.78D-01 1.67D-01.
 AX will form    64 AO Fock derivatives at one time.
    123 vectors produced by pass  1 Test12= 5.17D-14 1.00D-09 XBig12= 3.31D-02 5.53D-02.
    123 vectors produced by pass  2 Test12= 5.17D-14 1.00D-09 XBig12= 1.88D-03 6.93D-03.
    123 vectors produced by pass  3 Test12= 5.17D-14 1.00D-09 XBig12= 1.72D-05 5.34D-04.
    123 vectors produced by pass  4 Test12= 5.17D-14 1.00D-09 XBig12= 1.32D-07 3.29D-05.
    123 vectors produced by pass  5 Test12= 5.17D-14 1.00D-09 XBig12= 7.43D-10 2.65D-06.
    104 vectors produced by pass  6 Test12= 5.17D-14 1.00D-09 XBig12= 2.66D-12 1.42D-07.
     42 vectors produced by pass  7 Test12= 5.17D-14 1.00D-09 XBig12= 9.58D-15 8.76D-09.
 InvSVY:  IOpt=1 It=  1 EMax= 1.11D-15
 Solved reduced A of dimension   884 with   129 vectors.
 End of Minotr F.D. properties file   721 does not exist.
 End of Minotr F.D. properties file   722 does not exist.
 End of Minotr F.D. properties file   788 does not exist.

 **********************************************************************

            Population analysis using the SCF Density.

 **********************************************************************

 Orbital symmetries:
       Occupied  (A) (A) (A) (A) (A) (A) (A) (A) (A) (A) (A) (A)
                 (A) (A) (A) (A) (A) (A) (A) (A) (A) (A) (A) (A)
                 (A) (A) (A) (A) (A) (A) (A) (A) (A) (A) (A) (A)
                 (A) (A) (A) (A) (A) (A) (A) (A) (A) (A) (A) (A)
                 (A) (A) (A) (A) (A) (A) (A) (A) (A) (A) (A) (A)
                 (A) (A) (A) (A) (A) (A) (A) (A) (A) (A) (A) (A)
                 (A) (A) (A) (A) (A) (A) (A) (A) (A) (A) (A) (A)
                 (A) (A) (A) (A) (A) (A) (A) (A) (A) (A) (A) (A)
                 (A) (A) (A) (A)
       Virtual   (A) (A) (A) (A) (A) (A) (A) (A) (A) (A) (A) (A)
                 (A) (A) (A) (A) (A) (A) (A) (A) (A) (A) (A) (A)
                 (A) (A) (A) (A) (A) (A) (A) (A) (A) (A) (A) (A)
                 (A) (A) (A) (A) (A) (A) (A) (A) (A) (A) (A) (A)
                 (A) (A) (A) (A) (A) (A) (A) (A) (A) (A) (A) (A)
                 (A) (A) (A) (A) (A) (A) (A) (A) (A) (A) (A) (A)
                 (A) (A) (A) (A) (A) (A) (A) (A) (A) (A) (A) (A)
                 (A) (A) (A) (A) (A) (A) (A) (A) (A) (A) (A) (A)
                 (A) (A) (A) (A) (A) (A) (A) (A) (A) (A) (A) (A)
                 (A) (A) (A) (A) (A) (A) (A) (A) (A) (A) (A) (A)
                 (A) (A) (A) (A) (A) (A) (A) (A) (A) (A) (A) (A)
                 (A) (A) (A) (A) (A) (A) (A) (A) (A) (A) (A) (A)
                 (A) (A) (A) (A) (A) (A) (A) (A) (A) (A) (A) (A)
                 (A) (A) (A) (A) (A) (A) (A) (A) (A) (A) (A) (A)
                 (A) (A) (A) (A) (A) (A) (A) (A) (A) (A) (A) (A)
                 (A) (A) (A) (A) (A) (A) (A) (A) (A) (A) (A) (A)
                 (A) (A) (A) (A) (A) (A) (A) (A) (A) (A) (A) (A)
                 (A) (A) (A) (A) (A) (A) (A) (A) (A) (A) (A) (A)
                 (A) (A) (A) (A) (A) (A) (A) (A) (A) (A) (A) (A)
                 (A) (A) (A) (A) (A) (A) (A) (A) (A) (A) (A) (A)
                 (A) (A) (A) (A) (A) (A) (A) (A) (A) (A) (A) (A)
                 (A) (A) (A) (A) (A) (A) (A) (A) (A) (A) (A) (A)
                 (A) (A) (A) (A) (A) (A) (A) (A) (A) (A) (A) (A)
                 (A) (A) (A) (A) (A) (A) (A) (A) (A) (A) (A) (A)
                 (A) (A) (A) (A) (A) (A) (A) (A) (A) (A) (A) (A)
                 (A) (A) (A) (A) (A) (A) (A) (A) (A) (A) (A) (A)
                 (A) (A) (A) (A) (A) (A) (A) (A) (A) (A) (A) (A)
                 (A) (A) (A) (A) (A) (A) (A) (A) (A) (A) (A) (A)
                 (A) (A) (A) (A) (A) (A) (A) (A) (A) (A) (A) (A)
                 (A) (A) (A) (A) (A) (A) (A) (A) (A) (A) (A) (A)
                 (A) (A) (A) (A) (A) (A) (A) (A) (A) (A) (A) (A)
                 (A) (A) (A) (A) (A) (A) (A) (A) (A) (A) (A) (A)
                 (A) (A) (A) (A) (A) (A) (A) (A) (A) (A) (A) (A)
                 (A) (A) (A) (A) (A) (A) (A) (A) (A) (A) (A) (A)
                 (A) (A) (A) (A) (A) (A) (A) (A) (A) (A) (A) (A)
                 (A) (A) (A) (A) (A) (A) (A) (A) (A) (A) (A) (A)
                 (A) (A) (A) (A) (A) (A) (A) (A) (A) (A) (A) (A)
                 (A) (A) (A) (A) (A) (A) (A) (A) (A) (A) (A) (A)
                 (A) (A) (A) (A) (A) (A) (A) (A) (A) (A) (A) (A)
                 (A) (A) (A) (A) (A) (A) (A) (A) (A) (A) (A) (A)
                 (A) (A) (A) (A) (A) (A) (A) (A) (A) (A) (A) (A)
                 (A) (A) (A) (A) (A) (A) (A) (A) (A) (A) (A) (A)
                 (A) (A) (A) (A) (A) (A) (A) (A) (A) (A) (A) (A)
                 (A)
 The electronic state is 1-A.
 Alpha  occ. eigenvalues --  -25.29158 -25.29089 -25.28842 -25.28841 -25.28775
 Alpha  occ. eigenvalues --  -25.28770 -19.67261 -19.61174 -19.58808 -19.56207
 Alpha  occ. eigenvalues --  -14.80694 -10.82829 -10.82587 -10.71857 -10.64122
 Alpha  occ. eigenvalues --  -10.62716 -10.60744 -10.59938 -10.59210 -10.57436
 Alpha  occ. eigenvalues --  -10.57357 -10.56790 -10.53383 -10.53239 -10.52402
 Alpha  occ. eigenvalues --  -10.52083  -1.45908  -1.45380  -1.38044  -1.37764
 Alpha  occ. eigenvalues --   -1.37564  -1.37388  -1.25146  -1.16435  -1.15425
 Alpha  occ. eigenvalues --   -1.05214  -1.03681  -0.99137  -0.90609  -0.89847
 Alpha  occ. eigenvalues --   -0.88262  -0.85922  -0.83004  -0.81436  -0.79096
 Alpha  occ. eigenvalues --   -0.74160  -0.73481  -0.71797  -0.69969  -0.69459
 Alpha  occ. eigenvalues --   -0.69196  -0.69161  -0.67950  -0.67815  -0.65861
 Alpha  occ. eigenvalues --   -0.63763  -0.63348  -0.59215  -0.58902  -0.58749
 Alpha  occ. eigenvalues --   -0.58634  -0.58299  -0.57830  -0.57803  -0.56246
 Alpha  occ. eigenvalues --   -0.55643  -0.54815  -0.54250  -0.53689  -0.53162
 Alpha  occ. eigenvalues --   -0.53112  -0.52927  -0.52866  -0.52794  -0.52330
 Alpha  occ. eigenvalues --   -0.51925  -0.51180  -0.50620  -0.50143  -0.48310
 Alpha  occ. eigenvalues --   -0.48080  -0.45894  -0.45793  -0.45374  -0.44425
 Alpha  occ. eigenvalues --   -0.43746  -0.42875  -0.42237  -0.40885  -0.40168
 Alpha  occ. eigenvalues --   -0.39749  -0.39231  -0.39164  -0.37019  -0.36882
 Alpha  occ. eigenvalues --   -0.33582  -0.32992  -0.32808  -0.31494  -0.29935
 Alpha virt. eigenvalues --   -0.02603  -0.00771   0.01382   0.02141   0.02633
 Alpha virt. eigenvalues --    0.03141   0.03447   0.03495   0.03953   0.04645
 Alpha virt. eigenvalues --    0.04736   0.05039   0.05455   0.05526   0.06393
 Alpha virt. eigenvalues --    0.06576   0.06758   0.07018   0.07072   0.07434
 Alpha virt. eigenvalues --    0.07621   0.07958   0.08594   0.08736   0.09019
 Alpha virt. eigenvalues --    0.09101   0.09298   0.09863   0.10223   0.10756
 Alpha virt. eigenvalues --    0.11337   0.11492   0.11865   0.12190   0.12590
 Alpha virt. eigenvalues --    0.12738   0.12881   0.13535   0.13977   0.14278
 Alpha virt. eigenvalues --    0.14717   0.14984   0.15417   0.15512   0.15718
 Alpha virt. eigenvalues --    0.16266   0.16487   0.17478   0.17565   0.17769
 Alpha virt. eigenvalues --    0.18084   0.18602   0.19004   0.19278   0.19589
 Alpha virt. eigenvalues --    0.20405   0.20599   0.20681   0.21063   0.21465
 Alpha virt. eigenvalues --    0.21595   0.21971   0.22146   0.22216   0.22364
 Alpha virt. eigenvalues --    0.22949   0.23326   0.23543   0.23687   0.24010
 Alpha virt. eigenvalues --    0.24383   0.24940   0.25519   0.25607   0.25750
 Alpha virt. eigenvalues --    0.25956   0.26176   0.26853   0.26953   0.27406
 Alpha virt. eigenvalues --    0.27819   0.27998   0.28225   0.28542   0.29007
 Alpha virt. eigenvalues --    0.29069   0.29431   0.29510   0.29682   0.30023
 Alpha virt. eigenvalues --    0.30140   0.30495   0.31256   0.31513   0.31590
 Alpha virt. eigenvalues --    0.31902   0.31994   0.32455   0.33030   0.33389
 Alpha virt. eigenvalues --    0.33979   0.34101   0.34257   0.34831   0.34926
 Alpha virt. eigenvalues --    0.35598   0.35845   0.36649   0.37102   0.37226
 Alpha virt. eigenvalues --    0.37586   0.37989   0.38237   0.38364   0.38840
 Alpha virt. eigenvalues --    0.39230   0.39621   0.40350   0.40630   0.41172
 Alpha virt. eigenvalues --    0.41211   0.42132   0.42609   0.43025   0.43156
 Alpha virt. eigenvalues --    0.43545   0.44100   0.44305   0.45061   0.45268
 Alpha virt. eigenvalues --    0.45495   0.45581   0.46517   0.47500   0.47805
 Alpha virt. eigenvalues --    0.48882   0.49194   0.49563   0.49781   0.49810
 Alpha virt. eigenvalues --    0.50253   0.51109   0.51831   0.52973   0.53464
 Alpha virt. eigenvalues --    0.54702   0.54783   0.55272   0.56032   0.56254
 Alpha virt. eigenvalues --    0.56752   0.57683   0.58097   0.58864   0.60247
 Alpha virt. eigenvalues --    0.60510   0.60848   0.61447   0.62568   0.63299
 Alpha virt. eigenvalues --    0.63448   0.64441   0.64873   0.65214   0.65846
 Alpha virt. eigenvalues --    0.66452   0.66614   0.67378   0.67922   0.68729
 Alpha virt. eigenvalues --    0.69745   0.70087   0.70463   0.70792   0.71225
 Alpha virt. eigenvalues --    0.71496   0.71993   0.72073   0.72566   0.73066
 Alpha virt. eigenvalues --    0.73705   0.74039   0.74329   0.74493   0.75187
 Alpha virt. eigenvalues --    0.75804   0.76119   0.77406   0.77467   0.77666
 Alpha virt. eigenvalues --    0.78172   0.78551   0.80045   0.80223   0.81250
 Alpha virt. eigenvalues --    0.82690   0.83646   0.85369   0.87334   0.88172
 Alpha virt. eigenvalues --    0.89978   0.90519   0.90894   0.92756   0.94438
 Alpha virt. eigenvalues --    0.95139   0.96489   0.97280   0.99033   0.99391
 Alpha virt. eigenvalues --    1.02186   1.03298   1.03501   1.04717   1.04818
 Alpha virt. eigenvalues --    1.05022   1.06717   1.06902   1.07316   1.09053
 Alpha virt. eigenvalues --    1.10910   1.11467   1.11681   1.12317   1.13207
 Alpha virt. eigenvalues --    1.14133   1.14400   1.15344   1.15366   1.17233
 Alpha virt. eigenvalues --    1.19060   1.19344   1.21282   1.22255   1.22894
 Alpha virt. eigenvalues --    1.23447   1.23672   1.24724   1.25197   1.25777
 Alpha virt. eigenvalues --    1.27180   1.32833   1.33059   1.34757   1.36337
 Alpha virt. eigenvalues --    1.36641   1.39015   1.39379   1.40327   1.41143
 Alpha virt. eigenvalues --    1.41669   1.42309   1.42341   1.44388   1.45148
 Alpha virt. eigenvalues --    1.45272   1.46201   1.46739   1.47268   1.47983
 Alpha virt. eigenvalues --    1.49013   1.50669   1.51521   1.51711   1.51896
 Alpha virt. eigenvalues --    1.52483   1.53957   1.54927   1.55572   1.55973
 Alpha virt. eigenvalues --    1.56718   1.57957   1.58266   1.58591   1.59054
 Alpha virt. eigenvalues --    1.60327   1.60644   1.60981   1.61730   1.61875
 Alpha virt. eigenvalues --    1.62827   1.63138   1.63150   1.63723   1.64771
 Alpha virt. eigenvalues --    1.64907   1.67644   1.68767   1.69415   1.70543
 Alpha virt. eigenvalues --    1.72465   1.72750   1.74329   1.74379   1.76365
 Alpha virt. eigenvalues --    1.76655   1.78045   1.78651   1.78716   1.79010
 Alpha virt. eigenvalues --    1.79883   1.81484   1.82214   1.83149   1.84007
 Alpha virt. eigenvalues --    1.84939   1.85206   1.85918   1.86956   1.87939
 Alpha virt. eigenvalues --    1.88659   1.90599   1.91223   1.91951   1.95143
 Alpha virt. eigenvalues --    1.95656   1.96700   1.97230   1.99213   1.99905
 Alpha virt. eigenvalues --    2.01149   2.05464   2.05890   2.07596   2.10156
 Alpha virt. eigenvalues --    2.10994   2.11327   2.14323   2.16381   2.16980
 Alpha virt. eigenvalues --    2.19734   2.19962   2.21636   2.22919   2.26744
 Alpha virt. eigenvalues --    2.27702   2.33977   2.36200   2.39693   2.40829
 Alpha virt. eigenvalues --    2.41994   2.45111   2.50073   2.50138   2.52760
 Alpha virt. eigenvalues --    2.53165   2.55237   2.55910   2.57103   2.57396
 Alpha virt. eigenvalues --    2.58018   2.58883   2.61296   2.62907   2.64722
 Alpha virt. eigenvalues --    2.66544   2.67416   2.68171   2.70261   2.73279
 Alpha virt. eigenvalues --    2.73978   2.76232   2.80791   2.81431   2.83211
 Alpha virt. eigenvalues --    2.85420   2.89105   2.92349   2.93631   2.93947
 Alpha virt. eigenvalues --    2.95098   2.96721   2.97522   2.97809   2.98196
 Alpha virt. eigenvalues --    2.98427   2.99767   3.00111   3.00824   3.01594
 Alpha virt. eigenvalues --    3.03574   3.04103   3.07448   3.07829   3.08758
 Alpha virt. eigenvalues --    3.10286   3.10924   3.11466   3.17799   3.17934
 Alpha virt. eigenvalues --    3.19655   3.19902   3.21445   3.22503   3.23872
 Alpha virt. eigenvalues --    3.26258   3.27156   3.29166   3.30467   3.31796
 Alpha virt. eigenvalues --    3.33570   3.33916   3.36421   3.38014   3.40294
 Alpha virt. eigenvalues --    3.41047   3.42405   3.43504   3.45040   3.50249
 Alpha virt. eigenvalues --    3.52480   3.60583   3.69116   3.70408   3.72148
 Alpha virt. eigenvalues --    3.73263   3.76360   3.80177   3.80189   3.81182
 Alpha virt. eigenvalues --    3.83582   3.83896   3.84380   3.84590   3.84896
 Alpha virt. eigenvalues --    3.86084   3.86247   3.87287   3.87918   3.88174
 Alpha virt. eigenvalues --    3.88509   3.90076   3.93154   3.97525   3.97625
 Alpha virt. eigenvalues --    3.98070   3.98654   4.00415   4.01746   4.02729
 Alpha virt. eigenvalues --    4.07632   4.09466   4.15100   4.16276   4.16505
 Alpha virt. eigenvalues --    4.18235   4.19013   4.20303   4.20938   4.21163
 Alpha virt. eigenvalues --    4.23465   4.25915   4.50732   4.67311   4.74160
 Alpha virt. eigenvalues --    4.79757   4.92248   4.93586   4.95559   4.96351
 Alpha virt. eigenvalues --    5.05598   5.10641   5.15857   5.16954   5.20607
 Alpha virt. eigenvalues --    5.36726   5.38543   5.40053   5.47368   5.67775
 Alpha virt. eigenvalues --    5.81044   5.97603   5.99615   6.39804   6.43808
 Alpha virt. eigenvalues --    6.46680   6.48730   6.50839   6.51088   6.52137
 Alpha virt. eigenvalues --    6.53099   6.55648   6.57593   6.58851   6.61262
 Alpha virt. eigenvalues --    6.62082   6.64584   6.80087   6.82388   6.84794
 Alpha virt. eigenvalues --    6.87070  23.42656  23.57396  23.59081  23.61911
 Alpha virt. eigenvalues --   23.62104  23.74397  23.80853  23.81287  23.89273
 Alpha virt. eigenvalues --   23.90677  23.91964  23.93656  24.03420  24.06160
 Alpha virt. eigenvalues --   24.16657  35.65326  50.02107  50.04360  50.13066
 Alpha virt. eigenvalues --   50.14195  66.86053  66.89037  66.89818  66.91793
 Alpha virt. eigenvalues --   66.95486  66.97860
          Condensed to atoms (all electrons):
               1          2          3          4          5          6
     1  C   29.476310  -0.296278   0.132476  -0.000156  -0.269774  -0.561614
     2  N   -0.296278   7.715782   0.281267  -0.061796  -0.205760  -0.378324
     3  C    0.132476   0.281267   9.171694   0.638654   0.267778  -0.744986
     4  O   -0.000156  -0.061796   0.638654   8.188710  -0.191459  -0.174200
     5  O   -0.269774  -0.205760   0.267778  -0.191459   8.446093   0.382547
     6  C   -0.561614  -0.378324  -0.744986  -0.174200   0.382547   8.439442
     7  C   -0.003607   0.037251   0.250646   0.030031  -0.164063  -0.961817
     8  C   -0.019876  -0.011964  -0.283231  -0.002078   0.029410   0.361786
     9  C   -4.625489   0.177709  -0.837132   0.141190  -0.095554  -0.450565
    10  C    1.852207   0.064104  -0.070962  -0.029113  -0.004260  -0.053416
    11  C    1.289627  -0.148832  -2.187199  -0.030780  -0.026883  -0.179813
    12  C  -15.200120   0.192199   0.064941  -0.017161   0.013336   0.021042
    13  C   -1.283396   0.035030  -1.162221  -0.052428  -0.014894  -0.128554
    14  H   -0.017622   0.121650   0.038517   0.000794   0.025923   0.012100
    15  H    0.004930   0.002787   0.018233   0.000642  -0.048908   0.390929
    16  H    0.006603   0.003096   0.024933   0.000919  -0.049793   0.382488
    17  H   -0.000378  -0.000816  -0.000275  -0.000316   0.002039  -0.059013
    18  H   -0.000184  -0.000681   0.001786  -0.000306   0.001974  -0.060776
    19  H   -0.000091  -0.000034  -0.001186  -0.000065  -0.000274  -0.045408
    20  H    0.000144   0.000043   0.009110   0.000025  -0.000699   0.085257
    21  H   -0.000113  -0.000037  -0.001657  -0.000062  -0.000264  -0.044907
    22  H    0.075880  -0.025478   0.075478   0.008413   0.002905   0.009983
    23  H    0.117163  -0.017953   0.001681   0.000137   0.000015   0.000261
    24  C   -2.948354  -0.010510  -0.404646  -0.003045  -0.000276  -0.011165
    25  C   -1.404622   0.034673   0.475613  -0.002511   0.004675   0.034664
    26  H    0.044904  -0.001336   0.003736  -0.000010  -0.000005   0.000032
    27  F    0.034297  -0.000077   0.000455   0.000001   0.000000   0.000002
    28  F    0.029674  -0.000063  -0.000797  -0.000000   0.000000  -0.000007
    29  F    0.027351  -0.000069  -0.000678  -0.000000   0.000000  -0.000006
    30  F    0.055849   0.001021   0.009175  -0.000707  -0.000036   0.000280
    31  F   -0.008629   0.000374  -0.001938   0.000031   0.000001  -0.000030
    32  F   -0.003737   0.000354  -0.001708   0.000037   0.000001  -0.000032
    33  O    0.058363  -0.010099   0.007690  -0.000032   0.000081  -0.001092
    34  O    0.031958  -0.007863  -0.012708   0.000228   0.009767  -0.008600
    35  C   -0.090392  -0.008334   0.021097   0.000319  -0.000819   0.006312
    36  C    0.143280  -0.016289   0.023684   0.000419   0.000752   0.006551
    37  C   -0.002039  -0.000278  -0.004301  -0.000127  -0.001043  -0.000270
    38  H   -0.000319   0.000048  -0.000010  -0.000000   0.000004  -0.000029
    39  H   -0.000152   0.000068  -0.000041  -0.000000   0.000003  -0.000026
    40  H    0.000111   0.000208  -0.000080   0.000001  -0.000001  -0.000002
    41  H   -0.000051  -0.000047   0.000036  -0.000000   0.000001  -0.000004
    42  H   -0.000037   0.000176   0.000028   0.000000   0.000001  -0.000054
               7          8          9         10         11         12
     1  C   -0.003607  -0.019876  -4.625489   1.852207   1.289627 -15.200120
     2  N    0.037251  -0.011964   0.177709   0.064104  -0.148832   0.192199
     3  C    0.250646  -0.283231  -0.837132  -0.070962  -2.187199   0.064941
     4  O    0.030031  -0.002078   0.141190  -0.029113  -0.030780  -0.017161
     5  O   -0.164063   0.029410  -0.095554  -0.004260  -0.026883   0.013336
     6  C   -0.961817   0.361786  -0.450565  -0.053416  -0.179813   0.021042
     7  C    6.434153  -0.237346   0.029668   0.000633   0.003415  -0.001115
     8  C   -0.237346   6.289855  -0.014347  -0.000836  -0.001524   0.000359
     9  C    0.029668  -0.014347  15.121272  -1.080498  -7.439720   5.647082
    10  C    0.000633  -0.000836  -1.080498  38.993651 -12.924371  -4.171004
    11  C    0.003415  -0.001524  -7.439720 -12.924371  45.776843 -10.643329
    12  C   -0.001115   0.000359   5.647082  -4.171004 -10.643329  31.055878
    13  C    0.009697  -0.001182  -3.168126  -7.797491   3.089588  -1.606219
    14  H   -0.001521  -0.000099  -0.012728   0.009704  -0.016907   0.026252
    15  H   -0.029225  -0.013937  -0.002261   0.000239   0.000013   0.000036
    16  H   -0.028204  -0.014646  -0.001856   0.000272   0.000057  -0.000033
    17  H    0.447802  -0.057759   0.000025   0.000006   0.000004   0.000013
    18  H    0.448293  -0.059167   0.000121   0.000005   0.000008   0.000011
    19  H    0.016399   0.369501   0.000026  -0.000000   0.000000   0.000000
    20  H   -0.130174   0.382980   0.000041   0.000000   0.000001  -0.000001
    21  H    0.016571   0.369487   0.000024  -0.000000   0.000000   0.000000
    22  H   -0.000755   0.000077   0.307391  -0.015109  -0.017620  -0.062743
    23  H   -0.000066   0.000005  -0.025538   0.009094  -0.031173  -0.134468
    24  C   -0.000039  -0.000043  -2.457749   4.295963  -4.610479  -3.715743
    25  C   -0.000798   0.000261   4.605089 -11.138090  -4.858826   3.595425
    26  H    0.000001   0.000000  -0.011548   0.040758   0.085242   0.275113
    27  F   -0.000000  -0.000000   0.067765  -0.266650  -0.068432   0.127286
    28  F   -0.000000  -0.000000  -0.003770  -0.107942   0.291411  -0.141326
    29  F   -0.000000  -0.000000  -0.000511  -0.097529   0.286969  -0.131548
    30  F    0.000006  -0.000000   0.109981  -0.443476   0.040927   0.013486
    31  F   -0.000000   0.000000  -0.078458   0.203246  -0.062568   0.006918
    32  F   -0.000000  -0.000000  -0.071077   0.195532  -0.068235   0.006051
    33  O    0.000325  -0.000017  -0.001350   0.003559   0.019994  -0.060294
    34  O    0.003406   0.000311   0.012395   0.001568   0.002799   0.014630
    35  C   -0.001944  -0.000815  -0.035440  -0.022140  -0.033636   0.074524
    36  C    0.000241   0.001663  -0.032906  -0.010867   0.003923  -0.145190
    37  C    0.000069  -0.001067  -0.000324   0.000109  -0.002126   0.003298
    38  H    0.000018  -0.000000   0.000007  -0.000003  -0.000063  -0.000129
    39  H    0.000016  -0.000000  -0.000003  -0.000001  -0.000064  -0.000339
    40  H    0.000170   0.000084  -0.000023  -0.000005   0.000000  -0.000159
    41  H   -0.000024  -0.000005   0.000005   0.000001   0.000000   0.000076
    42  H    0.000180   0.000071  -0.000009  -0.000006   0.000002  -0.000119
              13         14         15         16         17         18
     1  C   -1.283396  -0.017622   0.004930   0.006603  -0.000378  -0.000184
     2  N    0.035030   0.121650   0.002787   0.003096  -0.000816  -0.000681
     3  C   -1.162221   0.038517   0.018233   0.024933  -0.000275   0.001786
     4  O   -0.052428   0.000794   0.000642   0.000919  -0.000316  -0.000306
     5  O   -0.014894   0.025923  -0.048908  -0.049793   0.002039   0.001974
     6  C   -0.128554   0.012100   0.390929   0.382488  -0.059013  -0.060776
     7  C    0.009697  -0.001521  -0.029225  -0.028204   0.447802   0.448293
     8  C   -0.001182  -0.000099  -0.013937  -0.014646  -0.057759  -0.059167
     9  C   -3.168126  -0.012728  -0.002261  -0.001856   0.000025   0.000121
    10  C   -7.797491   0.009704   0.000239   0.000272   0.000006   0.000005
    11  C    3.089588  -0.016907   0.000013   0.000057   0.000004   0.000008
    12  C   -1.606219   0.026252   0.000036  -0.000033   0.000013   0.000011
    13  C   20.982179  -0.044535   0.000422   0.000075   0.000144   0.000129
    14  H   -0.044535   0.258341   0.000005   0.000012  -0.000018  -0.000012
    15  H    0.000422   0.000005   0.445223  -0.040596   0.005112  -0.007923
    16  H    0.000075   0.000012  -0.040596   0.446066  -0.007974   0.005123
    17  H    0.000144  -0.000018   0.005112  -0.007974   0.439908  -0.033297
    18  H    0.000129  -0.000012  -0.007923   0.005123  -0.033297   0.440263
    19  H    0.000006  -0.000000  -0.000577   0.003672  -0.007644   0.006069
    20  H   -0.000008  -0.000000  -0.000143  -0.000146  -0.003548  -0.003562
    21  H    0.000006  -0.000000   0.003655  -0.000597   0.006071  -0.007641
    22  H   -0.057494  -0.000117  -0.000032  -0.000028  -0.000000  -0.000000
    23  H    0.320703   0.010492  -0.000000  -0.000000  -0.000000  -0.000000
    24  C   -1.644053   0.000494  -0.000001  -0.000001   0.000000   0.000000
    25  C   -1.344833  -0.000136   0.000018  -0.000016   0.000000  -0.000000
    26  H   -0.157097   0.000011  -0.000000  -0.000000  -0.000000  -0.000000
    27  F    0.032545   0.000000  -0.000000  -0.000000  -0.000000  -0.000000
    28  F    0.072134   0.000000  -0.000000   0.000000  -0.000000   0.000000
    29  F    0.052162   0.000000   0.000000  -0.000000   0.000000  -0.000000
    30  F    0.006536   0.000001   0.000000   0.000000   0.000000   0.000000
    31  F    0.021025  -0.000000   0.000000  -0.000000   0.000000  -0.000000
    32  F    0.019905  -0.000000  -0.000000   0.000000  -0.000000  -0.000000
    33  O   -0.022678   0.017642   0.000000   0.000000  -0.000000  -0.000000
    34  O   -0.067234   0.050455   0.000010  -0.000006   0.000001  -0.000026
    35  C    0.085864  -0.004165   0.000012   0.000034   0.000204   0.000185
    36  C   -0.065945   0.011914  -0.000009   0.000001  -0.000335  -0.000367
    37  C    0.003648   0.000497   0.000010   0.000013   0.000240   0.000320
    38  H    0.000819  -0.000000   0.000000   0.000000   0.000000  -0.000000
    39  H    0.000941  -0.000005   0.000000   0.000000  -0.000000   0.000000
    40  H   -0.000182  -0.000119   0.000000  -0.000000  -0.000014  -0.000007
    41  H    0.000124   0.000016  -0.000000  -0.000000   0.000000   0.000000
    42  H   -0.000137  -0.000107   0.000000   0.000000  -0.000005  -0.000016
              19         20         21         22         23         24
     1  C   -0.000091   0.000144  -0.000113   0.075880   0.117163  -2.948354
     2  N   -0.000034   0.000043  -0.000037  -0.025478  -0.017953  -0.010510
     3  C   -0.001186   0.009110  -0.001657   0.075478   0.001681  -0.404646
     4  O   -0.000065   0.000025  -0.000062   0.008413   0.000137  -0.003045
     5  O   -0.000274  -0.000699  -0.000264   0.002905   0.000015  -0.000276
     6  C   -0.045408   0.085257  -0.044907   0.009983   0.000261  -0.011165
     7  C    0.016399  -0.130174   0.016571  -0.000755  -0.000066  -0.000039
     8  C    0.369501   0.382980   0.369487   0.000077   0.000005  -0.000043
     9  C    0.000026   0.000041   0.000024   0.307391  -0.025538  -2.457749
    10  C   -0.000000   0.000000  -0.000000  -0.015109   0.009094   4.295963
    11  C    0.000000   0.000001   0.000000  -0.017620  -0.031173  -4.610479
    12  C    0.000000  -0.000001   0.000000  -0.062743  -0.134468  -3.715743
    13  C    0.000006  -0.000008   0.000006  -0.057494   0.320703  -1.644053
    14  H   -0.000000  -0.000000  -0.000000  -0.000117   0.010492   0.000494
    15  H   -0.000577  -0.000143   0.003655  -0.000032  -0.000000  -0.000001
    16  H    0.003672  -0.000146  -0.000597  -0.000028  -0.000000  -0.000001
    17  H   -0.007644  -0.003548   0.006071  -0.000000  -0.000000   0.000000
    18  H    0.006069  -0.003562  -0.007641  -0.000000  -0.000000   0.000000
    19  H    0.449650  -0.023242  -0.034445  -0.000000  -0.000000   0.000000
    20  H   -0.023242   0.425908  -0.023230   0.000000   0.000000   0.000000
    21  H   -0.034445  -0.023230   0.449660  -0.000000  -0.000000  -0.000000
    22  H   -0.000000   0.000000  -0.000000   0.341984   0.000101   0.005432
    23  H   -0.000000   0.000000  -0.000000   0.000101   0.315219  -0.006442
    24  C    0.000000   0.000000  -0.000000   0.005432  -0.006442  19.470666
    25  C   -0.000000  -0.000000  -0.000000   0.003897  -0.002454  -3.263833
    26  H    0.000000   0.000000   0.000000   0.000035  -0.002974   0.034874
    27  F   -0.000000   0.000000  -0.000000   0.000064   0.000015  -0.024130
    28  F    0.000000   0.000000  -0.000000   0.000017   0.000004   0.030322
    29  F   -0.000000   0.000000  -0.000000   0.000017   0.000017   0.028508
    30  F    0.000000  -0.000000   0.000000   0.014273  -0.000012  -0.026647
    31  F   -0.000000  -0.000000  -0.000000  -0.000073  -0.000007   0.039952
    32  F   -0.000000  -0.000000  -0.000000  -0.000058  -0.000006   0.032177
    33  O    0.000000   0.000000   0.000000  -0.000030   0.004578   0.003899
    34  O    0.000001   0.000001   0.000001   0.000008   0.008080   0.000395
    35  C   -0.000000  -0.000001   0.000000   0.000223   0.000228  -0.008412
    36  C   -0.000004   0.000005  -0.000004   0.000035   0.012428  -0.003421
    37  C    0.000005  -0.000012   0.000005   0.000001   0.000551  -0.000008
    38  H    0.000000  -0.000000   0.000000  -0.000000  -0.000057  -0.000000
    39  H    0.000000  -0.000000   0.000000   0.000000  -0.000042  -0.000000
    40  H   -0.000000   0.000000  -0.000000   0.000000   0.000001  -0.000000
    41  H    0.000000  -0.000000   0.000000  -0.000000  -0.000002   0.000000
    42  H   -0.000000   0.000000  -0.000000   0.000000  -0.000000  -0.000000
              25         26         27         28         29         30
     1  C   -1.404622   0.044904   0.034297   0.029674   0.027351   0.055849
     2  N    0.034673  -0.001336  -0.000077  -0.000063  -0.000069   0.001021
     3  C    0.475613   0.003736   0.000455  -0.000797  -0.000678   0.009175
     4  O   -0.002511  -0.000010   0.000001  -0.000000  -0.000000  -0.000707
     5  O    0.004675  -0.000005   0.000000   0.000000   0.000000  -0.000036
     6  C    0.034664   0.000032   0.000002  -0.000007  -0.000006   0.000280
     7  C   -0.000798   0.000001  -0.000000  -0.000000  -0.000000   0.000006
     8  C    0.000261   0.000000  -0.000000  -0.000000  -0.000000  -0.000000
     9  C    4.605089  -0.011548   0.067765  -0.003770  -0.000511   0.109981
    10  C  -11.138090   0.040758  -0.266650  -0.107942  -0.097529  -0.443476
    11  C   -4.858826   0.085242  -0.068432   0.291411   0.286969   0.040927
    12  C    3.595425   0.275113   0.127286  -0.141326  -0.131548   0.013486
    13  C   -1.344833  -0.157097   0.032545   0.072134   0.052162   0.006536
    14  H   -0.000136   0.000011   0.000000   0.000000   0.000000   0.000001
    15  H    0.000018  -0.000000  -0.000000  -0.000000   0.000000   0.000000
    16  H   -0.000016  -0.000000  -0.000000   0.000000  -0.000000   0.000000
    17  H    0.000000  -0.000000  -0.000000  -0.000000   0.000000   0.000000
    18  H   -0.000000  -0.000000  -0.000000   0.000000  -0.000000   0.000000
    19  H   -0.000000   0.000000  -0.000000   0.000000  -0.000000   0.000000
    20  H   -0.000000   0.000000   0.000000   0.000000   0.000000  -0.000000
    21  H   -0.000000   0.000000  -0.000000  -0.000000  -0.000000   0.000000
    22  H    0.003897   0.000035   0.000064   0.000017   0.000017   0.014273
    23  H   -0.002454  -0.002974   0.000015   0.000004   0.000017  -0.000012
[...]
 0000409,0.00000635,-0.00000350,-0.00000890,-0.00000309,0.00003886,-0.0
 0000278,-0.00001506,-0.00000250,0.00046319,-0.00014065,0.00000051,0.00
 000038,-0.00000037,-0.00000711,-0.00000518,-0.00000250,-0.00000479,-0.
 00000086,-0.00000330,0.00000121,0.00000013,0.00000134,-0.00000080,0.00
 000019,0.00000060,0.00000056,0.00000002,-0.00000010,-0.00000013,0.0000
 0030,0.00000002,-0.00000067,0.00000111,-0.00000071,-0.00003536,0.00000
 470,-0.00001268,-0.00000859,-0.00000387,-0.00000618,0.00000035,0.00000
 127,-0.00000379,0.00000144,0.00000101,0.00000109,0.00000171,0.00000064
 ,0.00000060,0.00000244,0.00000090,-0.00000070,0.00000258,-0.00000093,0
 .00000349,0.00000014,-0.00000012,0.00000125,0.00000012,-0.00000051,-0.
 00000054,0.00000098,-0.00000085,0.00000127,0.00154567,-0.00124136,0.00
 157612,0.00047184,-0.00493962,-0.00841320,-0.03111555,-0.00277795,-0.0
 0911812,-0.09263224,-0.01687498,-0.08675676,0.01705250,0.00350876,0.00
 619647,0.09933963,0.01878792,0.09550025,-0.00006079,0.00001751,-0.0000
 1149,0.00000950,-0.00007856,-0.00004610,0.00006778,0.00001448,0.000002
 86,-0.00000924,-0.00000378,0.00000361,-0.00000762,0.00002152,0.0000106
 3,0.00000048,-0.00000228,-0.00000453,-0.00000269,-0.00000649,0.0000011
 8,-0.00000056,0.00000350,0.00000130,0.00000386,0.00000285,0.00001036,-
 0.00000103,-0.00000125,-0.00000357,0.00000434,-0.00000122,0.00000250,0
 .00000270,-0.00000189,-0.00002269,0.00000192,0.00000568,0.00001954,0.0
 0000872,0.00006617,0.00002716,-0.00000088,0.00000108,0.00000038,-0.000
 00111,-0.00000332,0.00000138,0.00000554,0.00001133,-0.00000046,0.00000
 085,0.00000100,0.00000065,-0.00000058,-0.00000033,-0.00000059,0.000000
 68,-0.00000046,-0.00000002,0.00000130,0.00000074,-0.00000048,-0.000000
 49,0.00000142,0.00000009,0.00000306,-0.00003066,-0.00000118,-0.0000040
 3,-0.00000053,0.00000028,0.00000059,0.00000033,-0.00000088,0.00000228,
 -0.00000194,-0.00000092,0.00000019,0.00000006,0.00000032,0.00000174,0.
 00000124,0.00000110,0.00000092,0.00000075,0.00000113,0.00000032,-0.000
 00045,-0.00000027,0.00000006,-0.00000030,0.00000004,0.00000022,-0.0000
 0022,0.00000048,0.00039264,-0.00098906,0.00172314,-0.00054026,0.000112
 78,-0.00024938,-0.00231573,0.00121066,-0.00061131,-0.12444460,0.121331
 48,0.01869168,0.00879981,-0.01430375,-0.00176378,-0.01586306,0.0240106
 9,0.00481512,0.13296663,-0.00013927,0.00006183,0.00000399,0.00000912,-
 0.00017103,-0.00011121,0.00018993,0.00013646,-0.00001064,-0.00002513,-
 0.00002928,0.00002583,-0.00005784,-0.00001000,-0.00000537,0.00003285,0
 .00000300,-0.00001469,-0.00000130,-0.00000357,0.00000402,-0.00000015,0
 .00000240,-0.00000265,0.00000776,-0.00000270,0.00000624,0.00000169,-0.
 00000779,0.00000469,0.00001877,-0.00001417,-0.00000155,-0.00001516,0.0
 0000553,-0.00000386,0.00001419,0.00000638,-0.00001309,0.00000786,0.000
 07928,0.00011857,-0.00000551,0.00000005,0.00000333,0.00000073,0.000000
 02,0.00000540,-0.00000170,-0.00000317,-0.00000178,-0.00000019,0.000000
 18,-0.00000119,-0.00000037,-0.00000070,0.00000121,-0.00000234,0.000000
 77,0.00000006,0.00000044,0.00000065,0.00000040,0.00000098,0.00000193,0
 .00000092,-0.00000952,-0.00002432,0.00001112,-0.00003155,0.00000973,-0
 .00000044,-0.00000249,0.00002653,-0.00000223,0.00000235,-0.00000048,0.
 00000078,0.00000767,-0.00000804,-0.00000103,0.00000867,0.00000227,-0.0
 0000115,0.00000859,-0.00000233,0.00000618,-0.00000205,-0.00000707,0.00
 000133,0.00000253,-0.00001003,-0.00000380,0.00000329,-0.00000595,0.000
 00403,-0.00088806,0.00046637,0.00032633,-0.00050122,0.00083129,-0.0015
 5104,0.00307239,-0.00619665,-0.00141828,0.12074126,-0.22335953,-0.0281
 2435,0.01331220,-0.02183011,-0.00203645,-0.00304230,0.00551885,0.00158
 173,-0.13003356,0.24509283,0.00004451,-0.00005798,-0.00002689,-0.00001
 273,-0.00004668,0.00014121,-0.00000122,-0.00007755,-0.00008768,-0.0000
 1118,-0.00000642,0.00003553,-0.00000670,0.00000903,0.00000374,-0.00000
 391,-0.00000008,-0.00000015,0.00000049,0.00000072,0.00000022,-0.000000
 11,-0.00000007,0.00000055,0.00000390,-0.00000216,0.00000846,0.00000069
 ,-0.00000366,0.00000327,0.00000476,-0.00000458,-0.00000220,-0.00000584
 ,-0.00001893,-0.00000530,0.00000881,0.00002952,0.00000250,-0.00000516,
 0.00040153,-0.00002723,0.00000021,0.00000036,0.00000021,-0.00000279,-0
 .00000121,-0.00000249,0.00000160,0.00000324,0.00000092,0.00000095,0.00
 000044,0.00000026,0.00000052,0.00000019,-0.00000013,-0.00000029,-0.000
 00019,-0.00000006,0.00000042,0.00000031,-0.00000066,-0.00000043,-0.000
 00172,-0.00000085,-0.00006575,0.00006869,0.00001502,-0.00000169,-0.000
 00004,0.00000025,0.00000084,0.00000481,-0.00000441,0.00000137,-0.00000
 111,-0.00000120,0.00000118,-0.00000063,0.00000015,0.00000007,0.0000003
 0,0.00000061,0.00000050,0.00000084,0.00000159,-0.00000128,-0.00000159,
 0.00000060,-0.00000004,-0.00000159,0.00000033,0.00000104,-0.00000139,0
 .00000148,-0.00216342,0.00440745,-0.00228871,-0.00412841,0.00239202,-0
 .00369035,0.02236125,-0.03067474,-0.00134797,0.02231254,-0.03371479,-0
 .05040054,-0.00978872,0.01509375,0.00127001,-0.00701609,0.01135792,0.0
 0150802,-0.02299582,0.02925998,0.05464507,0.00103287,-0.00008418,0.000
 46075,-0.00024482,0.00102014,0.00076820,-0.00112101,-0.00110992,-0.000
 28089,0.00011603,0.00018824,-0.00014494,0.00022999,0.00000652,0.000020
 52,-0.00015576,-0.00000249,0.00006670,0.00001759,0.00003992,-0.0000203
 5,0.00000301,-0.00001720,0.00000937,-0.00009397,0.00005468,-0.00012318
 ,0.00007310,0.00004351,-0.00004233,-0.00007241,-0.00005576,0.00002295,
 -0.00009945,0.00003858,-0.00000141,-0.00029891,0.00005565,0.00017836,-
 0.00004759,0.00013528,-0.00055122,0.00003016,0.00000119,-0.00001343,0.
 00000577,0.00001135,-0.00000542,0.00000862,-0.00001666,0.00000310,-0.0
 0000035,-0.00000774,0.00000253,0.00000049,0.00000175,-0.00000164,0.000
 00706,0.00000010,-0.00000263,-0.00000123,-0.00000032,0.00000112,-0.000
 00284,-0.00001209,0.00000884,0.00002230,-0.00002943,0.00005569,0.00006
 697,-0.00002051,0.00000601,0.00000673,-0.00004716,0.00001747,-0.000006
 23,0.00000216,0.00000506,-0.00001368,0.00001206,-0.00000002,-0.0000206
 2,-0.00000574,0.00000388,-0.00001448,0.00000052,-0.00001649,0.00000057
 ,0.00001272,-0.00000448,-0.00000319,0.00002091,0.00000981,-0.00000924,
 0.00001035,-0.00001057,-0.00025124,-0.00002553,-0.00017766,0.00005175,
 -0.00031788,0.00003997,0.00069745,0.00065895,-0.00047626,0.00942107,-0
 .01404796,-0.00158426,-0.13368730,0.12584972,0.00953872,0.00081382,0.0
 0065740,-0.00069488,-0.00027110,-0.00285262,0.00205474,0.14081315,-0.0
 0046944,-0.00031013,-0.00089896,0.00009241,-0.00162156,-0.00152243,0.0
 0005360,-0.00017875,-0.00048306,0.00015234,0.00016901,0.00008932,0.000
 18737,0.00020481,0.00022248,-0.00003024,0.00001679,0.00001858,0.000002
 38,0.00000369,-0.00000627,-0.00000012,-0.00000075,0.00000221,-0.000021
 09,0.00007456,0.00018100,-0.00000864,-0.00005663,0.00003319,-0.0000543
 0,0.00011211,-0.00002405,0.00013318,-0.00007761,0.00000793,0.00011447,
 0.00001531,-0.00003471,0.00001605,-0.00004382,0.00019441,0.00001009,-0
 .00000231,-0.00000499,0.00001275,0.00000806,0.00001402,0.00000231,-0.0
 0000029,0.00000271,0.00000004,-0.00000388,0.00000022,0.00000009,0.,-0.
 00000036,0.00000066,-0.00000019,-0.00000063,0.00000021,0.00000062,0.00
 000043,-0.00000360,-0.00000195,0.00000271,-0.00000351,0.00002299,0.000
 01175,0.00006122,-0.00000814,0.00002200,-0.00000321,-0.00000399,0.0000
 0394,-0.00000557,-0.00000308,-0.00000687,-0.00001214,0.00000968,-0.000
 00295,-0.00001367,-0.00000603,0.00000136,-0.00002039,0.00000319,-0.000
 01873,-0.00000071,0.00000867,-0.00000241,0.00000329,-0.00000402,-0.000
 00072,-0.00000110,0.00000198,-0.00000379,-0.00048110,-0.00014794,0.000
 79753,0.00037120,0.00051828,0.00085281,0.00024780,0.00002215,-0.002446
 46,0.01353614,-0.02042693,-0.00122829,0.12412659,-0.22778668,-0.014954
 87,-0.00010515,0.00092547,-0.00061450,-0.00276509,-0.00288951,0.003017
 27,-0.13461431,0.25045785,0.00063210,-0.00072473,-0.00056325,0.0000151
 0,-0.00046844,-0.00063645,-0.00107863,-0.00087731,0.00011496,0.0001883
 6,0.00033464,-0.00022651,0.00038958,0.00007156,0.00006994,-0.00014420,
 -0.00000433,0.00007651,0.00001500,0.00002341,-0.00002194,0.00000208,-0
 .00001229,0.00000704,0.00000495,0.00001188,0.00007518,-0.00010094,0.00
 001631,-0.00000072,-0.00010200,0.00019304,-0.00006500,0.00018706,-0.00
 014502,0.00012230,0.00010096,-0.00019272,-0.00033447,-0.00011122,-0.00
 007866,-0.00080879,0.00003435,-0.00000083,-0.00001424,0.00001902,0.000
 00075,-0.00001362,0.00000370,-0.00000552,-0.00000170,-0.00000029,-0.00
 000231,0.00000110,0.00000004,-0.00000075,0.00000012,0.00000589,0.00000
 008,-0.00000299,0.00000049,0.00000004,0.00000008,-0.00000573,-0.000003
 44,-0.00000819,0.00001818,0.00006247,-0.00011136,0.00017900,-0.0000373
 7,0.00004367,0.00000056,-0.00011417,0.00002956,-0.00001355,-0.00000002
 ,-0.00001121,-0.00004101,0.00004007,-0.00000074,-0.00004364,-0.0000106
 8,-0.00000259,-0.00005332,0.00001113,-0.00005649,0.00001487,0.00002809
 ,-0.00001672,-0.00000745,0.00003815,0.00000898,-0.00001599,0.00002819,
 -0.00002695,0.00010447,-0.00021293,0.00010411,-0.00006114,-0.00056499,
 0.00026428,-0.00056855,0.00057838,0.00084984,-0.01017742,0.01427754,0.
 00047501,0.01016714,-0.01566484,-0.04861654,-0.00003317,-0.00091181,0.
 00044236,0.00158497,0.00269583,-0.00097118,-0.01328603,0.01644967,0.05
 029394,0.00016377,-0.00004746,0.00000696,0.00001950,0.00025363,0.00012
 508,-0.00037602,0.00021177,0.00003169,0.00004354,-0.00000588,0.0000114
 9,-0.00008458,-0.00042586,-0.00023905,0.00009723,0.00001417,-0.0000620
 4,-0.00000822,0.00000357,0.00000686,0.00000123,0.00000386,-0.00000282,
 0.00000508,-0.00002022,-0.00000760,-0.00000642,0.00001991,0.00000092,-
 0.00000246,0.00000208,-0.00000248,-0.00000182,-0.00000084,0.00001078,0
 .00001762,-0.00002920,-0.00003818,-0.00006936,-0.00005771,0.00000183,-
 0.00000988,-0.00000317,0.00001795,0.00001506,0.00001792,0.00003030,0.0
 0001431,0.00000084,-0.00000163,0.00000217,-0.00000080,-0.00000034,-0.0
 0000220,-0.00000206,0.00000215,-0.00000196,-0.00000017,0.00000106,-0.0
 0000112,-0.00000068,0.00000052,0.00000079,0.00000052,-0.00000158,0.000
 03103,-0.00003363,0.00000079,0.00001870,-0.00000399,0.00000736,0.00000
 300,-0.00002217,0.00000715,-0.00000192,0.00000092,0.00000068,-0.000004
 42,0.00000318,-0.00000055,-0.00000566,-0.00000110,-0.00000153,-0.00000
 548,0.00000067,-0.00000730,0.00000224,0.00000493,-0.00000280,-0.000001
 87,0.00000827,0.00000180,-0.00000399,0.00000508,-0.00000543,-0.0008034
 6,-0.00006742,0.00175367,0.00073072,0.00106090,-0.00013122,-0.00061229
 ,-0.00337002,-0.00200235,-0.00212131,0.00320616,0.01536975,-0.05065399
 ,0.00700238,0.02479733,0.00019560,0.00067624,-0.00035144,0.00045877,0.
 00018190,-0.00071322,-0.00200930,0.00323599,0.01844393,0.04973062,-0.0
 0058927,0.00026695,-0.00006355,0.00004665,-0.00079677,-0.00062466,0.00
 058696,0.00059283,-0.00026418,-0.00004704,-0.00011283,0.00019931,-0.00
 016291,-0.00013004,-0.00005390,0.00010595,0.00001467,-0.00007259,-0.00
 000547,-0.00000764,0.00001449,-0.00000016,0.00000572,-0.00000716,0.000
 05460,-0.00003904,0.00003807,-0.00002341,-0.00002471,0.00001837,0.0000
 5595,-0.00001429,0.00000187,-0.00001068,0.00001955,-0.00001277,0.00002
 529,0.00003505,0.00002768,0.00003062,-0.00019251,0.00042942,-0.0000165
 6,-0.00000279,0.00001373,-0.00000731,0.00000593,0.00001883,-0.00000237
 ,-0.00000029,0.00000045,-0.00000056,-0.00000050,-0.00000062,0.00000004
 ,0.00000120,0.00000146,-0.00000413,0.00000030,0.00000252,-0.00000111,-
 0.00000049,0.00000048,0.00000184,0.00000345,-0.00000280,-0.00000093,-0
 .00002325,-0.00000042,-0.00007669,0.00002037,-0.00002273,-0.00000376,0
 .00005585,-0.00002026,0.00000680,-0.00000158,0.00000255,0.00001715,-0.
 00001663,0.00000073,0.00002029,0.00000460,-0.00000028,0.00002209,-0.00
 000490,0.00002231,-0.00000695,-0.00001568,0.00000722,0.00000382,-0.000
 01962,-0.00000510,0.00000864,-0.00001313,0.00001327,-0.00158102,-0.000
 36885,0.00294735,0.00040785,0.00103035,0.00037863,-0.00205489,-0.00436
 237,-0.00164918,-0.00171369,0.00574199,0.02828317,0.00694660,-0.061831
 53,-0.06206356,0.00023845,0.00092048,-0.00084163,0.00079447,0.00136686
 ,-0.00061629,0.00064261,-0.00544305,-0.02584426,-0.00499430,0.06599907
 ,-0.00016087,0.00006899,-0.00001430,0.00001345,-0.00015819,0.00002389,
 0.00013573,0.00027954,-0.00009888,-0.00002568,-0.00007014,0.00008986,-
 0.00008579,-0.00015322,-0.00007069,0.00007778,-0.00000070,-0.00005646,
 -0.00000583,0.00000671,0.00000904,0.00000101,0.00000200,-0.00000797,0.
 00002566,-0.00002415,0.00001444,-0.00000102,-0.00001074,-0.00000099,0.
 00002427,-0.00001382,0.00000721,-0.00001787,0.00000609,-0.00001395,0.0
 0003140,0.00000842,-0.00000225,-0.00001393,0.00026853,0.00010390,-0.00
 000867,-0.00000267,0.00001162,-0.00000743,-0.00000213,0.00000460,0.000
 00155,-0.00000706,-0.00000793,0.00000151,-0.00000011,0.00000038,-0.000
 00073,-0.00000062,0.00000383,-0.00000319,0.00000071,0.00000130,-0.0000
 0172,-0.00000075,0.00000136,0.00000056,0.00000175,-0.00000213,-0.00002
 308,0.00002042,0.00000935,-0.00003285,0.00000828,-0.00001008,-0.000000
 21,0.00002286,-0.00000713,0.00000225,0.00000042,-0.00000015,0.00000762
 ,-0.00000721,0.00000079,0.00000828,0.00000134,0.00000047,0.00001031,-0
 .00000241,0.00001076,-0.00000302,-0.00000639,0.00000349,0.00000149,-0.
 00000748,-0.00000108,0.00000371,-0.00000615,0.00000623,0.00151416,0.00
 057095,-0.00235670,0.00022784,-0.00006287,-0.00107780,0.00016430,0.002
 18953,0.00309510,0.00034622,-0.00412006,-0.01456172,0.02518439,-0.0602
 0717,-0.30210432,0.00031004,-0.00006026,0.00054267,-0.00060541,-0.0000
 4761,0.00057147,0.00029646,-0.00075875,-0.00058592,-0.02852215,0.06461
 792,0.32642660,-0.00029912,0.00014219,-0.00006942,0.00001273,-0.000196
 28,-0.00006051,-0.00014928,0.00101851,-0.00020124,0.00001212,-0.000062
 93,0.00026971,-0.00057755,-0.00142877,-0.00091553,0.00034412,0.0000859
 5,-0.00029482,-0.00000728,-0.00005795,0.00000429,0.00000186,0.00001200
 ,-0.00001121,0.00008109,-0.00008561,0.00005448,-0.00003955,-0.00000598
 ,-0.00000231,0.00004609,0.00000406,-0.00000381,0.00000562,0.00000067,0
 .00000459,0.00001224,0.00004454,0.00004957,-0.00011295,0.00011246,0.00
 031340,-0.00001357,-0.00001691,0.00007221,0.00001828,0.00000587,0.0001
 7121,0.00006090,0.00007208,-0.00001824,0.00001153,0.00001629,-0.000011
 09,-0.00000083,-0.00000004,0.00000688,-0.00000758,0.00000062,0.0000037
 8,-0.00000103,-0.00000610,0.00000365,-0.00000019,0.00000462,-0.0000029
 6,-0.00000481,-0.00000573,-0.00001531,-0.00003293,0.00000561,-0.000015
 80,-0.00000206,0.00000557,-0.00001010,0.00000438,-0.00000130,-0.000000
 17,0.00000645,-0.00000550,0.00000166,0.00000804,0.00000382,0.00000092,
 0.00000992,-0.00000149,0.00001159,-0.00000006,-0.00000379,0.00000172,0
 .00000051,-0.00000211,0.00000054,0.00000207,-0.00000223,0.00000506,0.0
 0024969,0.00026776,0.00063138,0.00126162,0.00117381,-0.00097009,-0.001
 00012,-0.00103671,-0.00182507,-0.01201601,-0.00253746,-0.00388111,-0.2
 7271145,-0.04710967,-0.08990386,0.00042933,-0.00231513,0.00156297,0.00
 078885,-0.00001286,0.00012442,-0.01499381,-0.00374683,-0.00626751,0.00
 523676,0.00128655,0.00112945,0.29336600,0.00036220,-0.00015147,0.00009
 467,-0.00021377,0.00036370,0.00038432,-0.00001765,-0.00122731,-0.00041
 272,0.00001429,0.00024695,0.00004124,-0.00048677,-0.00083039,-0.000740
 04,-0.00018965,-0.00006973,-0.00005659,0.00003032,0.00005362,0.0000105
 3,0.00000356,-0.00001520,0.00000894,-0.00006552,0.00008189,-0.00007705
 ,0.00006742,0.00000610,0.00001181,-0.00005621,-0.00002441,0.00001077,-
 0.00002419,0.00002049,-0.00002106,-0.00000455,-0.00005000,-0.00002244,
 -0.00000580,0.00007711,-0.00020358,0.00004035,0.00000324,0.00001338,-0
 .00003821,-0.00002711,0.00007092,0.00003462,-0.00000839,0.00001068,0.0
 0001426,-0.00000519,0.00000184,0.00000145,0.00000063,-0.00000031,0.000
 00690,-0.00000061,-0.00000339,0.00000153,-0.00000148,-0.00000049,-0.00
 000126,-0.00000805,-0.00000011,0.00000964,-0.00000044,0.00001078,0.000
 03705,-0.00001141,0.00001274,0.00000325,-0.00001415,0.00000742,-0.0000
 0490,0.00000090,-0.00000059,-0.00000828,0.00000860,-0.00000078,-0.0000
 0884,-0.00000321,-0.00000049,-0.00001061,0.00000289,-0.00001098,0.0000
 0025,0.00000616,-0.00000135,-0.00000129,0.00000556,0.00000183,-0.00000
 206,0.00000334,-0.00000509,0.00011705,0.00005724,0.00053463,0.00063206
 ,0.00033457,0.00019564,-0.00000455,0.00031865,-0.00139202,-0.02425655,
 -0.00536884,-0.01061079,-0.04587803,-0.05736208,-0.01911954,-0.0020662
 9,-0.00337738,0.00316930,0.00061539,0.00096318,-0.00081498,0.02380321,
 0.00644199,0.01101616,-0.00682821,-0.00266272,-0.00234379,0.05437838,0
 .06222276,0.00008030,-0.00000632,0.00005981,-0.00011894,0.00012293,0.0
 0015740,-0.00014255,-0.00007226,-0.00007782,0.00000651,0.00005487,0.00
 003097,-0.00037067,-0.00096372,-0.00065013,0.00003068,0.00004669,-0.00
 003964,0.00003223,-0.00003149,-0.00003069,0.00000066,0.00001096,0.0000
 0286,-0.00001635,0.00000928,-0.00003588,0.00002309,0.00000181,0.000000
 86,-0.00001636,-0.00001111,0.00000336,-0.00000636,0.00001444,0.0000222
 3,0.00002086,-0.00003465,-0.00005947,-0.00002860,0.00001310,-0.0000987
 2,0.00002029,-0.00000051,0.00002667,0.00010126,0.00009910,0.00004300,0
 .00001706,0.00004169,0.00000560,0.00000153,-0.00000072,-0.00000685,0.0
 0000495,0.00000037,-0.00000279,0.00000016,0.00000097,-0.00000089,0.000
 00533,-0.00000293,-0.00000096,-0.00000095,0.00000117,-0.00000043,-0.00
 000424,0.00001003,-0.00000046,0.00000726,-0.00000305,0.00000057,-0.000
 00112,-0.00000346,0.00000333,-0.00000017,-0.00000024,-0.00000033,-0.00
 000091,0.00000209,-0.00000003,-0.00000211,-0.00000034,0.00000016,-0.00
 000169,0.00000043,-0.00000189,0.00000125,0.00000166,-0.00000123,-0.000
 00054,0.00000076,-0.00000006,-0.00000017,0.00000071,-0.00000114,-0.000
 20312,0.00007817,0.00011732,0.00100791,0.00076497,-0.00151265,-0.00014
 412,-0.00121758,-0.00016359,0.01615568,0.00262458,0.00687405,-0.092923
 65,-0.01993293,-0.08317530,0.00165841,0.00264510,-0.00142028,-0.000581
 00,-0.00070956,0.00064654,0.00386784,0.00108829,0.00011864,-0.02853633
 ,-0.00487387,-0.00995792,0.10005668,0.02023056,0.08912576\\-0.00000442
 ,-0.00000331,-0.00000050,-0.00000487,0.00003032,-0.00000287,0.00000540
 ,0.00000058,-0.00000600,0.00000167,-0.00000071,0.00000519,-0.00000119,
 -0.00000534,0.00000511,0.00000594,0.00000298,-0.00000097,-0.00000038,-
 0.00000104,-0.00000109,-0.00000058,-0.00000055,0.00000053,-0.00000183,
 -0.00000079,0.00000274,-0.00000352,-0.00000500,0.00000311,0.00000417,0
 .00000872,-0.00000341,-0.00000069,-0.00000241,0.00000069,0.00000357,-0
 .00000507,0.00000226,-0.00000167,-0.00003101,0.00000788,-0.00000077,-0
 .00000149,0.00000192,-0.00000081,0.00000124,-0.00000004,-0.00000122,-0
 .00000102,-0.00000069,-0.00000147,-0.00000273,-0.00000054,0.00000085,0
 .00000076,0.00000050,-0.00000035,-0.00000037,-0.00000086,-0.00000026,-
 0.00000127,0.00000106,0.00000131,-0.00000082,0.00000307,-0.00000272,0.
 00001230,-0.00000764,-0.00000077,0.00000238,0.00000976,-0.00000152,0.0
 0000491,0.00000836,-0.00000287,-0.00000126,-0.00000107,-0.00000579,-0.
 00000703,0.00000228,0.00000177,-0.00000272,-0.00000031,-0.00000086,-0.
 00000333,-0.00000092,0.00000411,0.00000226,0.00000601,0.00000905,0.000
 00556,0.00000288,0.00000383,0.00000385,0.00000169,-0.00002482,-0.00001
 853,0.00000616,0.00001909,0.00001352,0.00000046,0.00000040,-0.00000269
 ,-0.00001708,0.00000553,-0.00000007,-0.00000536,0.00000286,0.00000371,
 -0.00000123,-0.00000023,0.00000216,-0.00000387,-0.00000234,0.00000082,
 -0.00000621,-0.00000161,-0.00000063,-0.00000482,0.00000024,0.00000383,
 -0.00000192,-0.00000222,-0.00000069,-0.00000424\\\@


 Sometimes the fool who rushes in gets the job done.
                                    -- Al Bernstein
 Job cpu time:       0 days 12 hours 36 minutes 15.8 seconds.
 Elapsed time:       0 days 12 hours 36 minutes 16.4 seconds.
 File lengths (MBytes):  RWF=   1721 Int=      0 D2E=      0 Chk=     49 Scr=      1
 Normal termination of Gaussian 16 at Tue Mar 23 04:13:56 2021.
