 Entering Gaussian System, Link 0=/apps/gaussian/g16c01/g16/g16
 Initial command:
 /apps/gaussian/g16c01/g16/l1.exe "/jobfs/21661497.gadi-pbs/Gau-542161.inp" -scrdir="/jobfs/21661497.gadi-pbs/"
 Entering Link 1 = /apps/gaussian/g16c01/g16/l1.exe PID=    542162.
  
 Copyright (c) 1988-2019, Gaussian, Inc.  All Rights Reserved.
  
 This is part of the Gaussian(R) 16 program.  It is based on
 the Gaussian(R) 09 system (copyright 2009, Gaussian, Inc.),
 the Gaussian(R) 03 system (copyright 2003, Gaussian, Inc.),
 the Gaussian(R) 98 system (copyright 1998, Gaussian, Inc.),
 the Gaussian(R) 94 system (copyright 1995, Gaussian, Inc.),
 the Gaussian 92(TM) system (copyright 1992, Gaussian, Inc.),
 the Gaussian 90(TM) system (copyright 1990, Gaussian, Inc.),
 the Gaussian 88(TM) system (copyright 1988, Gaussian, Inc.),
 the Gaussian 86(TM) system (copyright 1986, Carnegie Mellon
 University), and the Gaussian 82(TM) system (copyright 1983,
 Carnegie Mellon University). Gaussian is a federally registered
 trademark of Gaussian, Inc.
  
 This software contains proprietary and confidential information,
 including trade secrets, belonging to Gaussian, Inc.
  
 This software is provided under written license and may be
 used, copied, transmitted, or stored only in accord with that
 written license.
  
 The following legend is applicable only to US Government
 contracts under FAR:
  
                    RESTRICTED RIGHTS LEGEND
  
 Use, reproduction and disclosure by the US Government is
 subject to restrictions as set forth in subparagraphs (a)
 and (c) of the Commercial Computer Software - Restricted
 Rights clause in FAR 52.227-19.
  
 Gaussian, Inc.
 340 Quinnipiac St., Bldg. 40, Wallingford CT 06492
  
  
 ---------------------------------------------------------------
 Warning -- This program may not be used in any manner that
 competes with the business of Gaussian, Inc. or will provide
 assistance to any competitor of Gaussian, Inc.  The licensee
 of this program is prohibited from giving any competitor of
 Gaussian, Inc. access to this program.  By using this program,
 the user acknowledges that Gaussian, Inc. is engaged in the
 business of creating and licensing software in the field of
 computational chemistry and represents and warrants to the
 licensee that it is not a competitor of Gaussian, Inc. and that
 it will not use this program in any manner prohibited above.
 ---------------------------------------------------------------
  

 Cite this work as:
 Gaussian 16, Revision C.01,
 M. J. Frisch, G. W. Trucks, H. B. Schlegel, G. E. Scuseria, 
 M. A. Robb, J. R. Cheeseman, G. Scalmani, V. Barone, 
 G. A. Petersson, H. Nakatsuji, X. Li, M. Caricato, A. V. Marenich, 
 J. Bloino, B. G. Janesko, R. Gomperts, B. Mennucci, H. P. Hratchian, 
 J. V. Ortiz, A. F. Izmaylov, J. L. Sonnenberg, D. Williams-Young, 
 F. Ding, F. Lipparini, F. Egidi, J. Goings, B. Peng, A. Petrone, 
 T. Henderson, D. Ranasinghe, V. G. Zakrzewski, J. Gao, N. Rega, 
 G. Zheng, W. Liang, M. Hada, M. Ehara, K. Toyota, R. Fukuda, 
 J. Hasegawa, M. Ishida, T. Nakajima, Y. Honda, O. Kitao, H. Nakai, 
 T. Vreven, K. Throssell, J. A. Montgomery, Jr., J. E. Peralta, 
 F. Ogliaro, M. J. Bearpark, J. J. Heyd, E. N. Brothers, K. N. Kudin, 
 V. N. Staroverov, T. A. Keith, R. Kobayashi, J. Normand, 
 K. Raghavachari, A. P. Rendell, J. C. Burant, S. S. Iyengar, 
 J. Tomasi, M. Cossi, J. M. Millam, M. Klene, C. Adamo, R. Cammi, 
 J. W. Ochterski, R. L. Martin, K. Morokuma, O. Farkas, 
 J. B. Foresman, and D. J. Fox, Gaussian, Inc., Wallingford CT, 2019.
 
 ******************************************
 Gaussian 16:  ES64L-G16RevC.01  3-Jul-2019
                28-Apr-2021 
 ******************************************
 %NprocShared=32
 Will use up to   32 processors via shared memory.
 %Mem=1194000MB
 %chk=NM2CA_carboxy_c2.DSDPBEP86_AUG-cc-PVTZ.chk
 ----------------------------------------------------------------------
 # DSDPBEP86/AUG-cc-PVTZ SCF=Tight INT(grid=ultrafine) Pop=NBO MaxDisk=
 1400000MB
 ----------------------------------------------------------------------
 1/38=1,172=1/1;
 2/12=2,17=6,18=5,40=1/2;
 3/5=16,6=1,7=10,11=9,25=1,30=1,74=-77,75=-5/1,2,3;
 4//1;
 5/5=2,32=2,38=5/2;
 8/10=1/1;
 9/16=-3/6;
 6/7=2,8=2,9=2,10=2,40=1/1,7;
 99/5=1,9=1/99;
 --------------------------------------
 NM2CA_carboxy_c2.DSDPBEP86_AUG-cc-PVTZ
 --------------------------------------
 Symbolic Z-matrix:
 Charge = -1 Multiplicity = 1
 C                    -5.92178   1.26956   0.19478 
 N                    -4.71229   0.60307   0.08005 
 C                    -3.5026    1.20084  -0.05821 
 O                    -3.25712   2.389    -0.12953 
 O                    -2.53816   0.25717  -0.11851 
 C                    -1.2102    0.7401   -0.258 
 C                    -0.29653  -0.46822  -0.30451 
 C                     1.1649   -0.05365  -0.44811 
 C                    -7.08522   0.4748    0.15161 
 C                    -8.33632   1.04431   0.29475 
 C                    -8.47536   2.43567   0.46415 
 C                    -7.32235   3.20858   0.49427 
 C                    -6.0572    2.65123   0.3627 
 H                    -4.72485  -0.46451   0.18246 
 H                    -0.96567   1.39426   0.58504 
 H                    -1.12959   1.33892  -1.17074 
 H                    -0.60019  -1.10571  -1.13894 
 H                    -0.4446   -1.05494   0.60576 
 H                     1.32634   0.51958  -1.36531 
 H                     1.82253  -0.92442  -0.48184 
 H                     1.48418   0.57052   0.39116 
 H                    -6.97997  -0.5934   -0.03644 
 H                    -5.18189   3.28155   0.38664 
 C                    -9.79127   3.13258   0.65807 
 C                    -9.52529   0.11657   0.21517 
 H                    -7.40774   4.28033   0.62294 
 F                    -10.7515   2.69975  -0.17179 
 F                    -9.68342   4.46069   0.44394 
 F                    -10.27381   3.00655   1.90938 
 F                    -9.18455  -1.15687   0.40489 
 F                    -10.14005   0.18173  -0.97924 
 F                    -10.45663   0.40858   1.14479 
 O                    -6.38816  -2.42996  -0.89892 
 O                    -4.71364  -2.00354   0.52404 
 C                    -5.47317  -2.77341  -0.1338 
 C                    -5.24501  -4.28445   0.05392 
 C                    -3.99567  -4.64183   0.84828 
 H                    -5.22743  -4.73458  -0.94296 
 H                    -6.14264  -4.68028   0.54113 
 H                    -3.10095  -4.25342   0.35728 
 H                    -3.88717  -5.72579   0.95916 
 H                    -4.0297   -4.1902    1.84056 
 
                          Input orientation:                          
 ---------------------------------------------------------------------
 Center     Atomic      Atomic             Coordinates (Angstroms)
 Number     Number       Type             X           Y           Z
 ---------------------------------------------------------------------
      1          6           0       -5.921783    1.269562    0.194782
      2          7           0       -4.712287    0.603070    0.080054
      3          6           0       -3.502603    1.200844   -0.058210
      4          8           0       -3.257117    2.388997   -0.129533
      5          8           0       -2.538161    0.257174   -0.118512
      6          6           0       -1.210200    0.740100   -0.258005
      7          6           0       -0.296530   -0.468215   -0.304511
      8          6           0        1.164902   -0.053652   -0.448111
      9          6           0       -7.085219    0.474803    0.151612
     10          6           0       -8.336318    1.044312    0.294747
     11          6           0       -8.475364    2.435672    0.464148
     12          6           0       -7.322346    3.208584    0.494266
     13          6           0       -6.057202    2.651227    0.362704
     14          1           0       -4.724854   -0.464506    0.182462
     15          1           0       -0.965671    1.394264    0.585042
     16          1           0       -1.129594    1.338921   -1.170742
     17          1           0       -0.600188   -1.105706   -1.138941
     18          1           0       -0.444604   -1.054938    0.605758
     19          1           0        1.326344    0.519581   -1.365307
     20          1           0        1.822526   -0.924416   -0.481842
     21          1           0        1.484182    0.570522    0.391160
     22          1           0       -6.979974   -0.593397   -0.036444
     23          1           0       -5.181893    3.281550    0.386638
     24          6           0       -9.791269    3.132576    0.658069
     25          6           0       -9.525287    0.116571    0.215174
     26          1           0       -7.407739    4.280327    0.622942
     27          9           0      -10.751496    2.699754   -0.171792
     28          9           0       -9.683424    4.460685    0.443937
     29          9           0      -10.273806    3.006551    1.909376
     30          9           0       -9.184549   -1.156867    0.404890
     31          9           0      -10.140047    0.181725   -0.979240
     32          9           0      -10.456631    0.408584    1.144793
     33          8           0       -6.388159   -2.429962   -0.898918
     34          8           0       -4.713639   -2.003540    0.524040
     35          6           0       -5.473170   -2.773407   -0.133798
     36          6           0       -5.245008   -4.284447    0.053924
     37          6           0       -3.995673   -4.641828    0.848280
     38          1           0       -5.227426   -4.734576   -0.942965
     39          1           0       -6.142644   -4.680282    0.541130
     40          1           0       -3.100950   -4.253424    0.357278
     41          1           0       -3.887173   -5.725790    0.959156
     42          1           0       -4.029696   -4.190202    1.840557
 ---------------------------------------------------------------------
                    Distance matrix (angstroms):
                    1          2          3          4          5
     1  C    0.000000
     2  N    1.385732   0.000000
     3  C    2.433343   1.356387   0.000000
     4  O    2.908395   2.313219   1.215343   0.000000
     5  O    3.545698   2.210406   1.350665   2.249819   0.000000
     6  C    4.762809   3.521032   2.346766   2.631584   1.419914
     7  C    5.908691   4.560093   3.622890   4.118174   2.363408
     8  C    7.237769   5.937304   4.848854   5.061845   3.730673
     9  C    1.409641   2.377473   3.661461   4.289236   4.560270
    10  C    2.427078   3.657101   4.849111   5.271288   5.865917
    11  C    2.820133   4.203179   5.150341   5.252118   6.351041
    12  C    2.410617   3.711157   4.350481   4.193678   5.654621
    13  C    1.398404   2.466502   2.967618   2.855090   4.283305
    14  H    2.107079   1.072550   2.079714   3.223984   2.322290
    15  H    4.973017   3.862399   2.624349   2.598237   2.064144
    16  H    4.983427   3.865444   2.624493   2.590970   2.064322
    17  H    5.978301   4.616841   3.861627   4.504567   2.579624
    18  H    5.964200   4.608521   3.857559   4.506835   2.574721
    19  H    7.451959   6.209759   5.048896   5.101957   4.069123
    20  H    8.077479   6.734442   5.749190   6.074997   4.532522
    21  H    7.441474   6.204359   5.046510   5.104692   4.066596
    22  H    2.154959   2.566615   3.913041   4.771060   4.523263
    23  H    2.152288   2.736563   2.710580   2.183541   4.048623
    24  C    4.319534   5.703381   6.617549   6.623320   7.840827
    25  C    3.783523   4.839413   6.125611   6.676279   6.996502
    26  H    3.384686   4.591559   5.019689   4.622880   6.359898
    27  F    5.050343   6.397778   7.403114   7.500939   8.569008
    28  F    4.939159   6.302841   7.005802   6.776296   8.309069
    29  F    4.989696   6.328794   7.278816   7.332970   8.456453
    30  F    4.071528   4.817056   6.169098   6.927713   6.815272
    31  F    4.511703   5.546190   6.778094   7.277965   7.650830
    32  F    4.712606   5.845424   7.101648   7.574889   8.020039
    33  O    3.885893   3.600864   4.713383   5.798081   4.759435
    34  O    3.504457   2.644152   3.474723   4.673649   3.202562
    35  C    4.081031   3.467748   4.436612   5.617947   4.218878
    36  C    5.596863   4.916533   5.756472   6.965646   5.289904
    37  C    6.251519   5.349080   5.933098   7.136812   5.201851
    38  H    6.150306   5.459158   6.243959   7.435663   5.729698
    39  H    5.964007   5.492934   6.474309   7.664905   6.148650
    40  H    6.203779   5.124334   5.484797   6.662067   4.570406
    41  H    7.325220   6.442678   7.011504   8.211698   6.227123
    42  H    6.008126   5.151772   5.739906   6.911150   5.083482
                    6          7          8          9         10
     6  C    0.000000
     7  C    1.515580   0.000000
     8  C    2.511432   1.525865   0.000000
     9  C    5.895253   6.869034   8.288752   0.000000
    10  C    7.153994   8.202746   9.593254   1.382055   0.000000
    11  C    7.495270   8.713021   9.998184   2.423879   1.408515
    12  C    6.634580   7.969880   9.141314   2.765358   2.398338
    13  C    5.247010   6.584940   7.754519   2.416237   2.789474
    14  H    3.741374   4.455021   5.937646   2.540585   3.915585
    15  H    1.094739   2.169766   2.775465   6.203397   7.384658
    16  H    1.094611   2.170275   2.779598   6.161557   7.360117
    17  H    2.134282   1.093104   2.167857   6.798467   8.156331
    18  H    2.134100   1.093050   2.168806   6.829649   8.172069
    19  H    2.776474   2.175948   1.093576   8.547365   9.818257
    20  H    3.466719   2.174848   1.091713   9.039192  10.376950
    21  H    2.776665   2.175745   1.093576   8.573283   9.832395
    22  H    5.926010   6.689989   8.173114   1.089722   2.152080
    23  H    4.759084   6.197193   7.218184   3.399370   3.868342
    24  C    8.955326  10.200114  11.463566   3.826612   2.570940
    25  C    8.351847   9.261858  10.712099   2.467044   1.510193
    26  H    7.191576   8.601054   9.665439   3.848141   3.382568
    27  F    9.740842  10.925199  12.233484   4.300766   2.965002
    28  F    9.280678  10.628641  11.783936   4.766905   3.675399
    29  F    9.590791  10.794505  12.073384   4.434701   3.195507
    30  F    8.223633   8.942839  10.442979   2.670895   2.361528
    31  F    8.976309   9.887998  11.319866   3.270580   2.370768
    32  F    9.358110  10.300336  11.739294   3.515283   2.371172
    33  O    6.105024   6.427264   7.930876   3.166570   4.158214
    34  O    4.518100   4.749165   6.269320   3.450402   4.739808
    35  C    5.525674   5.669273   7.180519   3.637448   4.791267
    36  C    6.451592   6.259356   7.696662   5.103565   6.165214
    37  C    6.160184   5.694877   7.025917   6.017520   7.174941
    38  H    6.824906   6.551580   7.938374   5.638007   6.677775
    39  H    7.372120   7.254907   8.705431   5.255004   6.135461
    40  H    5.374829   4.757157   6.040218   6.186503   7.448422
    41  H    7.103196   6.490891   7.725090   7.023316   8.128383
    42  H    6.054865   5.691312   7.023738   5.826750   6.952456
                   11         12         13         14         15
    11  C    0.000000
    12  C    1.388436   0.000000
    13  C    2.429869   1.388720   0.000000
    14  H    4.749390   4.509521   3.393439   0.000000
    15  H    7.582522   6.611150   5.249102   4.212903   0.000000
    16  H    7.605003   6.679675   5.324934   4.243749   1.764288
    17  H    8.782349   8.152783   6.793267   4.378369   3.058684
    18  H    8.757711   8.092798   6.730229   4.341466   2.504103
    19  H   10.153413   9.246004   7.876972   6.323055   3.134050
    20  H   10.873437  10.082815   8.694170   6.597045   3.780021
    21  H   10.132950   9.193744   7.823210   6.298172   2.591896
    22  H    3.414974   3.854081   3.396824   2.269383   6.364659
    23  H    3.401245   2.144398   1.078909   3.779353   4.623607
    24  C    1.501627   2.475518   3.776532   6.231673   8.995456
    25  C    2.557842   3.806756   4.298123   4.835585   8.662351
    26  H    2.137240   1.082812   2.132051   5.468577   7.059110
    27  F    2.378011   3.530102   4.724875   6.816044   9.901489
    28  F    2.358070   2.673009   4.053421   6.993804   9.242405
    29  F    2.376758   3.279401   4.505352   6.769145   9.539114
    30  F    3.662347   4.746889   4.927845   4.518597   8.607594
    31  F    3.151954   4.390050   4.956700   5.575973   9.385435
    32  F    2.915095   4.252873   4.999609   5.877213   9.558410
    33  O    5.467063   5.882761   5.245923   2.792666   6.799281
    34  O    5.819001   5.828592   4.847478   1.576524   5.059254
    35  C    6.041954   6.292705   5.478527   2.447656   6.180919
    36  C    7.467495   7.788116   6.989891   3.857335   7.130398
    37  C    8.384879   8.533525   7.594362   4.292440   6.759039
    38  H    7.996345   8.339552   7.546084   4.444397   7.619714
    39  H    7.488946   7.976723   7.334178   4.462235   7.981422
    40  H    8.581361   8.574411   7.510903   4.125958   6.042158
    41  H    9.375819   9.583297   8.674053   5.383872   7.705213
    42  H    8.096954   8.209511   7.286973   4.136827   6.492367
                   16         17         18         19         20
    16  H    0.000000
    17  H    2.501496   0.000000
    18  H    3.058713   1.752358   0.000000
    19  H    2.596307   2.530677   3.082282   0.000000
    20  H    3.783159   2.516781   2.517894   1.764039   0.000000
    21  H    3.140350   3.081484   2.531480   1.764279   1.763929
    22  H    6.264777   6.494584   6.583046   8.485253   8.819975
    23  H    4.756088   6.524372   6.426122   7.283883   8.216222
    24  C    9.032516  10.279506  10.241979  11.598410  12.354707
    25  C    8.596660   9.109609   9.164267  10.973525  11.416757
    26  H    7.161304   8.857558   8.772149   9.714966  10.653999
    27  F    9.768868  10.884207  10.997014  12.330932  13.089567
    28  F    9.247735  10.770115  10.761230  11.833033  12.737474
    29  F    9.792074  10.944486  10.714864  12.307398  12.941857
    30  F    8.578687   8.722229   8.742847  10.789947  11.045181
    31  F    9.086475   9.627663   9.901674  11.477862  12.023897
    32  F    9.655094  10.230248  10.132775  12.047881  12.457950
    33  O    6.475406   5.942379   6.283357   8.272296   8.357988
    34  O    5.185529   4.526819   4.373920   6.813014   6.700579
    35  C    6.070680   5.247618   5.365310   7.654658   7.534393
    36  C    7.075218   5.753406   5.811895   8.262904   7.843908
    37  C    6.932548   5.289851   5.053185   7.737181   7.031345
    38  H    7.330176   5.883744   6.230061   8.410496   8.026941
    39  H    8.018229   6.805811   6.753885   9.298326   8.865492
    40  H    6.123350   4.289594   4.165121   6.734227   6.002253
    41  H    7.877237   6.045781   5.813177   8.461002   7.598048
    42  H    6.931790   5.491180   4.920111   7.819641   7.092771
                   21         22         23         24         25
    21  H    0.000000
    22  H    8.554501   0.000000
    23  H    7.196267   4.292704   0.000000
    24  C   11.565948   4.718962   4.619763   0.000000
    25  C   11.020229   2.654428   5.376947   3.059933   0.000000
    26  H    9.637564   4.936696   2.451078   2.645710   4.689046
    27  F   12.432312   5.008747   5.627682   1.340910   2.885510
    28  F   11.825886   5.751796   4.653753   1.349577   4.353007
    29  F   12.103284   5.253111   5.321835   1.347032   3.432577
    30  F   10.807677   2.317849   5.976715   4.339530   1.331817
    31  F   11.711185   3.387586   6.004817   3.392631   1.344916
    32  F   11.965668   3.806105   6.054055   2.846004   1.347912
    33  O    8.522966   2.113546   5.977383   6.704267   4.191373
    34  O    6.712409   2.727438   5.307572   7.223571   5.267089
    35  C    7.737066   2.651863   6.084259   7.358917   4.989329
    36  C    8.304604   4.079475   7.573572   8.720418   6.141315
    37  C    7.576698   5.106719   8.024970   9.698787   7.322555
    38  H    8.658501   4.587218   8.125774   9.234936   6.583808
    39  H    9.260773   4.211572   8.021078   8.623623   5.878632
    40  H    6.655452   5.347676   7.817098   9.970147   7.771046
    41  H    8.295639   6.074380   9.117908  10.649866   8.153221
    42  H    7.427523   5.016400   7.698605   9.392394   7.168799
                   26         27         28         29         30
    26  H    0.000000
    27  F    3.782925   0.000000
    28  F    2.289828   2.149600   0.000000
    29  F    3.389950   2.157214   2.147224   0.000000
    30  F    5.724306   4.202548   5.639795   4.558947   0.000000
    31  F    5.179868   2.714095   4.532487   4.042479   2.149563
    32  F    4.955650   2.658910   4.184325   2.714303   2.148554
    33  O    6.955831   6.773583   7.755196   7.248479   3.337737
    34  O    6.837759   7.685108   8.154225   7.611545   4.551933
    35  C    7.353257   7.603793   8.390000   7.786435   4.083837
    36  C    8.851923   8.896709   9.814733   9.049318   5.042313
    37  C    9.554990  10.028984  10.741031   9.951812   6.266258
    38  H    9.406079   9.294048  10.311753   9.670928   5.502322
    39  H    9.049844   8.730104   9.803257   8.833232   4.656845
    40  H    9.562632  10.351689  10.921180  10.323086   6.826501
    41  H   10.612719  10.926471  11.731421  10.860284   7.017440
    42  H    9.200197   9.833801  10.428472   9.528215   6.150997
                   31         32         33         34         35
    31  F    0.000000
    32  F    2.159447   0.000000
    33  O    4.572092   5.365312   0.000000
    34  O    6.039962   6.259843   2.238451   0.000000
    35  C    5.588141   6.049359   1.241196   1.265833   0.000000
    36  C    6.706379   7.097573   2.377775   2.388703   1.539655
    37  C    8.022458   8.206008   3.697166   2.753392   2.576523
    38  H    6.950193   7.625970   2.580792   3.142394   2.135726
    39  H    6.475328   6.698616   2.682901   3.034353   2.130703
    40  H    8.426489   8.744172   3.963431   2.773184   2.838844
    41  H    8.817854   8.990149   4.535400   3.837645   3.525124
    42  H    8.025047   7.933373   4.020636   2.642439   2.826482
                   36         37         38         39         40
    36  C    0.000000
    37  C    1.523011   0.000000
    38  H    1.093943   2.175862   0.000000
    39  H    1.095356   2.169172   1.744451   0.000000
    40  H    2.165634   1.092002   2.538511   3.076997   0.000000
    41  H    2.177299   1.095007   2.529199   2.520909   1.774335
    42  H    2.162851   1.090751   3.078781   2.528485   1.751195
                   41         42
    41  H    0.000000
    42  H    1.776292   0.000000
 Stoichiometry    C15H16F6NO4(1-)
 Framework group  C1[X(C15H16F6NO4)]
 Deg. of freedom   120
 Full point group                 C1      NOp   1
 Largest Abelian subgroup         C1      NOp   1
 Largest concise Abelian subgroup C1      NOp   1
                         Standard orientation:                         
 ---------------------------------------------------------------------
 Center     Atomic      Atomic             Coordinates (Angstroms)
 Number     Number       Type             X           Y           Z
 ---------------------------------------------------------------------
      1          6           0       -0.009388   -0.908129    0.011440
      2          7           0       -1.381088   -0.712294   -0.007017
      3          6           0       -2.308779   -1.699230   -0.078656
      4          8           0       -2.123865   -2.897568   -0.161427
      5          8           0       -3.545732   -1.157415   -0.052582
      6          6           0       -4.624376   -2.078720   -0.114891
      7          6           0       -5.906310   -1.271376   -0.072206
      8          6           0       -7.133892   -2.175908   -0.128143
      9          6           0        0.792904    0.246464   -0.090204
     10          6           0        2.171224    0.156098   -0.043893
     11          6           0        2.803562   -1.096069    0.083150
     12          6           0        2.002367   -2.226564    0.171596
     13          6           0        0.616042   -2.152511    0.137476
     14          1           0       -1.738629    0.290975    0.119394
     15          1           0       -4.562480   -2.775835    0.726924
     16          1           0       -4.552699   -2.668739   -1.034083
     17          1           0       -5.906545   -0.568947   -0.909745
     18          1           0       -5.910939   -0.668833    0.839758
     19          1           0       -7.146981   -2.770567   -1.045813
     20          1           0       -8.056972   -1.593817   -0.097652
     21          1           0       -7.152589   -2.871394    0.715574
     22          1           0        0.304755    1.208247   -0.245696
     23          1           0        0.023259   -3.051477    0.204663
     24          6           0        4.290854   -1.282629    0.172822
     25          6           0        2.947882    1.444060   -0.180419
     26          1           0        2.469060   -3.198765    0.269089
     27          9           0        4.975764   -0.539603   -0.708570
     28          9           0        4.643500   -2.563456   -0.064833
     29          9           0        4.784796   -0.992335    1.391939
     30          9           0        2.194223    2.515166    0.061385
     31          9           0        3.460370    1.598609   -1.414223
     32          9           0        3.985371    1.501439    0.678178
     33          8           0       -0.955875    2.715834   -1.023559
     34          8           0       -2.267777    1.727224    0.497043
     35          6           0       -1.876881    2.714867   -0.191504
     36          6           0       -2.609425    4.048025    0.046420
     37          6           0       -3.845266    3.941970    0.930168
     38          1           0       -2.854779    4.461407   -0.936244
     39          1           0       -1.877117    4.736287    0.482109
     40          1           0       -4.577743    3.261683    0.490674
     41          1           0       -4.320957    4.917792    1.073453
     42          1           0       -3.584368    3.532992    1.907105
 ---------------------------------------------------------------------
 Rotational constants (GHZ):           0.2818734           0.1011699           0.0776109
 Standard basis: Aug-CC-pVTZ (5D, 7F)
 There are  1830 symmetry adapted cartesian basis functions of A   symmetry.
 There are  1564 symmetry adapted basis functions of A   symmetry.
  1564 basis functions,  2304 primitive gaussians,  1830 cartesian basis functions
   100 alpha electrons      100 beta electrons
       nuclear repulsion energy      2517.1606507497 Hartrees.
 NAtoms=   42 NActive=   42 NUniq=   42 SFac= 1.00D+00 NAtFMM=   60 NAOKFM=F Big=F
 Integral buffers will be    131072 words long.
 Regular integral format.
 Two-electron integral symmetry is turned on.
 Nuclear repulsion after empirical dispersion term =     2517.1311210123 Hartrees.
 One-electron integrals computed using PRISM.
 NBasis=  1564 RedAO= T EigKep=  1.11D-06  NBF=  1564
 NBsUse=  1559 1.00D-06 EigRej=  7.73D-07 NBFU=  1559
 ExpMin= 2.53D-02 ExpMax= 1.95D+04 ExpMxC= 6.65D+02 IAcc=3 IRadAn=         5 AccDes= 0.00D+00
 Harris functional with IExCor= 1004 and IRadAn=       5 diagonalized for initial guess.
 HarFok:  IExCor= 1004 AccDes= 0.00D+00 IRadAn=         5 IDoV= 1 UseB2=F ITyADJ=14
 ICtDFT=  3500011 ScaDFX=  1.000000  1.000000  1.000000  1.000000
 FoFCou: FMM=F IPFlag=           0 FMFlag=      100000 FMFlg1=           0
         NFxFlg=           0 DoJE=T BraDBF=F KetDBF=T FulRan=T
         wScrn=  0.000000 ICntrl=       500 IOpCl=  0 I1Cent=   200000004 NGrid=           0
         NMat0=    1 NMatS0=      1 NMatT0=    0 NMatD0=    1 NMtDS0=    0 NMtDT0=    0
 Petite list used in FoFCou.
 Requested convergence on RMS density matrix=1.00D-08 within 128 cycles.
 Requested convergence on MAX density matrix=1.00D-06.
 Requested convergence on             energy=1.00D-06.
 No special actions if energy rises.
 SCF Done:  E(RDSDPBEP86) =  -1531.72869663     A.U. after   14 cycles
            NFock= 14  Conv=0.24D-08     -V/T= 2.0031
 DoSCS=T DFT=T ScalE2(SS,OS)=  0.220000  0.520000
 ExpMin= 2.53D-02 ExpMax= 1.95D+04 ExpMxC= 6.65D+02 IAcc=3 IRadAn=         5 AccDes= 0.00D+00
 HarFok:  IExCor=  205 AccDes= 0.00D+00 IRadAn=         5 IDoV=-2 UseB2=F ITyADJ=14
 ICtDFT= 12500011 ScaDFX=  1.000000  1.000000  1.000000  1.000000
 GSVD:  LWork=        -884 too small for GESVD, short by        3770 words or        3770 for optimal perf.
 Range of M.O.s used for correlation:    27  1559
 NBasis=  1564 NAE=   100 NBE=   100 NFC=    26 NFV=     0
 NROrb=   1533 NOA=    74 NOB=    74 NVA=  1459 NVB=  1459

 **** Warning!!: The largest alpha MO coefficient is  0.12379690D+03

 DoSCS=T DFT=T ScalE2(SS,OS)=  0.220000  0.520000
 Disk-based method using OVN memory for 25 occupieds at a time.
 Estimated scratch disk usage=175674220614 words.
 Actual    scratch disk usage=128829111878 words.
 JobTyp=1 Pass  1:  I=   1 to  25 NPSUse= 32 ParTrn=T ParDer=T DoDerP=F.
 (rs|ai) integrals will be sorted in core.
 JobTyp=1 Pass  2:  I=  26 to  50 NPSUse= 32 ParTrn=T ParDer=T DoDerP=F.
 (rs|ai) integrals will be sorted in core.
 JobTyp=1 Pass  3:  I=  51 to  74 NPSUse= 32 ParTrn=T ParDer=T DoDerP=F.
 (rs|ai) integrals will be sorted in core.
 Spin components of T(2) and E(2):
     alpha-alpha T2 =       0.2457136059D+00 E2=     -0.1675779003D+00
     alpha-beta  T2 =       0.1275051919D+01 E2=     -0.2237483110D+01
     beta-beta   T2 =       0.2457136059D+00 E2=     -0.1675779003D+00
 E2(DSDPBEP86) =    -0.2572638911D+01 E(DSDPBEP86) =    -0.15343013355366D+04

 **********************************************************************

            Population analysis using the SCF Density.

 **********************************************************************

 Orbital symmetries:
       Occupied  (A) (A) (A) (A) (A) (A) (A) (A) (A) (A) (A) (A)
                 (A) (A) (A) (A) (A) (A) (A) (A) (A) (A) (A) (A)
                 (A) (A) (A) (A) (A) (A) (A) (A) (A) (A) (A) (A)
                 (A) (A) (A) (A) (A) (A) (A) (A) (A) (A) (A) (A)
                 (A) (A) (A) (A) (A) (A) (A) (A) (A) (A) (A) (A)
                 (A) (A) (A) (A) (A) (A) (A) (A) (A) (A) (A) (A)
                 (A) (A) (A) (A) (A) (A) (A) (A) (A) (A) (A) (A)
                 (A) (A) (A) (A) (A) (A) (A) (A) (A) (A) (A) (A)
                 (A) (A) (A) (A)
       Virtual   (A) (A) (A) (A) (A) (A) (A) (A) (A) (A) (A) (A)
                 (A) (A) (A) (A) (A) (A) (A) (A) (A) (A) (A) (A)
                 (A) (A) (A) (A) (A) (A) (A) (A) (A) (A) (A) (A)
                 (A) (A) (A) (A) (A) (A) (A) (A) (A) (A) (A) (A)
                 (A) (A) (A) (A) (A) (A) (A) (A) (A) (A) (A) (A)
                 (A) (A) (A) (A) (A) (A) (A) (A) (A) (A) (A) (A)
                 (A) (A) (A) (A) (A) (A) (A) (A) (A) (A) (A) (A)
                 (A) (A) (A) (A) (A) (A) (A) (A) (A) (A) (A) (A)
                 (A) (A) (A) (A) (A) (A) (A) (A) (A) (A) (A) (A)
                 (A) (A) (A) (A) (A) (A) (A) (A) (A) (A) (A) (A)
                 (A) (A) (A) (A) (A) (A) (A) (A) (A) (A) (A) (A)
                 (A) (A) (A) (A) (A) (A) (A) (A) (A) (A) (A) (A)
                 (A) (A) (A) (A) (A) (A) (A) (A) (A) (A) (A) (A)
                 (A) (A) (A) (A) (A) (A) (A) (A) (A) (A) (A) (A)
                 (A) (A) (A) (A) (A) (A) (A) (A) (A) (A) (A) (A)
                 (A) (A) (A) (A) (A) (A) (A) (A) (A) (A) (A) (A)
                 (A) (A) (A) (A) (A) (A) (A) (A) (A) (A) (A) (A)
                 (A) (A) (A) (A) (A) (A) (A) (A) (A) (A) (A) (A)
                 (A) (A) (A) (A) (A) (A) (A) (A) (A) (A) (A) (A)
                 (A) (A) (A) (A) (A) (A) (A) (A) (A) (A) (A) (A)
                 (A) (A) (A) (A) (A) (A) (A) (A) (A) (A) (A) (A)
                 (A) (A) (A) (A) (A) (A) (A) (A) (A) (A) (A) (A)
                 (A) (A) (A) (A) (A) (A) (A) (A) (A) (A) (A) (A)
                 (A) (A) (A) (A) (A) (A) (A) (A) (A) (A) (A) (A)
                 (A) (A) (A) (A) (A) (A) (A) (A) (A) (A) (A) (A)
                 (A) (A) (A) (A) (A) (A) (A) (A) (A) (A) (A) (A)
                 (A) (A) (A) (A) (A) (A) (A) (A) (A) (A) (A) (A)
                 (A) (A) (A) (A) (A) (A) (A) (A) (A) (A) (A) (A)
                 (A) (A) (A) (A) (A) (A) (A) (A) (A) (A) (A) (A)
                 (A) (A) (A) (A) (A) (A) (A) (A) (A) (A) (A) (A)
                 (A) (A) (A) (A) (A) (A) (A) (A) (A) (A) (A) (A)
                 (A) (A) (A) (A) (A) (A) (A) (A) (A) (A) (A) (A)
                 (A) (A) (A) (A) (A) (A) (A) (A) (A) (A) (A) (A)
                 (A) (A) (A) (A) (A) (A) (A) (A) (A) (A) (A) (A)
                 (A) (A) (A) (A) (A) (A) (A) (A) (A) (A) (A) (A)
                 (A) (A) (A) (A) (A) (A) (A) (A) (A) (A) (A) (A)
                 (A) (A) (A) (A) (A) (A) (A) (A) (A) (A) (A) (A)
                 (A) (A) (A) (A) (A) (A) (A) (A) (A) (A) (A) (A)
                 (A) (A) (A) (A) (A) (A) (A) (A) (A) (A) (A) (A)
                 (A) (A) (A) (A) (A) (A) (A) (A) (A) (A) (A) (A)
                 (A) (A) (A) (A) (A) (A) (A) (A) (A) (A) (A) (A)
                 (A) (A) (A) (A) (A) (A) (A) (A) (A) (A) (A) (A)
                 (A) (A) (A) (A) (A) (A) (A) (A) (A) (A) (A) (A)
                 (A) (A) (A) (A) (A) (A) (A) (A) (A) (A) (A) (A)
                 (A) (A) (A) (A) (A) (A) (A) (A) (A) (A) (A) (A)
                 (A) (A) (A) (A) (A) (A) (A) (A) (A) (A) (A) (A)
                 (A) (A) (A) (A) (A) (A) (A) (A) (A) (A) (A) (A)
                 (A) (A) (A) (A) (A) (A) (A) (A) (A) (A) (A) (A)
                 (A) (A) (A) (A) (A) (A) (A) (A) (A) (A) (A) (A)
                 (A) (A) (A) (A) (A) (A) (A) (A) (A) (A) (A) (A)
                 (A) (A) (A) (A) (A) (A) (A) (A) (A) (A) (A) (A)
                 (A) (A) (A) (A) (A) (A) (A) (A) (A) (A) (A) (A)
                 (A) (A) (A) (A) (A) (A) (A) (A) (A) (A) (A) (A)
                 (A) (A) (A) (A) (A) (A) (A) (A) (A) (A) (A) (A)
                 (A) (A) (A) (A) (A) (A) (A) (A) (A) (A) (A) (A)
                 (A) (A) (A) (A) (A) (A) (A) (A) (A) (A) (A) (A)
                 (A) (A) (A) (A) (A) (A) (A) (A) (A) (A) (A) (A)
                 (A) (A) (A) (A) (A) (A) (A) (A) (A) (A) (A) (A)
                 (A) (A) (A) (A) (A) (A) (A) (A) (A) (A) (A) (A)
                 (A) (A) (A) (A) (A) (A) (A) (A) (A) (A) (A) (A)
                 (A) (A) (A) (A) (A) (A) (A) (A) (A) (A) (A) (A)
                 (A) (A) (A) (A) (A) (A) (A) (A) (A) (A) (A) (A)
                 (A) (A) (A) (A) (A) (A) (A) (A) (A) (A) (A) (A)
                 (A) (A) (A) (A) (A) (A) (A) (A) (A) (A) (A) (A)
                 (A) (A) (A) (A) (A) (A) (A) (A) (A) (A) (A) (A)
                 (A) (A) (A) (A) (A) (A) (A) (A) (A) (A) (A) (A)
                 (A) (A) (A) (A) (A) (A) (A) (A) (A) (A) (A) (A)
                 (A) (A) (A) (A) (A) (A) (A) (A) (A) (A) (A) (A)
                 (A) (A) (A) (A) (A) (A) (A) (A) (A) (A) (A) (A)
                 (A) (A) (A) (A) (A) (A) (A) (A) (A) (A) (A) (A)
                 (A) (A) (A) (A) (A) (A) (A) (A) (A) (A) (A) (A)
                 (A) (A) (A) (A) (A) (A) (A) (A) (A) (A) (A) (A)
                 (A) (A) (A) (A) (A) (A) (A) (A) (A) (A) (A) (A)
                 (A) (A) (A) (A) (A) (A) (A) (A) (A) (A) (A) (A)
                 (A) (A) (A) (A) (A) (A) (A) (A) (A) (A) (A) (A)
                 (A) (A) (A) (A) (A) (A) (A) (A) (A) (A) (A) (A)
                 (A) (A) (A) (A) (A) (A) (A) (A) (A) (A) (A) (A)
                 (A) (A) (A) (A) (A) (A) (A) (A) (A) (A) (A) (A)
                 (A) (A) (A) (A) (A) (A) (A) (A) (A) (A) (A) (A)
                 (A) (A) (A) (A) (A) (A) (A) (A) (A) (A) (A) (A)
                 (A) (A) (A) (A) (A) (A) (A) (A) (A) (A) (A) (A)
                 (A) (A) (A) (A) (A) (A) (A) (A) (A) (A) (A) (A)
                 (A) (A) (A) (A) (A) (A) (A) (A) (A) (A) (A) (A)
                 (A) (A) (A) (A) (A) (A) (A) (A) (A) (A) (A) (A)
                 (A) (A) (A) (A) (A) (A) (A) (A) (A) (A) (A) (A)
                 (A) (A) (A) (A) (A) (A) (A) (A) (A) (A) (A) (A)
                 (A) (A) (A) (A) (A) (A) (A) (A) (A) (A) (A) (A)
                 (A) (A) (A) (A) (A) (A) (A) (A) (A) (A) (A) (A)
                 (A) (A) (A) (A) (A) (A) (A) (A) (A) (A) (A) (A)
                 (A) (A) (A) (A) (A) (A) (A) (A) (A) (A) (A) (A)
                 (A) (A) (A) (A) (A) (A) (A) (A) (A) (A) (A) (A)
                 (A) (A) (A) (A) (A) (A) (A) (A) (A) (A) (A) (A)
                 (A) (A) (A) (A) (A) (A) (A) (A) (A) (A) (A) (A)
                 (A) (A) (A) (A) (A) (A) (A) (A) (A) (A) (A) (A)
                 (A) (A) (A) (A) (A) (A) (A) (A) (A) (A) (A) (A)
                 (A) (A) (A) (A) (A) (A) (A) (A) (A) (A) (A) (A)
                 (A) (A) (A) (A) (A) (A) (A) (A) (A) (A) (A) (A)
                 (A) (A) (A) (A) (A) (A) (A) (A) (A) (A) (A) (A)
                 (A) (A) (A) (A) (A) (A) (A) (A) (A) (A) (A) (A)
                 (A) (A) (A) (A) (A) (A) (A) (A) (A) (A) (A) (A)
                 (A) (A) (A) (A) (A) (A) (A) (A) (A) (A) (A) (A)
                 (A) (A) (A) (A) (A) (A) (A) (A) (A) (A) (A) (A)
                 (A) (A) (A) (A) (A) (A) (A) (A) (A) (A) (A) (A)
                 (A) (A) (A) (A) (A) (A) (A) (A) (A) (A) (A) (A)
                 (A) (A) (A) (A) (A) (A) (A) (A) (A) (A) (A) (A)
                 (A) (A) (A) (A) (A) (A) (A) (A) (A) (A) (A) (A)
                 (A) (A) (A) (A) (A) (A) (A) (A) (A) (A) (A) (A)
                 (A) (A) (A) (A) (A) (A) (A) (A) (A) (A) (A) (A)
                 (A) (A) (A) (A) (A) (A) (A) (A) (A) (A) (A) (A)
                 (A) (A) (A) (A) (A) (A) (A) (A) (A) (A) (A) (A)
                 (A) (A) (A) (A) (A) (A) (A) (A) (A) (A) (A) (A)
                 (A) (A) (A) (A) (A) (A) (A) (A) (A) (A) (A) (A)
                 (A) (A) (A) (A) (A) (A) (A) (A) (A) (A) (A) (A)
                 (A) (A) (A) (A) (A) (A) (A) (A) (A) (A) (A) (A)
                 (A) (A) (A) (A) (A) (A) (A) (A) (A) (A) (A) (A)
                 (A) (A) (A) (A) (A) (A) (A) (A) (A) (A) (A) (A)
                 (A) (A) (A) (A) (A) (A) (A) (A) (A) (A) (A) (A)
                 (A) (A) (A) (A) (A) (A) (A) (A) (A) (A) (A) (A)
                 (A) (A) (A) (A) (A) (A) (A) (A) (A) (A) (A) (A)
                 (A) (A) (A) (A) (A) (A) (A) (A) (A) (A) (A) (A)
                 (A) (A) (A) (A) (A) (A) (A) (A) (A) (A) (A) (A)
                 (A) (A) (A) (A) (A) (A) (A)
 The electronic state is 1-A.
 Alpha  occ. eigenvalues --  -25.61956 -25.61594 -25.61306 -25.60657 -25.60345
 Alpha  occ. eigenvalues --  -25.60334 -19.94270 -19.87615 -19.80825 -19.79851
 Alpha  occ. eigenvalues --  -14.98952 -10.99451 -10.98362 -10.87477 -10.78139
 Alpha  occ. eigenvalues --  -10.78138 -10.77243 -10.76163 -10.75582 -10.74578
 Alpha  occ. eigenvalues --  -10.73820 -10.73378 -10.72625 -10.72496 -10.68665
 Alpha  occ. eigenvalues --  -10.68488  -1.48284  -1.47158  -1.38915  -1.38507
 Alpha  occ. eigenvalues --   -1.37702  -1.37511  -1.23328  -1.12853  -1.11057
 Alpha  occ. eigenvalues --   -1.03451  -1.00949  -0.96687  -0.88800  -0.86380
 Alpha  occ. eigenvalues --   -0.85820  -0.81098  -0.79108  -0.76893  -0.75476
 Alpha  occ. eigenvalues --   -0.69812  -0.68465  -0.66133  -0.65735  -0.64444
 Alpha  occ. eigenvalues --   -0.64341  -0.63818  -0.63203  -0.62976  -0.61951
 Alpha  occ. eigenvalues --   -0.57911  -0.56739  -0.53166  -0.52985  -0.52880
 Alpha  occ. eigenvalues --   -0.52384  -0.51709  -0.51625  -0.50075  -0.49994
 Alpha  occ. eigenvalues --   -0.48629  -0.48396  -0.47302  -0.47251  -0.47170
 Alpha  occ. eigenvalues --   -0.46749  -0.46371  -0.46007  -0.45283  -0.44649
 Alpha  occ. eigenvalues --   -0.43963  -0.43451  -0.43195  -0.42033  -0.41674
 Alpha  occ. eigenvalues --   -0.40066  -0.39102  -0.38650  -0.38258  -0.37843
 Alpha  occ. eigenvalues --   -0.36125  -0.35827  -0.35266  -0.35052  -0.34735
 Alpha  occ. eigenvalues --   -0.32911  -0.30730  -0.30470  -0.30014  -0.28819
 Alpha  occ. eigenvalues --   -0.23311  -0.21361  -0.20827  -0.19821  -0.18497
 Alpha virt. eigenvalues --    0.07364   0.08987   0.09323   0.09429   0.09717
 Alpha virt. eigenvalues --    0.10758   0.11319   0.11634   0.11746   0.12199
 Alpha virt. eigenvalues --    0.12466   0.12954   0.13143   0.13518   0.13602
 Alpha virt. eigenvalues --    0.13880   0.13955   0.14446   0.14875   0.15155
 Alpha virt. eigenvalues --    0.15331   0.15960   0.16423   0.16911   0.17415
 Alpha virt. eigenvalues --    0.17494   0.17781   0.17936   0.18333   0.18378
 Alpha virt. eigenvalues --    0.18481   0.18688   0.19133   0.19440   0.19538
 Alpha virt. eigenvalues --    0.20118   0.20303   0.20756   0.20884   0.21116
 Alpha virt. eigenvalues --    0.21416   0.21585   0.21880   0.21933   0.22455
 Alpha virt. eigenvalues --    0.22693   0.23019   0.23291   0.23581   0.24008
 Alpha virt. eigenvalues --    0.24060   0.24631   0.24743   0.25123   0.25428
 Alpha virt. eigenvalues --    0.25582   0.25914   0.26168   0.26284   0.26820
 Alpha virt. eigenvalues --    0.26930   0.27548   0.27623   0.28150   0.28190
 Alpha virt. eigenvalues --    0.28380   0.28782   0.29097   0.29226   0.29599
 Alpha virt. eigenvalues --    0.29732   0.29889   0.30409   0.30588   0.31154
 Alpha virt. eigenvalues --    0.31447   0.31911   0.32054   0.32256   0.32483
 Alpha virt. eigenvalues --    0.32629   0.32809   0.33069   0.33465   0.33676
 Alpha virt. eigenvalues --    0.33849   0.34132   0.34379   0.34782   0.35087
 Alpha virt. eigenvalues --    0.35292   0.35504   0.35680   0.35860   0.36169
 Alpha virt. eigenvalues --    0.36396   0.36649   0.36793   0.37253   0.37302
 Alpha virt. eigenvalues --    0.37399   0.37486   0.37778   0.38263   0.38375
 Alpha virt. eigenvalues --    0.38410   0.38511   0.38921   0.39165   0.39250
 Alpha virt. eigenvalues --    0.39415   0.39656   0.39826   0.40066   0.40331
 Alpha virt. eigenvalues --    0.40770   0.40995   0.41052   0.41188   0.41437
 Alpha virt. eigenvalues --    0.41762   0.41915   0.42091   0.42335   0.42486
 Alpha virt. eigenvalues --    0.42639   0.43097   0.43263   0.43636   0.43814
 Alpha virt. eigenvalues --    0.43854   0.44180   0.44234   0.44647   0.44963
 Alpha virt. eigenvalues --    0.45081   0.45285   0.45543   0.45829   0.45992
 Alpha virt. eigenvalues --    0.46213   0.46387   0.46708   0.46738   0.46995
 Alpha virt. eigenvalues --    0.47281   0.47335   0.47510   0.48009   0.48190
 Alpha virt. eigenvalues --    0.48262   0.48528   0.48878   0.49158   0.49286
 Alpha virt. eigenvalues --    0.49647   0.49972   0.50042   0.50217   0.50516
 Alpha virt. eigenvalues --    0.50632   0.50817   0.50930   0.51535   0.51724
 Alpha virt. eigenvalues --    0.51896   0.52172   0.52347   0.52585   0.52825
 Alpha virt. eigenvalues --    0.53047   0.53388   0.53642   0.53818   0.53932
 Alpha virt. eigenvalues --    0.54066   0.54154   0.54614   0.54777   0.54893
 Alpha virt. eigenvalues --    0.55084   0.55106   0.55402   0.55564   0.55965
 Alpha virt. eigenvalues --    0.56171   0.56413   0.56597   0.56885   0.57122
 Alpha virt. eigenvalues --    0.57251   0.57361   0.57556   0.57758   0.58105
 Alpha virt. eigenvalues --    0.58190   0.58404   0.58746   0.58956   0.59165
 Alpha virt. eigenvalues --    0.59394   0.59856   0.60178   0.60356   0.60577
 Alpha virt. eigenvalues --    0.60867   0.61383   0.61503   0.61774   0.61953
 Alpha virt. eigenvalues --    0.62427   0.62540   0.62705   0.63090   0.63262
 Alpha virt. eigenvalues --    0.63581   0.63981   0.64222   0.64679   0.64763
 Alpha virt. eigenvalues --    0.65200   0.65441   0.65867   0.66096   0.66230
 Alpha virt. eigenvalues --    0.66433   0.66699   0.67188   0.67227   0.67607
 Alpha virt. eigenvalues --    0.67937   0.68123   0.68549   0.68719   0.68978
 Alpha virt. eigenvalues --    0.69531   0.69864   0.70033   0.70248   0.70702
 Alpha virt. eigenvalues --    0.70926   0.71182   0.71340   0.71607   0.72327
 Alpha virt. eigenvalues --    0.72839   0.73060   0.73708   0.73814   0.74037
 Alpha virt. eigenvalues --    0.74225   0.74700   0.75030   0.75408   0.75625
 Alpha virt. eigenvalues --    0.76233   0.76504   0.76813   0.77200   0.77363
 Alpha virt. eigenvalues --    0.77578   0.77933   0.78165   0.78992   0.79260
 Alpha virt. eigenvalues --    0.79630   0.79815   0.80251   0.80345   0.81568
 Alpha virt. eigenvalues --    0.81711   0.82267   0.82509   0.82828   0.83274
 Alpha virt. eigenvalues --    0.83583   0.83871   0.84017   0.84424   0.84710
 Alpha virt. eigenvalues --    0.85456   0.85574   0.85817   0.85941   0.86060
 Alpha virt. eigenvalues --    0.86786   0.87183   0.87416   0.87746   0.88360
 Alpha virt. eigenvalues --    0.88425   0.88543   0.88915   0.89081   0.89387
 Alpha virt. eigenvalues --    0.90007   0.90218   0.90494   0.91125   0.91276
 Alpha virt. eigenvalues --    0.91779   0.92113   0.92590   0.92664   0.92967
 Alpha virt. eigenvalues --    0.93341   0.93490   0.93595   0.94067   0.94356
 Alpha virt. eigenvalues --    0.94527   0.94820   0.95197   0.95396   0.95531
 Alpha virt. eigenvalues --    0.95731   0.96261   0.96358   0.96675   0.97026
 Alpha virt. eigenvalues --    0.97140   0.97324   0.97469   0.97981   0.98153
 Alpha virt. eigenvalues --    0.98274   0.98544   0.98903   0.99127   0.99377
 Alpha virt. eigenvalues --    1.00194   1.00458   1.00632   1.00962   1.01197
 Alpha virt. eigenvalues --    1.01413   1.01933   1.02217   1.02316   1.02550
 Alpha virt. eigenvalues --    1.02996   1.03071   1.03303   1.03693   1.03775
 Alpha virt. eigenvalues --    1.04016   1.04364   1.04635   1.05112   1.05288
 Alpha virt. eigenvalues --    1.05693   1.05936   1.06422   1.06517   1.06606
 Alpha virt. eigenvalues --    1.07224   1.07457   1.07794   1.08214   1.08342
 Alpha virt. eigenvalues --    1.08668   1.09116   1.09466   1.10108   1.10277
 Alpha virt. eigenvalues --    1.10439   1.10863   1.10999   1.11163   1.11785
 Alpha virt. eigenvalues --    1.12116   1.12395   1.12581   1.12935   1.13275
 Alpha virt. eigenvalues --    1.13616   1.13783   1.13929   1.14142   1.14351
 Alpha virt. eigenvalues --    1.14658   1.15108   1.15586   1.15825   1.15872
 Alpha virt. eigenvalues --    1.15978   1.16241   1.16723   1.16766   1.17021
 Alpha virt. eigenvalues --    1.17172   1.17605   1.17974   1.18179   1.18409
 Alpha virt. eigenvalues --    1.18699   1.18876   1.19144   1.19603   1.19669
 Alpha virt. eigenvalues --    1.20220   1.20334   1.20632   1.21229   1.21266
 Alpha virt. eigenvalues --    1.21428   1.21887   1.22224   1.22507   1.22627
 Alpha virt. eigenvalues --    1.23193   1.23445   1.23687   1.24130   1.24267
 Alpha virt. eigenvalues --    1.24609   1.24899   1.25025   1.25488   1.25827
 Alpha virt. eigenvalues --    1.26005   1.26373   1.26831   1.27109   1.27301
 Alpha virt. eigenvalues --    1.27688   1.28085   1.28407   1.28820   1.29247
 Alpha virt. eigenvalues --    1.29474   1.29639   1.30235   1.30438   1.30557
 Alpha virt. eigenvalues --    1.30646   1.31145   1.31233   1.31355   1.31842
 Alpha virt. eigenvalues --    1.32284   1.32516   1.32852   1.33239   1.33624
 Alpha virt. eigenvalues --    1.33808   1.34051   1.34568   1.34718   1.35139
 Alpha virt. eigenvalues --    1.35700   1.35926   1.36099   1.36294   1.36621
 Alpha virt. eigenvalues --    1.36645   1.37324   1.37988   1.38478   1.38776
 Alpha virt. eigenvalues --    1.39261   1.39502   1.39777   1.39895   1.40500
 Alpha virt. eigenvalues --    1.40708   1.40944   1.41320   1.41708   1.42197
 Alpha virt. eigenvalues --    1.42455   1.42883   1.43141   1.43343   1.43553
 Alpha virt. eigenvalues --    1.43905   1.43990   1.44772   1.45569   1.45751
 Alpha virt. eigenvalues --    1.46261   1.46567   1.47009   1.47200   1.47495
 Alpha virt. eigenvalues --    1.47660   1.48086   1.48387   1.48853   1.49203
 Alpha virt. eigenvalues --    1.49389   1.49979   1.50228   1.50835   1.51103
 Alpha virt. eigenvalues --    1.51418   1.51648   1.52170   1.52495   1.52637
 Alpha virt. eigenvalues --    1.53263   1.53437   1.54094   1.54244   1.54722
 Alpha virt. eigenvalues --    1.55447   1.55639   1.56054   1.56143   1.57079
 Alpha virt. eigenvalues --    1.57497   1.57900   1.57968   1.58473   1.58899
 Alpha virt. eigenvalues --    1.59432   1.59599   1.60064   1.60593   1.61043
 Alpha virt. eigenvalues --    1.61319   1.61693   1.61795   1.62520   1.62816
 Alpha virt. eigenvalues --    1.63271   1.63824   1.64277   1.64472   1.64770
 Alpha virt. eigenvalues --    1.64970   1.65382   1.65819   1.65905   1.66436
 Alpha virt. eigenvalues --    1.66635   1.67036   1.67459   1.67657   1.67841
 Alpha virt. eigenvalues --    1.68542   1.68939   1.69385   1.69760   1.69849
 Alpha virt. eigenvalues --    1.70270   1.70961   1.70999   1.71306   1.71720
 Alpha virt. eigenvalues --    1.72086   1.72285   1.72751   1.73380   1.73558
 Alpha virt. eigenvalues --    1.73736   1.74488   1.74774   1.74970   1.75599
 Alpha virt. eigenvalues --    1.75809   1.76088   1.76314   1.76471   1.76638
 Alpha virt. eigenvalues --    1.77236   1.77368   1.78071   1.78409   1.78527
 Alpha virt. eigenvalues --    1.78951   1.79385   1.79526   1.80292   1.80537
 Alpha virt. eigenvalues --    1.81075   1.81271   1.81426   1.81847   1.82288
 Alpha virt. eigenvalues --    1.82505   1.82700   1.83013   1.83197   1.84051
 Alpha virt. eigenvalues --    1.84191   1.84403   1.84892   1.85152   1.85963
 Alpha virt. eigenvalues --    1.86508   1.86906   1.87510   1.87603   1.87753
 Alpha virt. eigenvalues --    1.88135   1.88709   1.89027   1.89761   1.89977
 Alpha virt. eigenvalues --    1.90067   1.90531   1.91081   1.91351   1.91879
 Alpha virt. eigenvalues --    1.92289   1.92373   1.92786   1.93135   1.94013
 Alpha virt. eigenvalues --    1.94512   1.94917   1.95216   1.95528   1.96091
 Alpha virt. eigenvalues --    1.96122   1.96337   1.96739   1.96968   1.97683
 Alpha virt. eigenvalues --    1.97928   1.98605   1.99099   1.99183   1.99641
 Alpha virt. eigenvalues --    1.99896   2.00351   2.00631   2.00966   2.01427
 Alpha virt. eigenvalues --    2.01789   2.02270   2.02907   2.03001   2.03410
 Alpha virt. eigenvalues --    2.04170   2.04610   2.05269   2.05355   2.05385
 Alpha virt. eigenvalues --    2.05891   2.06812   2.06838   2.07611   2.07914
 Alpha virt. eigenvalues --    2.08381   2.09037   2.09091   2.09611   2.10055
 Alpha virt. eigenvalues --    2.10564   2.10962   2.11447   2.11646   2.12290
 Alpha virt. eigenvalues --    2.12953   2.13153   2.13851   2.14199   2.14637
 Alpha virt. eigenvalues --    2.15564   2.15774   2.16138   2.16370   2.16888
 Alpha virt. eigenvalues --    2.17285   2.17887   2.18158   2.19295   2.19761
 Alpha virt. eigenvalues --    2.19969   2.20887   2.21300   2.22109   2.22436
 Alpha virt. eigenvalues --    2.23034   2.23114   2.23912   2.24454   2.24968
 Alpha virt. eigenvalues --    2.25336   2.25692   2.26286   2.26849   2.27806
 Alpha virt. eigenvalues --    2.28201   2.28769   2.29684   2.29849   2.30795
 Alpha virt. eigenvalues --    2.31043   2.31214   2.31525   2.31721   2.31897
 Alpha virt. eigenvalues --    2.32961   2.33751   2.34066   2.34154   2.34856
 Alpha virt. eigenvalues --    2.35651   2.36873   2.37100   2.37786   2.38456
 Alpha virt. eigenvalues --    2.39359   2.39479   2.40642   2.41644   2.41800
 Alpha virt. eigenvalues --    2.42862   2.43013   2.43917   2.44503   2.45086
 Alpha virt. eigenvalues --    2.45314   2.45486   2.45870   2.46290   2.47092
 Alpha virt. eigenvalues --    2.47604   2.48982   2.49923   2.50903   2.51969
 Alpha virt. eigenvalues --    2.52226   2.52629   2.53371   2.53955   2.54813
 Alpha virt. eigenvalues --    2.55177   2.55687   2.56459   2.57199   2.58843
 Alpha virt. eigenvalues --    2.60062   2.60587   2.61175   2.61439   2.62301
 Alpha virt. eigenvalues --    2.63284   2.63590   2.64119   2.64354   2.65144
 Alpha virt. eigenvalues --    2.66382   2.67003   2.67340   2.68209   2.69096
 Alpha virt. eigenvalues --    2.69561   2.69846   2.71504   2.72181   2.72516
 Alpha virt. eigenvalues --    2.72961   2.73966   2.74516   2.75666   2.76150
 Alpha virt. eigenvalues --    2.77225   2.77641   2.78154   2.79229   2.80431
 Alpha virt. eigenvalues --    2.80809   2.81757   2.82412   2.82982   2.83952
 Alpha virt. eigenvalues --    2.84755   2.85617   2.86267   2.86614   2.87020
 Alpha virt. eigenvalues --    2.87673   2.88250   2.88609   2.89490   2.89798
 Alpha virt. eigenvalues --    2.90222   2.91058   2.91209   2.92111   2.93354
 Alpha virt. eigenvalues --    2.94029   2.94235   2.94484   2.95106   2.95823
 Alpha virt. eigenvalues --    2.96863   2.97332   2.97841   2.98312   2.98516
 Alpha virt. eigenvalues --    3.00145   3.00661   3.01043   3.01485   3.02012
 Alpha virt. eigenvalues --    3.02170   3.03745   3.04061   3.04508   3.05330
 Alpha virt. eigenvalues --    3.05558   3.06219   3.06956   3.07964   3.08637
 Alpha virt. eigenvalues --    3.09002   3.09457   3.10047   3.10260   3.10737
 Alpha virt. eigenvalues --    3.11910   3.12172   3.13059   3.13542   3.14525
 Alpha virt. eigenvalues --    3.14789   3.15455   3.15934   3.16277   3.16953
 Alpha virt. eigenvalues --    3.17831   3.18120   3.18571   3.18760   3.19582
 Alpha virt. eigenvalues --    3.19838   3.20956   3.21941   3.22358   3.23004
 Alpha virt. eigenvalues --    3.23396   3.25023   3.25390   3.25913   3.26846
 Alpha virt. eigenvalues --    3.27111   3.27946   3.28495   3.29129   3.29504
 Alpha virt. eigenvalues --    3.30513   3.32003   3.32272   3.32677   3.33845
 Alpha virt. eigenvalues --    3.34223   3.34821   3.35228   3.35895   3.36837
 Alpha virt. eigenvalues --    3.37376   3.37876   3.38587   3.38877   3.39152
 Alpha virt. eigenvalues --    3.39776   3.39949   3.40696   3.41024   3.41242
 Alpha virt. eigenvalues --    3.41886   3.42239   3.42966   3.43258   3.44045
 Alpha virt. eigenvalues --    3.44408   3.44789   3.45193   3.45442   3.46131
 Alpha virt. eigenvalues --    3.46414   3.46860   3.47066   3.47744   3.48559
 Alpha virt. eigenvalues --    3.49076   3.49575   3.50097   3.50256   3.51017
 Alpha virt. eigenvalues --    3.51637   3.51882   3.52189   3.53054   3.53781
 Alpha virt. eigenvalues --    3.54349   3.56161   3.56291   3.56659   3.57274
 Alpha virt. eigenvalues --    3.57626   3.58041   3.58506   3.58902   3.59314
 Alpha virt. eigenvalues --    3.60128   3.60278   3.60593   3.60781   3.62278
 Alpha virt. eigenvalues --    3.62976   3.63844   3.64172   3.64198   3.65353
 Alpha virt. eigenvalues --    3.65942   3.66351   3.67325   3.67342   3.67683
 Alpha virt. eigenvalues --    3.68509   3.68612   3.69070   3.69729   3.69899
 Alpha virt. eigenvalues --    3.70873   3.71306   3.71355   3.71468   3.72134
 Alpha virt. eigenvalues --    3.72639   3.72912   3.73450   3.73953   3.74233
 Alpha virt. eigenvalues --    3.74605   3.75114   3.75417   3.76068   3.76342
 Alpha virt. eigenvalues --    3.77683   3.77872   3.78098   3.78279   3.78618
 Alpha virt. eigenvalues --    3.78798   3.79387   3.79617   3.79957   3.80211
 Alpha virt. eigenvalues --    3.80730   3.81385   3.81595   3.81785   3.82293
 Alpha virt. eigenvalues --    3.82448   3.82696   3.83089   3.83989   3.84521
 Alpha virt. eigenvalues --    3.85376   3.86109   3.86443   3.87094   3.87643
 Alpha virt. eigenvalues --    3.88135   3.88280   3.88640   3.89145   3.89978
 Alpha virt. eigenvalues --    3.90210   3.90811   3.91414   3.91618   3.92527
 Alpha virt. eigenvalues --    3.93320   3.93510   3.93603   3.94183   3.94390
 Alpha virt. eigenvalues --    3.94943   3.95604   3.96211   3.96917   3.97103
 Alpha virt. eigenvalues --    3.97875   3.98321   3.98673   3.99160   3.99202
 Alpha virt. eigenvalues --    4.00198   4.00636   4.01124   4.01488   4.01862
 Alpha virt. eigenvalues --    4.02442   4.03791   4.03830   4.04061   4.04771
 Alpha virt. eigenvalues --    4.05494   4.05926   4.06290   4.06650   4.06830
 Alpha virt. eigenvalues --    4.09066   4.09662   4.09719   4.10666   4.11186
 Alpha virt. eigenvalues --    4.11848   4.12472   4.12763   4.13752   4.14302
 Alpha virt. eigenvalues --    4.14535   4.14975   4.15275   4.15588   4.16416
 Alpha virt. eigenvalues --    4.17022   4.17846   4.18206   4.18780   4.19365
 Alpha virt. eigenvalues --    4.20068   4.20162   4.20571   4.20992   4.21642
 Alpha virt. eigenvalues --    4.21723   4.22268   4.22669   4.23308   4.24114
 Alpha virt. eigenvalues --    4.24322   4.24399   4.25075   4.25464   4.25769
 Alpha virt. eigenvalues --    4.25872   4.27368   4.27773   4.27829   4.28533
 Alpha virt. eigenvalues --    4.28754   4.29864   4.30285   4.30519   4.31133
 Alpha virt. eigenvalues --    4.31647   4.32149   4.33067   4.33446   4.33932
 Alpha virt. eigenvalues --    4.34491   4.35736   4.36231   4.36981   4.37765
 Alpha virt. eigenvalues --    4.38328   4.39274   4.39413   4.40764   4.41486
 Alpha virt. eigenvalues --    4.42238   4.42723   4.43606   4.44515   4.44637
 Alpha virt. eigenvalues --    4.45320   4.45958   4.46379   4.47265   4.47725
 Alpha virt. eigenvalues --    4.48078   4.48985   4.49258   4.49901   4.50490
 Alpha virt. eigenvalues --    4.50820   4.50958   4.52057   4.52543   4.53568
 Alpha virt. eigenvalues --    4.53919   4.54405   4.55126   4.55695   4.56328
 Alpha virt. eigenvalues --    4.56921   4.57151   4.58233   4.59090   4.59420
 Alpha virt. eigenvalues --    4.60844   4.61066   4.62439   4.62570   4.63074
 Alpha virt. eigenvalues --    4.63706   4.64720   4.65569   4.66175   4.66559
 Alpha virt. eigenvalues --    4.66898   4.68050   4.68287   4.68676   4.69722
 Alpha virt. eigenvalues --    4.70151   4.70882   4.71299   4.71719   4.72468
 Alpha virt. eigenvalues --    4.73102   4.73704   4.74132   4.75138   4.75615
 Alpha virt. eigenvalues --    4.76663   4.77081   4.77729   4.78554   4.78885
 Alpha virt. eigenvalues --    4.79648   4.80757   4.81813   4.82589   4.82979
 Alpha virt. eigenvalues --    4.84110   4.84746   4.85481   4.86308   4.86574
 Alpha virt. eigenvalues --    4.87135   4.87814   4.88347   4.89226   4.89606
 Alpha virt. eigenvalues --    4.90707   4.91228   4.91814   4.92408   4.93488
 Alpha virt. eigenvalues --    4.93830   4.94238   4.94906   4.96406   4.96905
 Alpha virt. eigenvalues --    4.97617   4.98096   4.98359   5.00487   5.00584
 Alpha virt. eigenvalues --    5.01834   5.03156   5.03738   5.04727   5.04790
 Alpha virt. eigenvalues --    5.06005   5.06427   5.07325   5.08270   5.08425
 Alpha virt. eigenvalues --    5.09193   5.09901   5.10897   5.11360   5.11769
 Alpha virt. eigenvalues --    5.12371   5.12908   5.13406   5.14183   5.15028
 Alpha virt. eigenvalues --    5.15721   5.16655   5.17821   5.18453   5.19223
 Alpha virt. eigenvalues --    5.20373   5.20653   5.20832   5.21481   5.21904
 Alpha virt. eigenvalues --    5.23371   5.24095   5.24655   5.24771   5.25965
 Alpha virt. eigenvalues --    5.26632   5.27669   5.28543   5.30385   5.31547
 Alpha virt. eigenvalues --    5.31959   5.31977   5.32427   5.33184   5.33874
 Alpha virt. eigenvalues --    5.34561   5.34778   5.35323   5.35898   5.37702
 Alpha virt. eigenvalues --    5.38727   5.39474   5.40631   5.43172   5.44443
 Alpha virt. eigenvalues --    5.45537   5.47873   5.48665   5.49492   5.51109
 Alpha virt. eigenvalues --    5.51613   5.52137   5.53935   5.54368   5.55511
 Alpha virt. eigenvalues --    5.56384   5.57679   5.58869   5.59600   5.60807
 Alpha virt. eigenvalues --    5.62076   5.63798   5.64338   5.65143   5.67453
 Alpha virt. eigenvalues --    5.68327   5.68729   5.69308   5.70394   5.71321
 Alpha virt. eigenvalues --    5.72097   5.73772   5.74512   5.76416   5.77327
 Alpha virt. eigenvalues --    5.78134   5.78829   5.80558   5.82663   5.83112
 Alpha virt. eigenvalues --    5.83643   5.83708   5.85365   5.85922   5.88688
 Alpha virt. eigenvalues --    5.91446   5.92537   5.93247   5.93388   5.95620
 Alpha virt. eigenvalues --    5.95718   5.97624   5.98137   5.98749   5.99203
 Alpha virt. eigenvalues --    5.99725   6.01330   6.02998   6.03793   6.05971
 Alpha virt. eigenvalues --    6.07359   6.08165   6.09364   6.10487   6.11228
 Alpha virt. eigenvalues --    6.12560   6.12938   6.15115   6.17212   6.17989
 Alpha virt. eigenvalues --    6.18795   6.19553   6.20810   6.22845   6.23649
 Alpha virt. eigenvalues --    6.25262   6.26730   6.30751   6.32913   6.34912
 Alpha virt. eigenvalues --    6.36198   6.39905   6.41701   6.43862   6.45168
 Alpha virt. eigenvalues --    6.47210   6.53580   6.56250   6.57841   6.61664
 Alpha virt. eigenvalues --    6.66803   6.67438   6.72660   6.73172   6.73743
 Alpha virt. eigenvalues --    6.75748   6.78143   6.79587   6.80833   6.86257
 Alpha virt. eigenvalues --    6.86601   6.88015   6.88710   6.89162   6.89725
 Alpha virt. eigenvalues --    6.91302   6.93584   6.95028   6.95493   6.97528
 Alpha virt. eigenvalues --    6.98732   7.01818   7.03253   7.06173   7.06767
 Alpha virt. eigenvalues --    7.09336   7.11571   7.14430   7.14914   7.17742
 Alpha virt. eigenvalues --    7.18787   7.21727   7.23192   7.24518   7.25965
 Alpha virt. eigenvalues --    7.27203   7.28493   7.29947   7.30935   7.33354
 Alpha virt. eigenvalues --    7.33783   7.38894   7.39214   7.39693   7.40995
 Alpha virt. eigenvalues --    7.43500   7.46045   7.46917   7.49448   7.54601
 Alpha virt. eigenvalues --    7.57139   7.58920   7.62164   7.62549   7.68404
 Alpha virt. eigenvalues --    7.72722   7.75800   7.76810   7.83974   7.85570
 Alpha virt. eigenvalues --    7.85866   7.90492   7.93819   7.99949   8.01484
 Alpha virt. eigenvalues --    8.06377   8.07561   8.20039   8.38494   8.54944
 Alpha virt. eigenvalues --    8.67019   8.81806   8.85454   8.86363   8.87527
 Alpha virt. eigenvalues --    8.88906   8.89658   8.90469   8.92172   8.92873
 Alpha virt. eigenvalues --    8.95207   8.95994   8.98807   9.03032   9.04787
 Alpha virt. eigenvalues --    9.08704   9.09628   9.17552   9.19579   9.20852
 Alpha virt. eigenvalues --    9.21479   9.22381   9.23554   9.25267   9.25997
 Alpha virt. eigenvalues --    9.27498   9.28489   9.28878   9.30235   9.31223
 Alpha virt. eigenvalues --    9.32037   9.33587   9.34776   9.35426   9.37239
 Alpha virt. eigenvalues --    9.37599   9.37766   9.38845   9.39822   9.40696
 Alpha virt. eigenvalues --    9.41102   9.41836   9.43557   9.44205   9.45002
 Alpha virt. eigenvalues --    9.45566   9.48365   9.49536   9.50479   9.51867
 Alpha virt. eigenvalues --    9.53113   9.55428   9.56504   9.57712   9.58943
 Alpha virt. eigenvalues --    9.60500   9.60788   9.62239   9.63831   9.64273
 Alpha virt. eigenvalues --    9.66790   9.70049   9.73990   9.82516   9.84387
 Alpha virt. eigenvalues --    9.86319   9.88573   9.90411   9.95551  10.05723
 Alpha virt. eigenvalues --   10.09002  10.10696  10.12981  14.99590  15.48110
 Alpha virt. eigenvalues --   15.76101  16.01223  16.16232  16.26432  16.51657
 Alpha virt. eigenvalues --   16.61296  16.69218  16.78602  17.00066  17.26765
 Alpha virt. eigenvalues --   17.38374  17.68499  17.94363  18.22640  18.45064
 Alpha virt. eigenvalues --   18.67122  18.81201  19.25249  20.19968  20.49697
 Alpha virt. eigenvalues --   20.55795  20.87040  21.52571  21.94684
          Condensed to atoms (all electrons):
               1          2          3          4          5          6
     1  C   11.089520  -0.739794  -0.763768   0.074451  -0.024232  -0.010571
     2  N   -0.739794   8.910529   0.634487  -0.237140  -0.337968  -0.059336
     3  C   -0.763768   0.634487   6.177787   0.356750   0.308214  -0.163533
     4  O    0.074451  -0.237140   0.356750   9.112545  -0.173124   0.027331
     5  O   -0.024232  -0.337968   0.308214  -0.173124   8.667425   0.172797
     6  C   -0.010571  -0.059336  -0.163533   0.027331   0.172797   5.888361
     7  C   -0.011939  -0.011877   0.021817  -0.026824  -0.116076  -0.004546
     8  C    0.001420   0.000552   0.000441  -0.002413   0.009143  -0.035415
     9  C   -1.664613  -0.330177  -0.126915  -0.021148  -0.036605  -0.032556
    10  C   -0.608256   0.131851  -0.102727   0.007831  -0.019930  -0.019902
    11  C    0.001489  -0.043574   0.098345  -0.005961   0.022618   0.012880
    12  C   -0.218745   0.257734  -0.042597   0.023657  -0.011119  -0.015577
    13  C   -1.326664  -0.626205  -0.072544  -0.129701  -0.034338  -0.033966
    14  H   -0.089835  -0.181097  -0.337008  -0.026253   0.059062  -0.037003
    15  H   -0.012462   0.016588  -0.003518   0.000017  -0.055468   0.302234
    16  H    0.007654   0.009190  -0.020375  -0.008489  -0.015329   0.285381
    17  H   -0.003511  -0.005722  -0.004589   0.006425  -0.061541   0.064028
    18  H    0.001249  -0.002897  -0.011528   0.002855  -0.040288   0.062068
    19  H    0.000178  -0.000282   0.004735   0.000249   0.002168  -0.007325
    20  H    0.000121  -0.000239   0.001833  -0.000123   0.000335  -0.006167
    21  H    0.000594  -0.000710   0.004918  -0.000177   0.001502  -0.005154
    22  H   -0.940992   0.137366  -0.043199   0.001082  -0.003217  -0.013952
    23  H    0.126736  -0.094427  -0.050553  -0.037476  -0.003962  -0.013344
    24  C   -0.070908   0.007674   0.005045  -0.000663   0.000336   0.000463
    25  C    0.029037   0.009422   0.000642  -0.000451   0.000606  -0.000120
    26  H    0.069653   0.005086  -0.003456  -0.003554  -0.000069   0.000280
    27  F   -0.005823   0.001947   0.000158  -0.000025  -0.000001   0.000001
    28  F   -0.023449   0.003127  -0.000127   0.000028   0.000012   0.000017
    29  F   -0.013991  -0.001434  -0.001430   0.000003  -0.000016  -0.000047
    30  F   -0.006964   0.010896   0.001562  -0.000025   0.000393   0.000207
    31  F    0.026638  -0.003169  -0.000028   0.000044   0.000055   0.000031
    32  F    0.003433   0.000361   0.000324  -0.000013  -0.000022  -0.000015
    33  O    0.033778  -0.011364  -0.004176   0.000450  -0.009182  -0.004631
    34  O   -0.012453  -0.183888  -0.019961  -0.010591  -0.007874   0.004702
    35  C   -0.036082  -0.019357  -0.016232  -0.003788  -0.027778  -0.006244
    36  C    0.000564  -0.005284   0.004613  -0.000383   0.004395   0.004351
    37  C   -0.001383  -0.004856   0.000719  -0.000091   0.000305   0.000135
    38  H    0.000485  -0.001221   0.000326  -0.000033   0.000937   0.000724
    39  H   -0.003736   0.000532   0.001019  -0.000025   0.000514   0.000257
    40  H   -0.002770   0.000707  -0.000340  -0.000103  -0.000131  -0.001166
    41  H    0.000770  -0.000655  -0.000523  -0.000013  -0.000020   0.000178
    42  H   -0.000060  -0.000633   0.001458   0.000050  -0.000588  -0.000713
               7          8          9         10         11         12
     1  C   -0.011939   0.001420  -1.664613  -0.608256   0.001489  -0.218745
     2  N   -0.011877   0.000552  -0.330177   0.131851  -0.043574   0.257734
     3  C    0.021817   0.000441  -0.126915  -0.102727   0.098345  -0.042597
     4  O   -0.026824  -0.002413  -0.021148   0.007831  -0.005961   0.023657
     5  O   -0.116076   0.009143  -0.036605  -0.019930   0.022618  -0.011119
     6  C   -0.004546  -0.035415  -0.032556  -0.019902   0.012880  -0.015577
     7  C    5.738278   0.080767   0.002815   0.000467  -0.000100   0.001462
     8  C    0.080767   5.831080  -0.000740   0.000172  -0.000028  -0.000116
     9  C    0.002815  -0.000740  12.810414  -1.659196  -0.019941  -0.409409
    10  C    0.000467   0.000172  -1.659196  10.205512  -1.810302  -0.001656
    11  C   -0.000100  -0.000028  -0.019941  -1.810302   9.824522  -1.514180
    12  C    0.001462  -0.000116  -0.409409  -0.001656  -1.514180  10.657345
    13  C   -0.002917   0.000311   0.072486  -0.058505   0.198455  -1.229431
    14  H    0.004562  -0.001405  -0.084746  -0.049359   0.038916  -0.022727
    15  H    0.018812  -0.012054   0.004880  -0.002082   0.001262  -0.002516
    16  H    0.001375  -0.003281  -0.003413   0.000169  -0.000162   0.000955
    17  H    0.393447  -0.044333   0.001247  -0.000300   0.000232  -0.000169
    18  H    0.375287  -0.036523   0.000223  -0.000139   0.000018   0.000010
    19  H    0.028800   0.371926   0.000043   0.000017  -0.000012  -0.000023
    20  H   -0.035270   0.453392  -0.000017  -0.000007   0.000008  -0.000011
    21  H    0.027058   0.369519  -0.000169   0.000059  -0.000034   0.000083
    22  H   -0.001339   0.000043  -0.950972   0.170141  -0.097296   0.020476
    23  H    0.000737   0.000026  -0.054932  -0.097722   0.107644  -0.303510
    24  C   -0.000026   0.000000   0.095238  -0.159473  -0.621243  -0.526235
    25  C   -0.000063   0.000005  -0.175374  -0.544642  -0.160196   0.047156
    26  H   -0.000080  -0.000008  -0.022481   0.014166  -0.153656   0.026587
    27  F   -0.000000   0.000000   0.003745   0.020876  -0.010050  -0.024209
    28  F   -0.000001   0.000000  -0.013108   0.043780  -0.015480  -0.019065
    29  F    0.000001  -0.000000   0.010801  -0.012458   0.031635  -0.014783
    30  F   -0.000035  -0.000000   0.092885  -0.051704  -0.014512  -0.003096
    31  F   -0.000001  -0.000000  -0.064949   0.046521  -0.022044   0.009736
    32  F    0.000000  -0.000000  -0.012817  -0.040872   0.055614   0.000815
    33  O    0.001905   0.000056  -0.001148   0.025835  -0.009291  -0.001164
    34  O   -0.001816  -0.000740   0.082633   0.032125  -0.009717   0.011396
    35  C    0.002313   0.000556  -0.056397   0.074501  -0.025333   0.017403
    36  C   -0.002380  -0.000164  -0.011074  -0.013212  -0.000393   0.001165
    37  C   -0.000754  -0.000030  -0.009680   0.001824  -0.000709   0.000487
    38  H   -0.000485  -0.000023  -0.001982  -0.000841   0.000041   0.000101
    39  H   -0.000087  -0.000001   0.010236  -0.003704   0.000359   0.000004
    40  H    0.000012   0.000118   0.001810  -0.000148  -0.000069   0.000056
    41  H    0.000129  -0.000004  -0.000123   0.000047  -0.000009   0.000020
    42  H    0.000270   0.000076  -0.003226   0.000252  -0.000132   0.000026
              13         14         15         16         17         18
     1  C   -1.326664  -0.089835  -0.012462   0.007654  -0.003511   0.001249
     2  N   -0.626205  -0.181097   0.016588   0.009190  -0.005722  -0.002897
     3  C   -0.072544  -0.337008  -0.003518  -0.020375  -0.004589  -0.011528
     4  O   -0.129701  -0.026253   0.000017  -0.008489   0.006425   0.002855
     5  O   -0.034338   0.059062  -0.055468  -0.015329  -0.061541  -0.040288
     6  C   -0.033966  -0.037003   0.302234   0.285381   0.064028   0.062068
     7  C   -0.002917   0.004562   0.018812   0.001375   0.393447   0.375287
     8  C    0.000311  -0.001405  -0.012054  -0.003281  -0.044333  -0.036523
     9  C    0.072486  -0.084746   0.004880  -0.003413   0.001247   0.000223
    10  C   -0.058505  -0.049359  -0.002082   0.000169  -0.000300  -0.000139
    11  C    0.198455   0.038916   0.001262  -0.000162   0.000232   0.000018
    12  C   -1.229431  -0.022727  -0.002516   0.000955  -0.000169   0.000010
    13  C    9.824040   0.014748   0.001394  -0.000118  -0.000449  -0.000490
    14  H    0.014748   1.379304  -0.000029  -0.001831  -0.000817  -0.003038
    15  H    0.001394  -0.000029   0.436556  -0.001615   0.026638  -0.023162
    16  H   -0.000118  -0.001831  -0.001615   0.431245  -0.026336   0.024504
    17  H   -0.000449  -0.000817   0.026638  -0.026336   0.441054  -0.000848
    18  H   -0.000490  -0.003038  -0.023162   0.024504  -0.000848   0.429836
    19  H    0.000092   0.000169  -0.007110  -0.008277  -0.000140   0.000326
    20  H   -0.000002  -0.000089  -0.001432   0.000041  -0.003609  -0.002891
    21  H   -0.000054  -0.000041  -0.007529  -0.007735   0.001104  -0.001397
    22  H    0.047332  -0.127985  -0.000435  -0.000632  -0.000529   0.000101
    23  H    0.222119   0.001905  -0.002722  -0.000805  -0.000099   0.000003
    24  C    0.086989  -0.001412   0.000045   0.000040  -0.000005   0.000000
    25  C    0.000503  -0.004150   0.000024  -0.000017  -0.000019   0.000005
    26  H   -0.303828   0.003589   0.000063   0.000160   0.000007  -0.000016
    27  F    0.000420  -0.000091   0.000000   0.000002   0.000000  -0.000001
    28  F    0.019597   0.000072  -0.000002  -0.000002  -0.000000  -0.000000
    29  F    0.014570  -0.000926  -0.000004  -0.000004  -0.000001   0.000001
    30  F    0.000505   0.000281   0.000004   0.000013  -0.000005   0.000002
    31  F   -0.016397   0.000767   0.000002  -0.000006   0.000002  -0.000001
    32  F    0.000777  -0.000781   0.000002  -0.000001  -0.000001   0.000001
    33  O   -0.001594  -0.059143  -0.000142  -0.000103   0.000432   0.000030
    34  O   -0.016334  -0.166947  -0.000187   0.000781  -0.000630  -0.000893
    35  C   -0.002444  -0.069220   0.000182  -0.001155  -0.000084  -0.000256
    36  C   -0.000683   0.008728   0.000455  -0.000038  -0.000370  -0.000723
    37  C   -0.000571  -0.007249   0.000246  -0.000204   0.001115  -0.000438
    38  H    0.000075  -0.001074   0.000047   0.000035  -0.000057   0.000023
    39  H    0.000051   0.003083   0.000015  -0.000005   0.000024  -0.000011
    40  H   -0.000009   0.001473   0.000197  -0.000285   0.000078  -0.000649
    41  H   -0.000083   0.000732   0.000025  -0.000015   0.000134  -0.000236
    42  H    0.000340  -0.005234  -0.000114   0.000071  -0.000003   0.000110
              19         20         21         22         23         24
     1  C    0.000178   0.000121   0.000594  -0.940992   0.126736  -0.070908
     2  N   -0.000282  -0.000239  -0.000710   0.137366  -0.094427   0.007674
     3  C    0.004735   0.001833   0.004918  -0.043199  -0.050553   0.005045
     4  O    0.000249  -0.000123  -0.000177   0.001082  -0.037476  -0.000663
     5  O    0.002168   0.000335   0.001502  -0.003217  -0.003962   0.000336
     6  C   -0.007325  -0.006167  -0.005154  -0.013952  -0.013344   0.000463
     7  C    0.028800  -0.035270   0.027058  -0.001339   0.000737  -0.000026
     8  C    0.371926   0.453392   0.369519   0.000043   0.000026   0.000000
     9  C    0.000043  -0.000017  -0.000169  -0.950972  -0.054932   0.095238
    10  C    0.000017  -0.000007   0.000059   0.170141  -0.097722  -0.159473
    11  C   -0.000012   0.000008  -0.000034  -0.097296   0.107644  -0.621243
    12  C   -0.000023  -0.000011   0.000083   0.020476  -0.303510  -0.526235
    13  C    0.000092  -0.000002  -0.000054   0.047332   0.222119   0.086989
    14  H    0.000169  -0.000089  -0.000041  -0.127985   0.001905  -0.001412
    15  H   -0.007110  -0.001432  -0.007529  -0.000435  -0.002722   0.000045
    16  H   -0.008277   0.000041  -0.007735  -0.000632  -0.000805   0.000040
    17  H   -0.000140  -0.003609   0.001104  -0.000529  -0.000099  -0.000005
    18  H    0.000326  -0.002891  -0.001397   0.000101   0.000003   0.000000
    19  H    0.319417   0.001023   0.018753   0.000055   0.000025  -0.000000
    20  H    0.001023   0.312984   0.000555  -0.000007   0.000001   0.000000
    21  H    0.018753   0.000555   0.322948   0.000004   0.000123  -0.000000
    22  H    0.000055  -0.000007   0.000004   2.642365  -0.011602  -0.000925
    23  H    0.000025   0.000001   0.000123  -0.011602   0.840123  -0.008674
    24  C   -0.000000   0.000000  -0.000000  -0.000925  -0.008674   5.588290
    25  C    0.000002   0.000000  -0.000002  -0.305267  -0.001557  -0.045819
    26  H   -0.000006   0.000000  -0.000004  -0.002773  -0.024310  -0.086254
    27  F   -0.000000   0.000000   0.000000  -0.003790   0.000405   0.185570
    28  F    0.000000  -0.000000   0.000000  -0.000567  -0.003613   0.149635
    29  F    0.000000  -0.000000  -0.000000   0.003009   0.001491   0.139140
    30  F    0.000000   0.000000  -0.000000  -0.132962  -0.000081   0.009832
    31  F   -0.000000  -0.000000   0.000000   0.035186  -0.000563  -0.003412
    32  F    0.000000  -0.000000  -0.000000   0.003740  -0.000065   0.005524
    33  O   -0.000002   0.000009   0.000000  -0.142754   0.000024   0.000399
    34  O   -0.000007  -0.000124   0.000027   0.000591   0.000633   0.000396
    35  C   -0.000026   0.000065   0.000056  -0.016759  -0.000144   0.000513
    36  C    0.000005  -0.000024  -0.000011  -0.022508  -0.000030   0.000283
    37  C   -0.000025   0.000040  -0.000043   0.005496  -0.000042   0.000017
    38  H   -0.000006   0.000005  -0.000004   0.002022   0.000017   0.000016
    39  H    0.000001  -0.000001   0.000001  -0.004421  -0.000016   0.000030
    40  H    0.000080  -0.000035  -0.000014   0.001221  -0.000023  -0.000001
    41  H   -0.000006  -0.000001  -0.000002  -0.000159  -0.000013   0.000003
    42  H   -0.000014   0.000016   0.000011   0.003245   0.000054  -0.000009
              25         26         27         28         29         30
     1  C    0.029037   0.069653  -0.005823  -0.023449  -0.013991  -0.006964
     2  N    0.009422   0.005086   0.001947   0.003127  -0.001434   0.010896
     3  C    0.000642  -0.003456   0.000158  -0.000127  -0.001430   0.001562
     4  O   -0.000451  -0.003554  -0.000025   0.000028   0.000003  -0.000025
     5  O    0.000606  -0.000069  -0.000001   0.000012  -0.000016   0.000393
     6  C   -0.000120   0.000280   0.000001   0.000017  -0.000047   0.000207
     7  C   -0.000063  -0.000080  -0.000000  -0.000001   0.000001  -0.000035
     8  C    0.000005  -0.000008   0.000000   0.000000  -0.000000  -0.000000
     9  C   -0.175374  -0.022481   0.003745  -0.013108   0.010801   0.092885
    10  C   -0.544642   0.014166   0.020876   0.043780  -0.012458  -0.051704
    11  C   -0.160196  -0.153656  -0.010050  -0.015480   0.031635  -0.014512
    12  C    0.047156   0.026587  -0.024209  -0.019065  -0.014783  -0.003096
    13  C    0.000503  -0.303828   0.000420   0.019597   0.014570   0.000505
    14  H   -0.004150   0.003589  -0.000091   0.000072  -0.000926   0.000281
    15  H    0.000024   0.000063   0.000000  -0.000002  -0.000004   0.000004
    16  H   -0.000017   0.000160   0.000002  -0.000002  -0.000004   0.000013
    17  H   -0.000019   0.000007   0.000000  -0.000000  -0.000001  -0.000005
    18  H    0.000005  -0.000016  -0.000001  -0.000000   0.000001   0.000002
    19  H    0.000002  -0.000006  -0.000000   0.000000   0.000000   0.000000
    20  H    0.000000   0.000000   0.000000  -0.000000  -0.000000   0.000000
    21  H   -0.000002  -0.000004   0.000000   0.000000  -0.000000  -0.000000
    22  H   -0.305267  -0.002773  -0.003790  -0.000567   0.003009  -0.132962
    23  H   -0.001557  -0.024310   0.000405  -0.003613   0.001491  -0.000081
    24  C   -0.045819  -0.086254   0.185570   0.149635   0.139140   0.009832
    25  C    5.374610   0.002770   0.003677   0.007709  -0.003982   0.217909
    26  H    0.002770   1.109026  -0.001075  -0.009869   0.004461   0.000121
    27  F    0.003677  -0.001075   9.380821  -0.087167  -0.027719   0.007238
    28  F    0.007709  -0.009869  -0.087167   9.414839  -0.069371   0.000132
    29  F   -0.003982   0.004461  -0.027719  -0.069371   9.368816  -0.002040
    30  F    0.217909   0.000121   0.007238   0.000132  -0.002040   9.370163
    31  F    0.157869   0.000247  -0.006342  -0.001173  -0.001611  -0.071619
    32  F    0.170202  -0.001089  -0.002318   0.004667  -0.005312  -0.092877
    33  O   -0.005563   0.000234  -0.000077  -0.000005   0.000005  -0.002747
    34  O    0.000125   0.000851   0.000037   0.000002  -0.000049   0.000563
    35  C   -0.013294  -0.000156   0.000296   0.000013  -0.000042   0.005722
    36  C    0.003000   0.000027   0.000020   0.000001   0.000003   0.001233
    37  C   -0.000041   0.000031  -0.000001   0.000000  -0.000002   0.000008
    38  H    0.000393  -0.000005   0.000003   0.000000   0.000001   0.000250
    39  H    0.000472   0.000001   0.000004  -0.000003  -0.000004   0.000905
    40  H    0.000015  -0.000001   0.000001   0.000000   0.000001  -0.000005
    41  H   -0.000042   0.000004  -0.000000   0.000000  -0.000000  -0.000032
    42  H    0.000126  -0.000009  -0.000000   0.000000   0.000004   0.000100
              31         32         33         34         35         36
     1  C    0.026638   0.003433   0.033778  -0.012453  -0.036082   0.000564
[...]
  1255. RY*(  20) O  34                  0.00000     7.01468   
  1256. RY*(  21) O  34                  0.00000     7.06171   
  1257. RY*(  22) O  34                  0.00000     4.20958   
  1258. RY*(  23) O  34                  0.00001     3.09594   
  1259. RY*(  24) O  34                  0.00000     6.78307   
  1260. RY*(  25) O  34                  0.00001     2.31254   
  1261. RY*(  26) O  34                  0.00000     7.20711   
  1262. RY*(  27) O  34                  0.00000     6.68015   
  1263. RY*(  28) O  34                  0.00000     4.20339   
  1264. RY*(  29) O  34                  0.00000     6.27502   
  1265. RY*(  30) O  34                  0.00000     3.59627   
  1266. RY*(  31) O  34                  0.00000     6.25477   
  1267. RY*(  32) O  34                  0.00000     3.78597   
  1268. RY*(  33) O  34                  0.00000     6.17190   
  1269. RY*(  34) O  34                  0.00000     3.77139   
  1270. RY*(  35) O  34                  0.00000     6.46689   
  1271. RY*(  36) O  34                  0.00000     4.25994   
  1272. RY*(  37) O  34                  0.00000     6.46741   
  1273. RY*(  38) O  34                  0.00000     3.64110   
  1274. RY*(  39) O  34                  0.00000     6.53011   
  1275. RY*(  40) O  34                  0.00000     3.69923   
  1276. RY*(  41) O  34                  0.00000     6.69084   
  1277. RY*(   1) C  35                  0.01843     1.79709   
  1278. RY*(   2) C  35                  0.00993     1.69601   
  1279. RY*(   3) C  35                  0.00429     2.33999   
  1280. RY*(   4) C  35                  0.00224     3.18618   
  1281. RY*(   5) C  35                  0.00144     3.38451   
  1282. RY*(   6) C  35                  0.00106     1.66084   
  1283. RY*(   7) C  35                  0.00043     1.40458   
  1284. RY*(   8) C  35                  0.00032     2.33685   
  1285. RY*(   9) C  35                  0.00013     1.56829   
  1286. RY*(  10) C  35                  0.00010     1.91843   
  1287. RY*(  11) C  35                  0.00007     2.13691   
  1288. RY*(  12) C  35                  0.00005     1.82600   
  1289. RY*(  13) C  35                  0.00004     2.36213   
  1290. RY*(  14) C  35                  0.00004     1.94323   
  1291. RY*(  15) C  35                  0.00002     1.85827   
  1292. RY*(  16) C  35                  0.00000     1.97094   
  1293. RY*(  17) C  35                  0.00001     4.55327   
  1294. RY*(  18) C  35                  0.00000     3.46057   
  1295. RY*(  19) C  35                  0.00001     2.41019   
  1296. RY*(  20) C  35                  0.00001     3.03172   
  1297. RY*(  21) C  35                  0.00000     3.50390   
  1298. RY*(  22) C  35                  0.00000     3.72264   
  1299. RY*(  23) C  35                  0.00001     2.34527   
  1300. RY*(  24) C  35                  0.00000     3.71734   
  1301. RY*(  25) C  35                  0.00001     2.35102   
  1302. RY*(  26) C  35                  0.00001     2.71737   
  1303. RY*(  27) C  35                  0.00000     3.35764   
  1304. RY*(  28) C  35                  0.00000     3.59385   
  1305. RY*(  29) C  35                  0.00000     3.80172   
  1306. RY*(  30) C  35                  0.00000     4.07251   
  1307. RY*(  31) C  35                  0.00000     4.17412   
  1308. RY*(  32) C  35                  0.00000     3.86150   
  1309. RY*(  33) C  35                  0.00000     3.77305   
  1310. RY*(  34) C  35                  0.00000     4.52336   
  1311. RY*(  35) C  35                  0.00000     5.10219   
  1312. RY*(  36) C  35                  0.00000     3.89601   
  1313. RY*(  37) C  35                  0.00000     4.18606   
  1314. RY*(  38) C  35                  0.00000     4.22355   
  1315. RY*(  39) C  35                  0.00000     5.40921   
  1316. RY*(  40) C  35                  0.00000     3.89564   
  1317. RY*(  41) C  35                  0.00000     3.75189   
  1318. RY*(   1) C  36                  0.00303     1.76533   
  1319. RY*(   2) C  36                  0.00182     2.33487   
  1320. RY*(   3) C  36                  0.00180     1.72039   
  1321. RY*(   4) C  36                  0.00095     1.48775   
  1322. RY*(   5) C  36                  0.00046     1.48205   
  1323. RY*(   6) C  36                  0.00030     1.96015   
  1324. RY*(   7) C  36                  0.00024     2.24654   
  1325. RY*(   8) C  36                  0.00019     1.95486   
  1326. RY*(   9) C  36                  0.00010     2.88531   
  1327. RY*(  10) C  36                  0.00010     2.31968   
  1328. RY*(  11) C  36                  0.00001     2.33833   
  1329. RY*(  12) C  36                  0.00001     2.90063   
  1330. RY*(  13) C  36                  0.00000     1.52268   
  1331. RY*(  14) C  36                  0.00001     2.39718   
  1332. RY*(  15) C  36                  0.00000     2.10462   
  1333. RY*(  16) C  36                  0.00001     2.53152   
  1334. RY*(  17) C  36                  0.00000     3.67445   
  1335. RY*(  18) C  36                  0.00001     2.90073   
  1336. RY*(  19) C  36                  0.00001     2.65427   
  1337. RY*(  20) C  36                  0.00000     2.00329   
  1338. RY*(  21) C  36                  0.00000     1.74003   
  1339. RY*(  22) C  36                  0.00000     1.39811   
  1340. RY*(  23) C  36                  0.00000     3.40010   
  1341. RY*(  24) C  36                  0.00000     2.57979   
  1342. RY*(  25) C  36                  0.00000     6.37891   
  1343. RY*(  26) C  36                  0.00000     3.92751   
  1344. RY*(  27) C  36                  0.00000     2.55794   
  1345. RY*(  28) C  36                  0.00000     4.45564   
  1346. RY*(  29) C  36                  0.00000     3.63184   
  1347. RY*(  30) C  36                  0.00000     4.40876   
  1348. RY*(  31) C  36                  0.00000     3.25809   
  1349. RY*(  32) C  36                  0.00000     4.29297   
  1350. RY*(  33) C  36                  0.00000     3.10320   
  1351. RY*(  34) C  36                  0.00000     4.48635   
  1352. RY*(  35) C  36                  0.00001     3.10514   
  1353. RY*(  36) C  36                  0.00000     4.40210   
  1354. RY*(  37) C  36                  0.00000     3.09035   
  1355. RY*(  38) C  36                  0.00000     4.31506   
  1356. RY*(  39) C  36                  0.00000     4.04312   
  1357. RY*(  40) C  36                  0.00000     4.33179   
  1358. RY*(  41) C  36                  0.00000     2.79143   
  1359. RY*(   1) C  37                  0.00189     1.73066   
  1360. RY*(   2) C  37                  0.00073     2.23599   
  1361. RY*(   3) C  37                  0.00034     2.03223   
  1362. RY*(   4) C  37                  0.00016     2.09843   
  1363. RY*(   5) C  37                  0.00010     1.74496   
  1364. RY*(   6) C  37                  0.00007     1.90540   
  1365. RY*(   7) C  37                  0.00004     3.19994   
  1366. RY*(   8) C  37                  0.00004     2.05440   
  1367. RY*(   9) C  37                  0.00003     2.66240   
  1368. RY*(  10) C  37                  0.00001     2.53424   
  1369. RY*(  11) C  37                  0.00000     2.46024   
  1370. RY*(  12) C  37                  0.00000     2.83009   
  1371. RY*(  13) C  37                  0.00001     2.23694   
  1372. RY*(  14) C  37                  0.00000     3.02803   
  1373. RY*(  15) C  37                  0.00000     2.94825   
  1374. RY*(  16) C  37                  0.00000     1.80618   
  1375. RY*(  17) C  37                  0.00000     3.41415   
  1376. RY*(  18) C  37                  0.00000     2.50802   
  1377. RY*(  19) C  37                  0.00000     5.57851   
  1378. RY*(  20) C  37                  0.00000     3.40417   
  1379. RY*(  21) C  37                  0.00000     4.34011   
  1380. RY*(  22) C  37                  0.00000     2.50843   
  1381. RY*(  23) C  37                  0.00000     3.62748   
  1382. RY*(  24) C  37                  0.00000     2.99510   
  1383. RY*(  25) C  37                  0.00000     2.11435   
  1384. RY*(  26) C  37                  0.00000     3.37488   
  1385. RY*(  27) C  37                  0.00000     2.75760   
  1386. RY*(  28) C  37                  0.00000     5.46528   
  1387. RY*(  29) C  37                  0.00000     3.56002   
  1388. RY*(  30) C  37                  0.00000     4.94874   
  1389. RY*(  31) C  37                  0.00000     3.66697   
  1390. RY*(  32) C  37                  0.00000     4.77961   
  1391. RY*(  33) C  37                  0.00000     4.04660   
  1392. RY*(  34) C  37                  0.00000     4.90231   
  1393. RY*(  35) C  37                  0.00000     3.44810   
  1394. RY*(  36) C  37                  0.00000     4.92278   
  1395. RY*(  37) C  37                  0.00000     4.20356   
  1396. RY*(  38) C  37                  0.00000     4.38682   
  1397. RY*(  39) C  37                  0.00000     3.30585   
  1398. RY*(  40) C  37                  0.00000     5.12531   
  1399. RY*(  41) C  37                  0.00000     3.47244   
  1400. RY*(   1) H  38                  0.00105     0.84178   
  1401. RY*(   2) H  38                  0.00041     1.03971   
  1402. RY*(   3) H  38                  0.00032     1.45091   
  1403. RY*(   4) H  38                  0.00014     2.43337   
  1404. RY*(   5) H  38                  0.00012     2.38098   
  1405. RY*(   6) H  38                  0.00008     2.26527   
  1406. RY*(   7) H  38                  0.00001     1.98091   
  1407. RY*(   8) H  38                  0.00001     3.81962   
  1408. RY*(   9) H  38                  0.00001     2.40889   
  1409. RY*(  10) H  38                  0.00001     3.08121   
  1410. RY*(  11) H  38                  0.00001     5.68602   
  1411. RY*(  12) H  38                  0.00001     3.59775   
  1412. RY*(  13) H  38                  0.00001     2.49572   
  1413. RY*(  14) H  38                  0.00000     4.55474   
  1414. RY*(  15) H  38                  0.00000     2.56293   
  1415. RY*(  16) H  38                  0.00001     4.16104   
  1416. RY*(  17) H  38                  0.00001     3.18422   
  1417. RY*(  18) H  38                  0.00001     4.44630   
  1418. RY*(  19) H  38                  0.00000     2.67056   
  1419. RY*(  20) H  38                  0.00000     5.07224   
  1420. RY*(  21) H  38                  0.00000     2.52545   
  1421. RY*(  22) H  38                  0.00000     4.82020   
  1422. RY*(   1) H  39                  0.00109     1.65136   
  1423. RY*(   2) H  39                  0.00038     1.17190   
  1424. RY*(   3) H  39                  0.00034     1.02638   
  1425. RY*(   4) H  39                  0.00015     2.60948   
  1426. RY*(   5) H  39                  0.00014     3.32775   
  1427. RY*(   6) H  39                  0.00009     3.42595   
  1428. RY*(   7) H  39                  0.00004     3.10709   
  1429. RY*(   8) H  39                  0.00002     3.88599   
  1430. RY*(   9) H  39                  0.00001     3.73464   
  1431. RY*(  10) H  39                  0.00000     4.92433   
  1432. RY*(  11) H  39                  0.00000     4.18806   
  1433. RY*(  12) H  39                  0.00000     3.97255   
  1434. RY*(  13) H  39                  0.00001     2.85497   
  1435. RY*(  14) H  39                  0.00000     6.30858   
  1436. RY*(  15) H  39                  0.00000     2.45287   
  1437. RY*(  16) H  39                  0.00000     5.13636   
  1438. RY*(  17) H  39                  0.00000     4.94288   
  1439. RY*(  18) H  39                  0.00000     5.25053   
  1440. RY*(  19) H  39                  0.00001     2.37084   
  1441. RY*(  20) H  39                  0.00000     4.25063   
  1442. RY*(  21) H  39                  0.00000     2.76040   
  1443. RY*(  22) H  39                  0.00000     4.27239   
  1444. RY*(   1) H  40                  0.00089     0.82976   
  1445. RY*(   2) H  40                  0.00036     1.12510   
  1446. RY*(   3) H  40                  0.00023     1.81827   
  1447. RY*(   4) H  40                  0.00019     1.97597   
  1448. RY*(   5) H  40                  0.00008     2.32116   
  1449. RY*(   6) H  40                  0.00007     2.58945   
  1450. RY*(   7) H  40                  0.00003     2.08653   
  1451. RY*(   8) H  40                  0.00000     4.48996   
  1452. RY*(   9) H  40                  0.00000     2.98841   
  1453. RY*(  10) H  40                  0.00000     2.56775   
  1454. RY*(  11) H  40                  0.00001     4.29780   
  1455. RY*(  12) H  40                  0.00000     3.16657   
  1456. RY*(  13) H  40                  0.00001     3.51163   
  1457. RY*(  14) H  40                  0.00000     4.65013   
  1458. RY*(  15) H  40                  0.00001     2.10908   
  1459. RY*(  16) H  40                  0.00000     4.45367   
  1460. RY*(  17) H  40                  0.00000     2.20730   
  1461. RY*(  18) H  40                  0.00000     4.28245   
  1462. RY*(  19) H  40                  0.00001     2.22515   
  1463. RY*(  20) H  40                  0.00000     4.37173   
  1464. RY*(  21) H  40                  0.00001     2.06808   
  1465. RY*(  22) H  40                  0.00000     4.38659   
  1466. RY*(   1) H  41                  0.00095     1.22017   
  1467. RY*(   2) H  41                  0.00032     1.42774   
  1468. RY*(   3) H  41                  0.00017     1.74040   
  1469. RY*(   4) H  41                  0.00014     2.15543   
  1470. RY*(   5) H  41                  0.00007     2.41317   
  1471. RY*(   6) H  41                  0.00003     1.99088   
  1472. RY*(   7) H  41                  0.00003     1.93965   
  1473. RY*(   8) H  41                  0.00000     5.21229   
  1474. RY*(   9) H  41                  0.00000     3.66282   
  1475. RY*(  10) H  41                  0.00000     3.77398   
  1476. RY*(  11) H  41                  0.00001     2.10863   
  1477. RY*(  12) H  41                  0.00000     3.89371   
  1478. RY*(  13) H  41                  0.00000     2.37826   
  1479. RY*(  14) H  41                  0.00000     4.84899   
  1480. RY*(  15) H  41                  0.00000     2.03885   
  1481. RY*(  16) H  41                  0.00000     3.95610   
  1482. RY*(  17) H  41                  0.00000     1.91762   
  1483. RY*(  18) H  41                  0.00000     4.49301   
  1484. RY*(  19) H  41                  0.00000     2.28031   
  1485. RY*(  20) H  41                  0.00000     4.36513   
  1486. RY*(  21) H  41                  0.00000     2.01056   
  1487. RY*(  22) H  41                  0.00000     3.95686   
  1488. RY*(   1) H  42                  0.00098     1.04005   
  1489. RY*(   2) H  42                  0.00034     1.40200   
  1490. RY*(   3) H  42                  0.00022     1.78964   
  1491. RY*(   4) H  42                  0.00020     2.36413   
  1492. RY*(   5) H  42                  0.00010     2.16248   
  1493. RY*(   6) H  42                  0.00007     2.79389   
  1494. RY*(   7) H  42                  0.00003     3.40734   
  1495. RY*(   8) H  42                  0.00000     3.52571   
  1496. RY*(   9) H  42                  0.00000     3.45646   
  1497. RY*(  10) H  42                  0.00001     4.02928   
  1498. RY*(  11) H  42                  0.00000     5.88410   
  1499. RY*(  12) H  42                  0.00001     6.06923   
  1500. RY*(  13) H  42                  0.00001     4.28483   
  1501. RY*(  14) H  42                  0.00000     1.68381   
  1502. RY*(  15) H  42                  0.00001     4.78236   
  1503. RY*(  16) H  42                  0.00000     3.34460   
  1504. RY*(  17) H  42                  0.00000     3.82013   
  1505. RY*(  18) H  42                  0.00000     3.44611   
  1506. RY*(  19) H  42                  0.00000     3.96308   
  1507. RY*(  20) H  42                  0.00000     2.78326   
  1508. RY*(  21) H  42                  0.00000     3.99580   
  1509. RY*(  22) H  42                  0.00000     3.75967   
  1546. BD*(   1) O  33 - C  35          0.03877     6.92608   
  1547. BD*(   1) O  34 - C  35          0.05253     7.38276   
  1548. BD*(   1) C  35 - C  36          0.08108     9.76197   
  1549. BD*(   1) C  36 - C  37          0.00672     6.83380   
  1550. BD*(   1) C  36 - H  38          0.01135     9.30129   
  1551. BD*(   1) C  36 - H  39          0.01141     6.49321   
  1552. BD*(   1) C  37 - H  40          0.00785     6.40821   
  1553. BD*(   1) C  37 - H  41          0.00761     5.14005   
  1554. BD*(   1) C  37 - H  42          0.00769     9.26044   
       -------------------------------
              Total Lewis   38.91879  ( 97.5612%)
        Valence non-Lewis    0.90318  (  2.2641%)
        Rydberg non-Lewis    0.06969  (  0.1747%)
       -------------------------------
            Total unit  2   39.89166  (100.0000%)
           Charge unit  2   -0.89166
 Unable to Open any file for archive entry.
 1\1\GINC-GADI-HMEM-CLX-0046\SP\RDSDPBEP86-FC\Aug-CC-pVTZ\C15H16F6N1O4(
 1-)\HIO507\28-Apr-2021\0\\# DSDPBEP86/AUG-cc-PVTZ SCF=Tight INT(grid=u
 ltrafine) Pop=NBO MaxDisk=1400000MB\\NM2CA_carboxy_c2.DSDPBEP86_AUG-cc
 -PVTZ\\-1,1\C,0,-5.9217828195,1.2695615317,0.1947820683\N,0,-4.7122865
 711,0.6030701936,0.0800541795\C,0,-3.5026028746,1.2008441875,-0.058209
 558\O,0,-3.2571165871,2.3889969733,-0.1295334412\O,0,-2.5381614648,0.2
 57174375,-0.1185124384\C,0,-1.2102004546,0.7400996481,-0.2580047925\C,
 0,-0.2965297042,-0.4682152351,-0.3045109082\C,0,1.1649015851,-0.053652
 0794,-0.4481105407\C,0,-7.0852186803,0.474802672,0.1516116407\C,0,-8.3
 363177287,1.0443116318,0.2947474725\C,0,-8.4753642843,2.4356716704,0.4
 641481752\C,0,-7.3223455953,3.2085843364,0.4942664136\C,0,-6.057201976
 1,2.6512268145,0.3627038079\H,0,-4.7248541458,-0.4645060121,0.18246163
 46\H,0,-0.9656712475,1.3942643889,0.5850423116\H,0,-1.1295940293,1.338
 921411,-1.1707420553\H,0,-0.6001880285,-1.1057056737,-1.1389411514\H,0
 ,-0.4446044919,-1.0549376951,0.6057575168\H,0,1.3263444347,0.519581090
 1,-1.3653067449\H,0,1.8225258937,-0.9244156976,-0.4818417431\H,0,1.484
 1820174,0.5705219082,0.3911596538\H,0,-6.9799739161,-0.5933974724,-0.0
 364442654\H,0,-5.1818934493,3.2815501319,0.3866384282\C,0,-9.791268533
 9,3.1325755756,0.6580688559\C,0,-9.525287183,0.1165707517,0.2151738125
 \H,0,-7.4077393242,4.2803273398,0.6229415808\F,0,-10.7514964792,2.6997
 539821,-0.1717915357\F,0,-9.6834237018,4.4606852243,0.4439369757\F,0,-
 10.2738056445,3.0065505372,1.9093763151\F,0,-9.1845489546,-1.156866613
 7,0.404890394\F,0,-10.1400468185,0.1817250826,-0.9792403903\F,0,-10.45
 66309714,0.408584209,1.1447932716\O,0,-6.3881587262,-2.429962482,-0.89
 89183813\O,0,-4.7136386194,-2.0035400307,0.5240398848\C,0,-5.473170098
 3,-2.7734072007,-0.1337978813\C,0,-5.245008408,-4.2844471118,0.0539241
 044\C,0,-3.9956726589,-4.6418278584,0.8482798672\H,0,-5.2274258036,-4.
 7345762783,-0.9429645004\H,0,-6.142644206,-4.6802822829,0.5411299368\H
 ,0,-3.1009501599,-4.2534241845,0.3572784069\H,0,-3.8871731826,-5.72579
 00506,0.9591564378\H,0,-4.029696408,-4.1902017076,1.8405571817\\Versio
 n=ES64L-G16RevC.01\State=1-A\HF=-1531.7286966\MP2=-1534.3013355\RMSD=2
 .394e-09\PG=C01 [X(C15H16F6N1O4)]\\@
 The archive entry for this job was punched.


 A SLIP OF THE FOOT YOU MAY SOON RECOVER, BUT A SLIP OF THE TONGUE
 YOU MAY NEVER GET OVER. -- BEN FRANKLIN
 Job cpu time:      10 days 11 hours 55 minutes 27.1 seconds.
 Elapsed time:       0 days  7 hours 53 minutes 22.5 seconds.
 File lengths (MBytes):  RWF= 984128 Int=      0 D2E=      0 Chk=    160 Scr=      1
 Normal termination of Gaussian 16 at Wed Apr 28 20:01:42 2021.
