 Entering Gaussian System, Link 0=/apps/gaussian/g16c01/g16/g16
 Initial command:
 /apps/gaussian/g16c01/g16/l1.exe "/jobfs/19479170.gadi-pbs/Gau-366342.inp" -scrdir="/jobfs/19479170.gadi-pbs/"
 Entering Link 1 = /apps/gaussian/g16c01/g16/l1.exe PID=    366343.
  
 Copyright (c) 1988-2019, Gaussian, Inc.  All Rights Reserved.
  
 This is part of the Gaussian(R) 16 program.  It is based on
 the Gaussian(R) 09 system (copyright 2009, Gaussian, Inc.),
 the Gaussian(R) 03 system (copyright 2003, Gaussian, Inc.),
 the Gaussian(R) 98 system (copyright 1998, Gaussian, Inc.),
 the Gaussian(R) 94 system (copyright 1995, Gaussian, Inc.),
 the Gaussian 92(TM) system (copyright 1992, Gaussian, Inc.),
 the Gaussian 90(TM) system (copyright 1990, Gaussian, Inc.),
 the Gaussian 88(TM) system (copyright 1988, Gaussian, Inc.),
 the Gaussian 86(TM) system (copyright 1986, Carnegie Mellon
 University), and the Gaussian 82(TM) system (copyright 1983,
 Carnegie Mellon University). Gaussian is a federally registered
 trademark of Gaussian, Inc.
  
 This software contains proprietary and confidential information,
 including trade secrets, belonging to Gaussian, Inc.
  
 This software is provided under written license and may be
 used, copied, transmitted, or stored only in accord with that
 written license.
  
 The following legend is applicable only to US Government
 contracts under FAR:
  
                    RESTRICTED RIGHTS LEGEND
  
 Use, reproduction and disclosure by the US Government is
 subject to restrictions as set forth in subparagraphs (a)
 and (c) of the Commercial Computer Software - Restricted
 Rights clause in FAR 52.227-19.
  
 Gaussian, Inc.
 340 Quinnipiac St., Bldg. 40, Wallingford CT 06492
  
  
 ---------------------------------------------------------------
 Warning -- This program may not be used in any manner that
 competes with the business of Gaussian, Inc. or will provide
 assistance to any competitor of Gaussian, Inc.  The licensee
 of this program is prohibited from giving any competitor of
 Gaussian, Inc. access to this program.  By using this program,
 the user acknowledges that Gaussian, Inc. is engaged in the
 business of creating and licensing software in the field of
 computational chemistry and represents and warrants to the
 licensee that it is not a competitor of Gaussian, Inc. and that
 it will not use this program in any manner prohibited above.
 ---------------------------------------------------------------
  

 Cite this work as:
 Gaussian 16, Revision C.01,
 M. J. Frisch, G. W. Trucks, H. B. Schlegel, G. E. Scuseria, 
 M. A. Robb, J. R. Cheeseman, G. Scalmani, V. Barone, 
 G. A. Petersson, H. Nakatsuji, X. Li, M. Caricato, A. V. Marenich, 
 J. Bloino, B. G. Janesko, R. Gomperts, B. Mennucci, H. P. Hratchian, 
 J. V. Ortiz, A. F. Izmaylov, J. L. Sonnenberg, D. Williams-Young, 
 F. Ding, F. Lipparini, F. Egidi, J. Goings, B. Peng, A. Petrone, 
 T. Henderson, D. Ranasinghe, V. G. Zakrzewski, J. Gao, N. Rega, 
 G. Zheng, W. Liang, M. Hada, M. Ehara, K. Toyota, R. Fukuda, 
 J. Hasegawa, M. Ishida, T. Nakajima, Y. Honda, O. Kitao, H. Nakai, 
 T. Vreven, K. Throssell, J. A. Montgomery, Jr., J. E. Peralta, 
 F. Ogliaro, M. J. Bearpark, J. J. Heyd, E. N. Brothers, K. N. Kudin, 
 V. N. Staroverov, T. A. Keith, R. Kobayashi, J. Normand, 
 K. Raghavachari, A. P. Rendell, J. C. Burant, S. S. Iyengar, 
 J. Tomasi, M. Cossi, J. M. Millam, M. Klene, C. Adamo, R. Cammi, 
 J. W. Ochterski, R. L. Martin, K. Morokuma, O. Farkas, 
 J. B. Foresman, and D. J. Fox, Gaussian, Inc., Wallingford CT, 2019.
 
 ******************************************
 Gaussian 16:  ES64L-G16RevC.01  3-Jul-2019
                22-Mar-2021 
 ******************************************
 %NprocShared=32
 Will use up to   32 processors via shared memory.
 %Mem=10000MB
 %chk=NM2CA_carboxy.M062X_6-311pGd_opt_Pentadecane_GD3.chk
 ----------------------------------------------------------------------
 # M062X/6-311+G* SCF=Tight INT(grid=ultrafine) OPT=CalcFC IOP(2/17=4) 
 EmpiricalDispersion=GD3 SCRF=(SMD,Solvent=n-Pentadecane) MaxDisk=10000
 MB
 ----------------------------------------------------------------------
 1/10=4,18=20,19=15,26=6,38=1/1,3;
 2/9=110,12=2,17=4,18=5,40=1/2;
 3/5=4,6=6,7=11,11=2,25=1,30=1,70=32201,71=2,72=151,74=-55,75=-5,124=31,140=1/1,2,3;
 4//1;
 5/5=2,32=2,38=5,53=151/2;
 8/6=4,10=90,11=11/1;
 11/6=1,8=1,9=11,15=111,16=1/1,2,10;
 10/6=1,13=1/2;
 6/7=2,8=2,9=2,10=2,28=1/1;
 7/10=1,25=1/1,2,3,16;
 1/10=4,18=20,19=15,26=6/3(2);
 2/9=110,17=4/2;
 99//99;
 2/9=110,17=4/2;
 3/5=4,6=6,7=11,11=2,25=1,30=1,70=32205,71=1,72=151,74=-55,75=-5,124=31/1,2,3;
 4/5=5,16=3,69=1/1;
 5/5=2,32=2,38=5,53=151/2;
 7//1,2,3,16;
 1/18=20,19=15,26=6/3(-5);
 2/9=110,17=4/2;
 6/7=2,8=2,9=2,10=2,19=2,28=1/1;
 99/9=1/99;
 ------------------------------------------------
 NM2CA_carboxy.M062X_6-311pGd_opt_Pentadecane_GD3
 ------------------------------------------------
 Symbolic Z-matrix:
 Charge = -1 Multiplicity = 1
 C                    -6.06063   1.2031    0.20071 
 N                    -4.76129   0.58133   0.12276 
 C                    -3.53905   1.1934    0.08742 
 O                    -3.42769   2.40832   0.11869 
 O                    -2.42141   0.42387   0.01124 
 C                    -1.14214   0.94472  -0.03406 
 C                    -0.12025  -0.18669  -0.1181 
 C                     1.30241   0.36554  -0.17011 
 C                    -6.28468   2.59662   0.28021 
 C                    -7.58849   3.14397   0.35463 
 C                    -8.70828   2.25612   0.3486 
 C                    -8.4693    0.87527   0.26986 
 C                    -7.17904   0.36338   0.19827 
 H                    -4.74374  -0.56466   0.0825 
 H                    -0.95361   1.54562   0.88353 
 H                    -1.04051   1.60102  -0.92714 
 H                    -0.30978  -0.78948  -1.03265 
 H                    -0.22254  -0.84483   0.77186 
 H                     1.43294   1.01393  -1.06299 
 H                     2.02754  -0.47282  -0.23095 
 H                     1.52048   0.95861   0.74388 
 H                    -5.46437   3.28262   0.28811 
 H                    -7.04041  -0.81901   0.13285 
 C                    -10.17525   2.65959   0.42095 
 C                    -7.73673   4.6566    0.43819 
 H                    -9.29713   0.17599   0.26347 
 F                    -10.39924   4.01666   0.49827 
 F                    -10.7482   2.07618   1.53709 
 F                    -10.82714   2.19098  -0.70593 
 F                    -6.5158    5.31029   0.42907 
 F                    -8.37781   5.00074   1.61466 
 F                    -8.45752   5.11805  -0.64854 
 O                    -6.70525  -2.86267   0.12019 
 O                    -4.48357  -2.62558   0.07417 
 C                    -5.45538  -3.37476   0.09401 
 C                    -5.28964  -4.87145   0.09074 
 C                    -3.82924  -5.31907   0.06284 
 H                    -5.80783  -5.28376  -0.8014 
 H                    -5.77261  -5.28353   1.00254 
 H                    -3.32739  -4.94186  -0.85356 
 H                    -3.78225  -6.42869   0.0622 
 H                    -3.29296  -4.94164   0.95948 
 
 Add virtual bond connecting atoms O33        and H23        Dist= 3.91D+00.
 Add virtual bond connecting atoms O34        and H14        Dist= 3.93D+00.

 GradGradGradGradGradGradGradGradGradGradGradGradGradGradGradGradGradGrad
 Berny optimization.
 Initialization pass.
                           ----------------------------
                           !    Initial Parameters    !
                           ! (Angstroms and Degrees)  !
 --------------------------                            --------------------------
 ! Name  Definition              Value          Derivative Info.                !
 --------------------------------------------------------------------------------
 ! R1    R(1,2)                  1.4426         calculate D2E/DX2 analytically  !
 ! R2    R(1,9)                  1.4137         calculate D2E/DX2 analytically  !
 ! R3    R(1,13)                 1.3986         calculate D2E/DX2 analytically  !
 ! R4    R(2,3)                  1.3674         calculate D2E/DX2 analytically  !
 ! R5    R(2,14)                 1.1468         calculate D2E/DX2 analytically  !
 ! R6    R(3,4)                  1.2204         calculate D2E/DX2 analytically  !
 ! R7    R(3,5)                  1.3591         calculate D2E/DX2 analytically  !
 ! R8    R(5,6)                  1.382          calculate D2E/DX2 analytically  !
 ! R9    R(6,7)                  1.5269         calculate D2E/DX2 analytically  !
 ! R10   R(6,15)                 1.1129         calculate D2E/DX2 analytically  !
 ! R11   R(6,16)                 1.1129         calculate D2E/DX2 analytically  !
 ! R12   R(7,8)                  1.527          calculate D2E/DX2 analytically  !
 ! R13   R(7,17)                 1.1116         calculate D2E/DX2 analytically  !
 ! R14   R(7,18)                 1.1116         calculate D2E/DX2 analytically  !
 ! R15   R(8,19)                 1.1112         calculate D2E/DX2 analytically  !
 ! R16   R(8,20)                 1.1101         calculate D2E/DX2 analytically  !
 ! R17   R(8,21)                 1.1112         calculate D2E/DX2 analytically  !
 ! R18   R(9,10)                 1.416          calculate D2E/DX2 analytically  !
 ! R19   R(9,22)                 1.0694         calculate D2E/DX2 analytically  !
 ! R20   R(10,11)                1.4291         calculate D2E/DX2 analytically  !
 ! R21   R(10,25)                1.5222         calculate D2E/DX2 analytically  !
 ! R22   R(11,12)                1.4036         calculate D2E/DX2 analytically  !
 ! R23   R(11,24)                1.5232         calculate D2E/DX2 analytically  !
 ! R24   R(12,13)                1.3899         calculate D2E/DX2 analytically  !
 ! R25   R(12,26)                1.0837         calculate D2E/DX2 analytically  !
 ! R26   R(13,23)                1.1923         calculate D2E/DX2 analytically  !
 ! R27   R(14,34)                2.0773         calculate D2E/DX2 analytically  !
 ! R28   R(23,33)                2.071          calculate D2E/DX2 analytically  !
 ! R29   R(24,27)                1.3776         calculate D2E/DX2 analytically  !
 ! R30   R(24,28)                1.3836         calculate D2E/DX2 analytically  !
 ! R31   R(24,29)                1.3836         calculate D2E/DX2 analytically  !
 ! R32   R(25,30)                1.3849         calculate D2E/DX2 analytically  !
 ! R33   R(25,31)                1.3833         calculate D2E/DX2 analytically  !
 ! R34   R(25,32)                1.3833         calculate D2E/DX2 analytically  !
 ! R35   R(33,35)                1.351          calculate D2E/DX2 analytically  !
 ! R36   R(34,35)                1.2272         calculate D2E/DX2 analytically  !
 ! R37   R(35,36)                1.5058         calculate D2E/DX2 analytically  !
 ! R38   R(36,37)                1.5277         calculate D2E/DX2 analytically  !
 ! R39   R(36,38)                1.1111         calculate D2E/DX2 analytically  !
 ! R40   R(36,39)                1.1111         calculate D2E/DX2 analytically  !
 ! R41   R(37,40)                1.1108         calculate D2E/DX2 analytically  !
 ! R42   R(37,41)                1.1106         calculate D2E/DX2 analytically  !
 ! R43   R(37,42)                1.1109         calculate D2E/DX2 analytically  !
 ! A1    A(2,1,9)              124.7974         calculate D2E/DX2 analytically  !
 ! A2    A(2,1,13)             117.478          calculate D2E/DX2 analytically  !
 ! A3    A(9,1,13)             117.7245         calculate D2E/DX2 analytically  !
 ! A4    A(1,2,3)              127.8484         calculate D2E/DX2 analytically  !
 ! A5    A(1,2,14)             116.512          calculate D2E/DX2 analytically  !
 ! A6    A(3,2,14)             115.6394         calculate D2E/DX2 analytically  !
 ! A7    A(2,3,4)              121.7696         calculate D2E/DX2 analytically  !
 ! A8    A(2,3,5)              118.8853         calculate D2E/DX2 analytically  !
 ! A9    A(4,3,5)              119.3448         calculate D2E/DX2 analytically  !
 ! A10   A(3,5,6)              123.3445         calculate D2E/DX2 analytically  !
 ! A11   A(5,6,7)              110.0022         calculate D2E/DX2 analytically  !
 ! A12   A(5,6,15)             109.4678         calculate D2E/DX2 analytically  !
 ! A13   A(5,6,16)             109.4559         calculate D2E/DX2 analytically  !
 ! A14   A(7,6,15)             109.3955         calculate D2E/DX2 analytically  !
 ! A15   A(7,6,16)             109.3706         calculate D2E/DX2 analytically  !
 ! A16   A(15,6,16)            109.1319         calculate D2E/DX2 analytically  !
 ! A17   A(6,7,8)              110.943          calculate D2E/DX2 analytically  !
 ! A18   A(6,7,17)             109.4501         calculate D2E/DX2 analytically  !
 ! A19   A(6,7,18)             109.4548         calculate D2E/DX2 analytically  !
 ! A20   A(8,7,17)             109.0833         calculate D2E/DX2 analytically  !
 ! A21   A(8,7,18)             109.0945         calculate D2E/DX2 analytically  !
 ! A22   A(17,7,18)            108.7802         calculate D2E/DX2 analytically  !
 ! A23   A(7,8,19)             110.3558         calculate D2E/DX2 analytically  !
 ! A24   A(7,8,20)             109.7142         calculate D2E/DX2 analytically  !
 ! A25   A(7,8,21)             110.3565         calculate D2E/DX2 analytically  !
 ! A26   A(19,8,20)            108.6572         calculate D2E/DX2 analytically  !
 ! A27   A(19,8,21)            109.0544         calculate D2E/DX2 analytically  !
 ! A28   A(20,8,21)            108.661          calculate D2E/DX2 analytically  !
 ! A29   A(1,9,10)             122.0008         calculate D2E/DX2 analytically  !
 ! A30   A(1,9,22)             120.7436         calculate D2E/DX2 analytically  !
 ! A31   A(10,9,22)            117.2555         calculate D2E/DX2 analytically  !
 ! A32   A(9,10,11)            118.7587         calculate D2E/DX2 analytically  !
 ! A33   A(9,10,25)            118.4688         calculate D2E/DX2 analytically  !
 ! A34   A(11,10,25)           122.7725         calculate D2E/DX2 analytically  !
 ! A35   A(10,11,12)           118.5571         calculate D2E/DX2 analytically  !
 ! A36   A(10,11,24)           126.15           calculate D2E/DX2 analytically  !
 ! A37   A(12,11,24)           115.2929         calculate D2E/DX2 analytically  !
 ! A38   A(11,12,13)           121.5511         calculate D2E/DX2 analytically  !
 ! A39   A(11,12,26)           120.338          calculate D2E/DX2 analytically  !
 ! A40   A(13,12,26)           118.1108         calculate D2E/DX2 analytically  !
 ! A41   A(1,13,12)            121.4077         calculate D2E/DX2 analytically  !
 ! A42   A(1,13,23)            120.1687         calculate D2E/DX2 analytically  !
 ! A43   A(12,13,23)           118.4236         calculate D2E/DX2 analytically  !
 ! A44   A(11,24,27)           114.8474         calculate D2E/DX2 analytically  !
 ! A45   A(11,24,28)           108.9924         calculate D2E/DX2 analytically  !
 ! A46   A(11,24,29)           108.9877         calculate D2E/DX2 analytically  !
 ! A47   A(27,24,28)           107.6237         calculate D2E/DX2 analytically  !
 ! A48   A(27,24,29)           107.6223         calculate D2E/DX2 analytically  !
 ! A49   A(28,24,29)           108.6077         calculate D2E/DX2 analytically  !
 ! A50   A(10,25,30)           112.5087         calculate D2E/DX2 analytically  !
 ! A51   A(10,25,31)           109.8187         calculate D2E/DX2 analytically  !
 ! A52   A(10,25,32)           109.8233         calculate D2E/DX2 analytically  !
 ! A53   A(30,25,31)           107.2617         calculate D2E/DX2 analytically  !
 ! A54   A(30,25,32)           107.2618         calculate D2E/DX2 analytically  !
 ! A55   A(31,25,32)           110.101          calculate D2E/DX2 analytically  !
 ! A56   A(23,33,35)           121.5939         calculate D2E/DX2 analytically  !
 ! A57   A(14,34,35)           120.4251         calculate D2E/DX2 analytically  !
 ! A58   A(33,35,34)           120.1015         calculate D2E/DX2 analytically  !
 ! A59   A(33,35,36)           118.5955         calculate D2E/DX2 analytically  !
 ! A60   A(34,35,36)           121.303          calculate D2E/DX2 analytically  !
 ! A61   A(35,36,37)           113.3579         calculate D2E/DX2 analytically  !
 ! A62   A(35,36,38)           108.6178         calculate D2E/DX2 analytically  !
 ! A63   A(35,36,39)           108.603          calculate D2E/DX2 analytically  !
 ! A64   A(37,36,38)           108.8111         calculate D2E/DX2 analytically  !
 ! A65   A(37,36,39)           108.7753         calculate D2E/DX2 analytically  !
 ! A66   A(38,36,39)           108.5776         calculate D2E/DX2 analytically  !
 ! A67   A(36,37,40)           110.3312         calculate D2E/DX2 analytically  !
 ! A68   A(36,37,41)           109.4627         calculate D2E/DX2 analytically  !
 ! A69   A(36,37,42)           110.316          calculate D2E/DX2 analytically  !
 ! A70   A(40,37,41)           108.6437         calculate D2E/DX2 analytically  !
 ! A71   A(40,37,42)           109.4148         calculate D2E/DX2 analytically  !
 ! A72   A(41,37,42)           108.6326         calculate D2E/DX2 analytically  !
 ! A73   L(2,14,34,5,-1)       173.754          calculate D2E/DX2 analytically  !
 ! A74   L(13,23,33,5,-1)      177.4588         calculate D2E/DX2 analytically  !
 ! A75   L(2,14,34,5,-2)       177.8687         calculate D2E/DX2 analytically  !
 ! A76   L(13,23,33,5,-2)      177.1067         calculate D2E/DX2 analytically  !
 ! D1    D(9,1,2,3)             -1.2439         calculate D2E/DX2 analytically  !
 ! D2    D(9,1,2,14)           178.9293         calculate D2E/DX2 analytically  !
 ! D3    D(13,1,2,3)           178.8056         calculate D2E/DX2 analytically  !
 ! D4    D(13,1,2,14)           -1.0213         calculate D2E/DX2 analytically  !
 ! D5    D(2,1,9,10)          -179.9936         calculate D2E/DX2 analytically  !
 ! D6    D(2,1,9,22)            -0.1072         calculate D2E/DX2 analytically  !
 ! D7    D(13,1,9,10)           -0.0432         calculate D2E/DX2 analytically  !
 ! D8    D(13,1,9,22)          179.8432         calculate D2E/DX2 analytically  !
 ! D9    D(2,1,13,12)         -179.977          calculate D2E/DX2 analytically  !
 ! D10   D(2,1,13,23)           -0.0366         calculate D2E/DX2 analytically  !
 ! D11   D(9,1,13,12)            0.0689         calculate D2E/DX2 analytically  !
 ! D12   D(9,1,13,23)         -179.9907         calculate D2E/DX2 analytically  !
 ! D13   D(1,2,3,4)             -0.1266         calculate D2E/DX2 analytically  !
 ! D14   D(1,2,3,5)           -179.9191         calculate D2E/DX2 analytically  !
 ! D15   D(14,2,3,4)           179.7016         calculate D2E/DX2 analytically  !
 ! D16   D(14,2,3,5)            -0.091          calculate D2E/DX2 analytically  !
 ! D17   D(1,2,34,35)            1.4313         calculate D2E/DX2 analytically  !
 ! D18   D(3,2,34,35)         -179.7187         calculate D2E/DX2 analytically  !
 ! D19   D(2,3,5,6)            179.784          calculate D2E/DX2 analytically  !
 ! D20   D(4,3,5,6)             -0.0136         calculate D2E/DX2 analytically  !
 ! D21   D(3,5,6,7)           -179.9362         calculate D2E/DX2 analytically  !
 ! D22   D(3,5,6,15)            59.8314         calculate D2E/DX2 analytically  !
 ! D23   D(3,5,6,16)           -59.7421         calculate D2E/DX2 analytically  !
 ! D24   D(5,6,7,8)            179.968          calculate D2E/DX2 analytically  !
 ! D25   D(5,6,7,17)            59.543          calculate D2E/DX2 analytically  !
 ! D26   D(5,6,7,18)           -59.5899         calculate D2E/DX2 analytically  !
 ! D27   D(15,6,7,8)           -59.7559         calculate D2E/DX2 analytically  !
 ! D28   D(15,6,7,17)          179.8191         calculate D2E/DX2 analytically  !
 ! D29   D(15,6,7,18)           60.6862         calculate D2E/DX2 analytically  !
 ! D30   D(16,6,7,8)            59.7222         calculate D2E/DX2 analytically  !
 ! D31   D(16,6,7,17)          -60.7028         calculate D2E/DX2 analytically  !
 ! D32   D(16,6,7,18)         -179.8357         calculate D2E/DX2 analytically  !
 ! D33   D(6,7,8,19)           -60.2968         calculate D2E/DX2 analytically  !
 ! D34   D(6,7,8,20)          -179.9934         calculate D2E/DX2 analytically  !
 ! D35   D(6,7,8,21)            60.3049         calculate D2E/DX2 analytically  !
 ! D36   D(17,7,8,19)           60.3456         calculate D2E/DX2 analytically  !
 ! D37   D(17,7,8,20)          -59.351          calculate D2E/DX2 analytically  !
 ! D38   D(17,7,8,21)         -179.0526         calculate D2E/DX2 analytically  !
 ! D39   D(18,7,8,19)          179.0476         calculate D2E/DX2 analytically  !
 ! D40   D(18,7,8,20)           59.351          calculate D2E/DX2 analytically  !
 ! D41   D(18,7,8,21)          -60.3506         calculate D2E/DX2 analytically  !
 ! D42   D(1,9,10,11)           -0.0106         calculate D2E/DX2 analytically  !
 ! D43   D(1,9,10,25)          179.9727         calculate D2E/DX2 analytically  !
 ! D44   D(22,9,10,11)        -179.9008         calculate D2E/DX2 analytically  !
 ! D45   D(22,9,10,25)           0.0825         calculate D2E/DX2 analytically  !
 ! D46   D(9,10,11,12)           0.0398         calculate D2E/DX2 analytically  !
 ! D47   D(9,10,11,24)        -179.9794         calculate D2E/DX2 analytically  !
 ! D48   D(25,10,11,12)       -179.9427         calculate D2E/DX2 analytically  !
 ! D49   D(25,10,11,24)          0.0381         calculate D2E/DX2 analytically  !
 ! D50   D(9,10,25,30)          -0.0082         calculate D2E/DX2 analytically  !
 ! D51   D(9,10,25,31)        -119.3995         calculate D2E/DX2 analytically  !
 ! D52   D(9,10,25,32)         119.3863         calculate D2E/DX2 analytically  !
 ! D53   D(11,10,25,30)        179.9744         calculate D2E/DX2 analytically  !
 ! D54   D(11,10,25,31)         60.5831         calculate D2E/DX2 analytically  !
 ! D55   D(11,10,25,32)        -60.6311         calculate D2E/DX2 analytically  !
 ! D56   D(10,11,12,13)         -0.0153         calculate D2E/DX2 analytically  !
 ! D57   D(10,11,12,26)        179.9844         calculate D2E/DX2 analytically  !
 ! D58   D(24,11,12,13)       -179.9981         calculate D2E/DX2 analytically  !
 ! D59   D(24,11,12,26)          0.0016         calculate D2E/DX2 analytically  !
 ! D60   D(10,11,24,27)          0.004          calculate D2E/DX2 analytically  !
 ! D61   D(10,11,24,28)       -120.809          calculate D2E/DX2 analytically  !
 ! D62   D(10,11,24,29)        120.8118         calculate D2E/DX2 analytically  !
 ! D63   D(12,11,24,27)        179.9854         calculate D2E/DX2 analytically  !
 ! D64   D(12,11,24,28)         59.1723         calculate D2E/DX2 analytically  !
 ! D65   D(12,11,24,29)        -59.2069         calculate D2E/DX2 analytically  !
 ! D66   D(11,12,13,1)          -0.0408         calculate D2E/DX2 analytically  !
 ! D67   D(11,12,13,23)       -179.9822         calculate D2E/DX2 analytically  !
 ! D68   D(26,12,13,1)         179.9594         calculate D2E/DX2 analytically  !
 ! D69   D(26,12,13,23)          0.0181         calculate D2E/DX2 analytically  !
 ! D70   D(1,13,33,35)           0.1543         calculate D2E/DX2 analytically  !
 ! D71   D(12,13,33,35)       -177.8606         calculate D2E/DX2 analytically  !
 ! D72   D(23,33,35,34)         -0.1553         calculate D2E/DX2 analytically  !
 ! D73   D(23,33,35,36)        179.8081         calculate D2E/DX2 analytically  !
 ! D74   D(14,34,35,33)          0.064          calculate D2E/DX2 analytically  !
 ! D75   D(14,34,35,36)       -179.8984         calculate D2E/DX2 analytically  !
 ! D76   D(33,35,36,37)       -179.8893         calculate D2E/DX2 analytically  !
 ! D77   D(33,35,36,38)         59.0385         calculate D2E/DX2 analytically  !
 ! D78   D(33,35,36,39)        -58.873          calculate D2E/DX2 analytically  !
 ! D79   D(34,35,36,37)          0.0737         calculate D2E/DX2 analytically  !
 ! D80   D(34,35,36,38)       -120.9985         calculate D2E/DX2 analytically  !
 ! D81   D(34,35,36,39)        121.09           calculate D2E/DX2 analytically  !
 ! D82   D(35,36,37,40)        -60.5118         calculate D2E/DX2 analytically  !
 ! D83   D(35,36,37,41)        179.9816         calculate D2E/DX2 analytically  !
 ! D84   D(35,36,37,42)         60.498          calculate D2E/DX2 analytically  !
 ! D85   D(38,36,37,40)         60.4515         calculate D2E/DX2 analytically  !
 ! D86   D(38,36,37,41)        -59.0551         calculate D2E/DX2 analytically  !
 ! D87   D(38,36,37,42)       -178.5386         calculate D2E/DX2 analytically  !
 ! D88   D(39,36,37,40)        178.569          calculate D2E/DX2 analytically  !
 ! D89   D(39,36,37,41)         59.0625         calculate D2E/DX2 analytically  !
 ! D90   D(39,36,37,42)        -60.4211         calculate D2E/DX2 analytically  !
 --------------------------------------------------------------------------------
 Trust Radius=3.00D-01 FncErr=5.00D-06 GrdErr=5.00D-06 EigMax=2.50D+02 EigMin=1.00D-04
 Number of steps in this run=    219 maximum allowed number of steps=    252.
 GradGradGradGradGradGradGradGradGradGradGradGradGradGradGradGradGradGrad

                          Input orientation:                          
 ---------------------------------------------------------------------
 Center     Atomic      Atomic             Coordinates (Angstroms)
 Number     Number       Type             X           Y           Z
 ---------------------------------------------------------------------
      1          6           0       -6.060630    1.203100    0.200710
      2          7           0       -4.761290    0.581330    0.122760
      3          6           0       -3.539050    1.193400    0.087420
      4          8           0       -3.427690    2.408320    0.118690
      5          8           0       -2.421410    0.423870    0.011240
      6          6           0       -1.142140    0.944720   -0.034060
      7          6           0       -0.120250   -0.186690   -0.118100
      8          6           0        1.302410    0.365540   -0.170110
      9          6           0       -6.284680    2.596620    0.280210
     10          6           0       -7.588490    3.143970    0.354630
     11          6           0       -8.708280    2.256120    0.348600
     12          6           0       -8.469300    0.875270    0.269860
     13          6           0       -7.179040    0.363380    0.198270
     14          1           0       -4.743740   -0.564660    0.082500
     15          1           0       -0.953610    1.545620    0.883530
     16          1           0       -1.040510    1.601020   -0.927140
     17          1           0       -0.309780   -0.789480   -1.032650
     18          1           0       -0.222540   -0.844830    0.771860
     19          1           0        1.432940    1.013930   -1.062990
     20          1           0        2.027540   -0.472820   -0.230950
     21          1           0        1.520480    0.958610    0.743880
     22          1           0       -5.464370    3.282620    0.288110
     23          1           0       -7.040410   -0.819010    0.132850
     24          6           0      -10.175250    2.659590    0.420950
     25          6           0       -7.736730    4.656600    0.438190
     26          1           0       -9.297130    0.175990    0.263470
     27          9           0      -10.399240    4.016660    0.498270
     28          9           0      -10.748200    2.076180    1.537090
     29          9           0      -10.827140    2.190980   -0.705930
     30          9           0       -6.515800    5.310290    0.429070
     31          9           0       -8.377810    5.000740    1.614660
     32          9           0       -8.457520    5.118050   -0.648540
     33          8           0       -6.705250   -2.862670    0.120190
     34          8           0       -4.483570   -2.625580    0.074170
     35          6           0       -5.455380   -3.374760    0.094010
     36          6           0       -5.289640   -4.871450    0.090740
     37          6           0       -3.829240   -5.319070    0.062840
     38          1           0       -5.807830   -5.283760   -0.801400
     39          1           0       -5.772610   -5.283530    1.002540
     40          1           0       -3.327390   -4.941860   -0.853560
     41          1           0       -3.782250   -6.428690    0.062200
     42          1           0       -3.292960   -4.941640    0.959480
 ---------------------------------------------------------------------
                    Distance matrix (angstroms):
                    1          2          3          4          5
     1  C    0.000000
     2  N    1.442553   0.000000
     3  C    2.524142   1.367388   0.000000
     4  O    2.896835   2.261946   1.220414   0.000000
     5  O    3.726529   2.347822   1.359080   2.227597   0.000000
     6  C    4.930864   3.640727   2.412836   2.718308   1.381980
     7  C    6.109114   4.710321   3.692571   4.210618   2.384292
     8  C    7.419796   6.074603   4.918476   5.160446   3.728690
     9  C    1.413654   2.531186   3.089446   2.867741   4.440500
    10  C    2.474879   3.822819   4.502676   4.231915   5.849408
    11  C    2.853204   4.293560   5.283799   5.287783   6.557110
    12  C    2.431860   3.722550   4.943871   5.271710   6.070224
    13  C    1.398562   2.428728   3.735070   4.273259   4.761689
    14  H    2.207521   1.146831   2.131215   3.251447   2.524973
    15  H    5.163837   4.000882   2.728067   2.729524   2.042951
    16  H    5.160619   3.998282   2.727304   2.728392   2.042823
    17  H    6.209978   4.798962   3.951526   4.612252   2.649699
    18  H    6.213173   4.801616   3.952477   4.613307   2.650127
    19  H    7.601731   6.321521   5.106500   5.192920   4.044522
    20  H    8.271247   6.879285   5.819328   6.179219   4.544872
    21  H    7.604475   6.323667   5.107339   5.193930   4.044899
    22  H    2.165079   2.796181   2.848153   2.222874   4.184342
    23  H    2.248000   2.674966   4.038735   4.844337   4.784841
    24  C    4.370351   5.806810   6.804418   6.758999   8.080120
    25  C    3.846085   5.055746   5.453193   4.870798   6.808151
    26  H    3.396149   4.556089   5.849923   6.281288   6.884809
    27  F    5.179594   6.612789   7.429791   7.164729   8.763054
    28  F    4.951918   6.330719   7.406260   7.464050   8.625183
    29  F    4.951517   6.330264   7.398704   7.448429   8.619357
    30  F    4.138640   5.053236   5.091812   4.249022   6.388718
    31  F    4.668045   5.902217   6.343650   5.784657   7.680976
    32  F    4.668312   5.902444   6.335287   5.764587   7.674976
    33  O    4.117342   3.954760   5.145639   6.206910   5.400417
    34  O    4.142695   3.219280   3.934069   5.143638   3.681794
    35  C    4.618930   4.016620   4.953832   6.128307   4.862244
    36  C    6.124269   5.478411   6.312447   7.514166   6.022747
    37  C    6.894694   5.973862   6.518978   7.738018   5.913206
    38  H    6.568675   6.028980   6.920330   8.104303   6.686200
    39  H    6.542343   6.016092   6.912081   8.089771   6.692356
    40  H    6.807541   5.789205   6.210609   7.414882   5.509967
    41  H    7.965828   7.078317   7.626011   8.844300   6.986563
    42  H    6.781855   5.775750   6.201594   7.399121   5.517921
                    6          7          8          9         10
     6  C    0.000000
     7  C    1.526896   0.000000
     8  C    2.515906   1.526966   0.000000
     9  C    5.410477   6.775372   7.921139   0.000000
    10  C    6.822258   8.190933   9.329691   1.415998   0.000000
    11  C    7.688477   8.940883  10.200846   2.448357   1.429071
    12  C    7.333789   8.425254   9.794882   2.781316   2.435162
    13  C    6.069275   7.087255   8.489447   2.407064   2.814921
    14  H    3.906832   4.643249   6.122501   3.522396   4.681943
    15  H    1.112922   2.167637   2.755426   5.467074   6.845151
    16  H    1.112947   2.167333   2.754774   5.472681   6.848333
    17  H    2.167361   1.111611   2.162684   6.992046   8.389052
    18  H    2.167409   1.111594   2.162817   6.988193   8.387003
    19  H    2.773900   2.178693   1.111163   7.991918   9.377255
    20  H    3.477795   2.169702   1.110118   8.875570  10.290389
    21  H    2.773973   2.178696   1.111154   7.988654   9.375535
    22  H    4.924555   6.384414   7.382996   1.069377   2.129679
    23  H    6.158587   6.953518   8.431939   3.501338   4.006843
    24  C    9.205699  10.463982  11.719586   3.893624   2.632556
    25  C    7.582196   9.043101  10.024434   2.525257   1.522172
    26  H    8.196544   9.191967  10.610098   3.864529   3.425882
    27  F    9.768014  11.122306  12.276238   4.358173   2.946614
    28  F    9.799240  10.991522  12.290566   4.666221   3.538666
    29  F    9.787941  10.983458  12.277838   4.665936   3.538620
    30  F    6.938942   8.450991   9.270058   2.727559   2.418501
    31  F    8.457216   9.904503  10.880126   3.455683   2.378717
    32  F    8.444469   9.896045  10.866070   3.455636   2.378772
    33  O    6.743012   7.111953   8.638763   5.477804   6.075755
    34  O    4.891207   5.002371   6.517978   5.527913   6.557964
    35  C    6.105600   6.218713   7.728346   6.031566   6.863812
    36  C    7.144590   6.979483   8.423137   7.536450   8.342740
    37  C    6.816521   6.334877   7.661781   8.290632   9.264996
    38  H    7.819938   7.667828   9.103221   7.968542   8.691018
    39  H    7.829872   7.693035   9.129239   7.929738   8.645228
    40  H    6.332355   5.782585   7.076062   8.176777   9.219400
    41  H    7.832408   7.239152   8.489364   9.368346  10.305765
    42  H    6.345265   5.816942   7.110524   8.138622   9.175757
                   11         12         13         14         15
    11  C    0.000000
    12  C    1.403588   0.000000
    13  C    2.437958   1.389938   0.000000
    14  H    4.872903   3.998537   2.608706   0.000000
    15  H    7.805502   7.570440   6.373637   4.411351   0.000000
    16  H    7.800729   7.559527   6.362378   4.407205   1.813600
    17  H    9.039819   8.428861   7.073258   4.577565   3.088520
    18  H    9.044491   8.439182   7.083902   4.582026   2.502236
    19  H   10.314066   9.992501   8.728126   6.477304   3.125261
    20  H   11.092377  10.594895   9.254435   6.779153   3.768743
    21  H   10.318300  10.001367   8.736912   6.480604   2.546606
    22  H    3.402986   3.850360   3.386758   3.919585   4.870180
    23  H    3.504963   2.220604   1.192285   2.311260   6.572985
    24  C    1.523162   2.473235   3.781460   6.325475   9.300191
    25  C    2.591185   3.855315   4.335933   6.028769   7.475777
    26  H    2.163546   1.083668   2.127363   4.616782   8.477894
    27  F    2.445659   3.693937   4.879154   7.290133   9.771100
    28  F    2.367733   2.870791   4.179118   6.718884   9.830698
    29  F    2.367666   2.871005   4.179274   6.724800  10.021450
    30  F    3.760505   4.848805   4.996506   6.146165   6.731807
    31  F    3.040569   4.340088   4.994829   6.821118   8.221384
    32  F    3.041022   4.341057   4.995847   6.827867   8.450927
    33  O    5.501483   4.135997   3.261590   3.021555   7.286774
    34  O    6.461771   5.308511   4.026766   2.077294   5.524001
    35  C    6.507917   5.213194   4.117714   2.898832   6.715610
    36  C    7.909225   6.570168   5.566403   4.341257   7.785144
    37  C    9.014998   7.742278   6.597707   4.841602   7.487773
    38  H    8.159957   6.794459   5.896588   4.917669   8.546512
    39  H    8.117396   6.763119   5.874733   4.916582   8.359080
    40  H    9.066978   7.844763   6.639814   4.694905   7.123181
    41  H    9.988680   8.680979   7.595322   5.942367   8.500906
    42  H    9.028101   7.817066   6.619992   4.693806   6.896584
                   16         17         18         19         20
    16  H    0.000000
    17  H    2.501917   0.000000
    18  H    3.088342   1.807465   0.000000
    19  H    2.545797   2.508043   3.092293   0.000000
    20  H    3.768080   2.491197   2.491361   1.804512   0.000000
    21  H    3.124687   3.092205   2.508246   1.809835   1.804548
    22  H    4.886220   6.700463   6.689293   7.385480   8.396515
    23  H    6.555831   6.830860   6.847799   8.751421   9.081845
    24  C    9.294159  10.551613  10.557487  11.817798  12.615271
    25  C    7.485991   9.326454   9.318805   9.980252  11.049872
    26  H    8.462862   9.131512   9.145967  10.844171  11.354011
    27  F    9.770002  11.280067  11.281585  12.306681  13.232991
    28  F   10.026837  11.125475  10.950224  12.500758  13.146973
    29  F    9.806891  10.936396  11.129131  12.321627  13.136371
    30  F    6.751058   8.823747   8.809548   9.157916  10.337729
    31  F    8.476722  10.277549  10.069232  10.923153  11.901153
    32  F    8.213352  10.071351  10.265884  10.716192  11.889857
    33  O    7.287709   6.821231   6.820695   9.091649   9.060701
    34  O    5.542692   4.692210   4.670569   7.038768   6.864549
    35  C    6.729949   5.867728   5.851721   8.249133   8.032493
    36  C    7.809229   6.536321   6.507926   9.008988   8.543568
    37  C    7.526269   5.839853   5.790494   8.310531   7.607518
    38  H    8.375162   7.104969   7.305800   9.599900   9.212143
    39  H    8.573999   7.360774   7.110453   9.790014   9.246987
    40  H    6.931415   5.136176   5.391451   7.627322   7.002516
    41  H    8.542375   6.712483   6.659928   9.157339   8.325382
    42  H    7.172117   5.487110   5.123137   7.867231   7.049482
                   21         22         23         24         25
    21  H    0.000000
    22  H    7.375424   0.000000
    23  H    8.764823   4.396746   0.000000
    24  C   11.823186   4.753757   4.691576   0.000000
    25  C    9.973190   2.659693   5.528146   3.151940   0.000000
    26  H   10.856518   4.933742   2.469792   2.638970   4.747762
    27  F   12.308197   4.993588   5.899066   1.377603   2.738995
    28  F   12.344985   5.561862   4.909350   1.383621   4.115228
    29  F   12.493374   5.562292   4.909472   1.383624   4.115693
    30  F    9.144289   2.288410   6.158838   4.518612   1.384942
    31  F   10.727219   3.633153   6.152551   3.183821   1.383292
    32  F   10.899553   3.633877   6.153654   3.184090   1.383277
    33  O    9.091414   6.271568   2.070999   6.528914   7.596348
    34  O    7.024496   5.992876   3.131225   7.774863   7.984091
    35  C    8.237903   6.660215   3.007605   7.667949   8.356181
    36  C    8.988544   8.158330   4.414662   8.983028   9.843409
    37  C    8.276025   8.758622   5.528748  10.200936  10.720231
    38  H    9.749831   8.642214   4.725047   9.146874  10.201372
    39  H    9.603144   8.601415   4.721823   9.100255  10.148027
    40  H    7.801872   8.573924   5.635372  10.310170  10.641491
    41  H    9.118982   9.858504   6.487612  11.117373  11.775523
    42  H    7.617653   8.532538   5.632298  10.268137  10.589856
                   26         27         28         29         30
    26  H    0.000000
    27  F    4.002565   0.000000
    28  F    2.708954   2.228538   0.000000
    29  F    2.709401   2.228520   2.247343   0.000000
    30  F    5.841597   4.093821   5.440624   5.441137   0.000000
    31  F    5.094024   2.510163   3.765344   4.390798   2.229019
    32  F    5.095161   2.509683   4.390577   3.766448   2.229008
    33  O    3.996477   7.817524   6.537988   6.573571   8.180989
    34  O    5.572700   8.904738   7.968204   8.003042   8.199631
    35  C    5.234079   8.901588   7.733639   7.776450   8.755961
    36  C    6.447206  10.260243   8.953065   9.009801  10.260885
    37  C    7.754596  11.424113  10.234019  10.293807  10.969732
    38  H    6.566432  10.453134   9.167579   9.004128  10.688740
    39  H    6.540247  10.399689   8.899864   9.183433  10.635329
    40  H    7.942162  11.493197  10.489829  10.351109  10.812848
    41  H    8.606754  12.372552  11.092005  11.158818  12.058629
    42  H    7.919888  11.443910  10.254952  10.507698  10.759652
                   31         32         33         34         35
    31  F    0.000000
    32  F    2.267640   0.000000
    33  O    8.177048   8.206905   0.000000
    34  O    8.700516   8.733750   2.234769   0.000000
    35  C    9.000110   9.038365   1.350961   1.227224   0.000000
    36  C   10.455585  10.505813   2.457644   2.386201   1.505842
    37  C   11.384029  11.439428   3.782674   2.771852   2.534885
    38  H   10.872584  10.735077   2.741599   3.096160   2.137817
    39  H   10.626757  10.868656   2.740241   3.096481   2.137631
    40  H   11.421653  11.294337   4.084257   2.750016   2.807496
    41  H   12.416166  12.477600   4.611268   3.867252   3.482365
    42  H   11.186415  11.421724   4.082921   2.750538   2.807171
                   36         37         38         39         40
    36  C    0.000000
    37  C    1.527714   0.000000
    38  H    1.111051   2.159392   0.000000
    39  H    1.111058   2.158932   1.804284   0.000000
    40  H    2.178781   1.110824   2.504436   3.088842   0.000000
    41  H    2.167495   1.110615   2.481863   2.481363   1.804488
    42  H    2.178616   1.110861   3.089064   2.503479   1.813367
                   41         42
    41  H    0.000000
    42  H    1.804393   0.000000
 Stoichiometry    C15H16F6NO4(1-)
 Framework group  C1[X(C15H16F6NO4)]
 Deg. of freedom   120
 Full point group                 C1      NOp   1
 Largest Abelian subgroup         C1      NOp   1
 Largest concise Abelian subgroup C1      NOp   1
                         Standard orientation:                         
 ---------------------------------------------------------------------
 Center     Atomic      Atomic             Coordinates (Angstroms)
 Number     Number       Type             X           Y           Z
 ---------------------------------------------------------------------
      1          6           0        0.121642   -0.069945   -0.022985
      2          7           0       -1.288065   -0.376014   -0.025314
      3          6           0       -1.878887   -1.609150   -0.017917
      4          8           0       -1.220813   -2.636910   -0.010249
      5          8           0       -3.235719   -1.687086   -0.023480
      6          6           0       -3.927917   -2.883216   -0.021201
      7          6           0       -5.431334   -2.616643   -0.030524
      8          6           0       -6.217743   -3.925529   -0.028980
      9          6           0        1.156150   -1.032713    0.012925
     10          6           0        2.523609   -0.665146    0.013282
     11          6           0        2.862549    0.722646   -0.024105
     12          6           0        1.824068    1.666259   -0.058857
     13          6           0        0.489165    1.279012   -0.057862
     14          1           0       -2.006044    0.518177   -0.037561
     15          1           0       -3.661247   -3.464344    0.889718
     16          1           0       -3.651978   -3.472921   -0.923838
     17          1           0       -5.698217   -2.033379   -0.938409
     18          1           0       -5.708040   -2.025110    0.869011
     19          1           0       -5.969433   -4.526700   -0.929878
     20          1           0       -7.306383   -3.708325   -0.035958
     21          1           0       -5.979354   -4.518615    0.879911
     22          1           0        0.929845   -2.077439    0.042948
     23          1           0       -0.347904    2.127487   -0.088707
     24          6           0        4.270441    1.303877   -0.030041
     25          6           0        3.571505   -1.768444    0.053973
     26          1           0        2.048245    2.726101   -0.087410
     27          9           0        5.282458    0.369847    0.004558
     28          9           0        4.422366    2.127147    1.071573
     29          9           0        4.439491    2.062445   -1.174773
     30          9           0        3.008563   -3.033395    0.086508
     31          9           0        4.348511   -1.635588    1.190682
     32          9           0        4.366743   -1.702002   -1.075912
     33          8           0       -1.864896    3.536433   -0.037276
     34          8           0       -3.474243    1.986771    0.015095
     35          6           0       -3.165729    3.174557    0.007182
     36          6           0       -4.213528    4.255336    0.047112
     37          6           0       -5.640997    3.713455    0.098175
     38          1           0       -4.103352    4.889812   -0.858281
     39          1           0       -4.038127    4.886054    0.944820
     40          1           0       -5.852887    3.098666   -0.802417
     41          1           0       -6.357874    4.561263    0.126010
     42          1           0       -5.786577    3.095491    1.009734
 ---------------------------------------------------------------------
 Rotational constants (GHZ):           0.2289740           0.0926494           0.0678330
 Standard basis: 6-311+G(d) (5D, 7F)
 There are   646 symmetry adapted cartesian basis functions of A   symmetry.
 There are   620 symmetry adapted basis functions of A   symmetry.
   620 basis functions,  1016 primitive gaussians,   646 cartesian basis functions
   100 alpha electrons      100 beta electrons
       nuclear repulsion energy      2413.4136358011 Hartrees.
 NAtoms=   42 NActive=   42 NUniq=   42 SFac= 1.00D+00 NAtFMM=   60 NAOKFM=F Big=F
 Integral buffers will be    131072 words long.
 Raffenetti 2 integral format.
 Two-electron integral symmetry is turned on.
 Nuclear repulsion after empirical dispersion term =     2413.4112581403 Hartrees.
 Force inversion solution in PCM.
 ------------------------------------------------------------------------------
 Polarizable Continuum Model (PCM)
 =================================
 Model                : PCM.
 Atomic radii         : SMD-Coulomb.
 Polarization charges : Total charges.
 Charge compensation  : None.
 Solution method      : Matrix inversion.
 Cavity type          : VdW (van der Waals Surface) (Alpha=1.000).
 Cavity algorithm     : GePol (No added spheres)
                        Default sphere list used, NSphG=   42.
                        Lebedev-Laikov grids with approx.  5.0 points / Ang**2.
                        Smoothing algorithm: York/Karplus (Gamma=1.0000).
                        Polarization charges: spherical gaussians, with
                                              point-specific exponents (IZeta= 3).
                        Self-potential: point-specific (ISelfS= 7).
                        Self-field    : sphere-specific E.n sum rule (ISelfD= 2).
 1st derivatives      : Analytical E(r).r(x)/FMM algorithm (CHGder, D1EAlg=3).
                        Cavity 1st derivative terms included.
 2nd derivatives      : Analytical E(r).r(xy)/FMM algorithm (CHGder, D2EAlg=3).
                        Cavity 2nd derivative terms included.
 Solvent              : n-Pentadecane, Eps=   2.033300 Eps(inf)=   2.049192
 ------------------------------------------------------------------------------
 ------------------------------------------------------------------------------
 Atomic radii for non-electrostatic terms: SMD-CDS.
 ------------------------------------------------------------------------------
 Nuclear repulsion after PCM non-electrostatic terms =     2413.4061507449 Hartrees.
 One-electron integrals computed using PRISM.
 NBasis=   620 RedAO= T EigKep=  1.21D-06  NBF=   620
 NBsUse=   617 1.00D-06 EigRej=  9.22D-07 NBFU=   617
 ExpMin= 4.38D-02 ExpMax= 1.14D+04 ExpMxC= 1.72D+03 IAcc=3 IRadAn=         5 AccDes= 0.00D+00
 Harris functional with IExCor= 1009 and IRadAn=       5 diagonalized for initial guess.
 HarFok:  IExCor= 1009 AccDes= 0.00D+00 IRadAn=         5 IDoV= 1 UseB2=F ITyADJ=14
 ICtDFT=  3500011 ScaDFX=  1.000000  1.000000  1.000000  1.000000
 FoFCou: FMM=F IPFlag=           0 FMFlag=      100000 FMFlg1=           0
         NFxFlg=           0 DoJE=T BraDBF=F KetDBF=T FulRan=T
         wScrn=  0.000000 ICntrl=       500 IOpCl=  0 I1Cent=   200000004 NGrid=           0
         NMat0=    1 NMatS0=      1 NMatT0=    0 NMatD0=    1 NMtDS0=    0 NMtDT0=    0
 Petite list used in FoFCou.
 Requested convergence on RMS density matrix=1.00D-08 within 128 cycles.
 Requested convergence on MAX density matrix=1.00D-06.
 Requested convergence on             energy=1.00D-06.
 No special actions if energy rises.
 Inv3:  Mode=1 IEnd=    33126987.
 Iteration    1 A*A^-1 deviation from unit magnitude is 7.55D-15 for   3315.
 Iteration    1 A*A^-1 deviation from orthogonality  is 3.83D-15 for   1291     53.
 Iteration    1 A^-1*A deviation from unit magnitude is 7.55D-15 for   3313.
 Iteration    1 A^-1*A deviation from orthogonality  is 6.65D-15 for   2281   2249.
 Error on total polarization charges =  0.01485
 SCF Done:  E(RM062X) =  -1535.95662734     A.U. after   16 cycles
            NFock= 16  Conv=0.34D-08     -V/T= 2.0042
 SMD-CDS (non-electrostatic) energy       (kcal/mol) =      -3.20
 (included in total energy above)
 DoSCS=F DFT=T ScalE2(SS,OS)=  1.000000  1.000000
 Range of M.O.s used for correlation:     1   617
 NBasis=   620 NAE=   100 NBE=   100 NFC=     0 NFV=     0
 NROrb=    617 NOA=   100 NOB=   100 NVA=   517 NVB=   517

 **** Warning!!: The largest alpha MO coefficient is  0.16322914D+03

 Symmetrizing basis deriv contribution to polar:
 IMax=3 JMax=2 DiffMx= 0.00D+00
 G2DrvN: will do    43 centers at a time, making    1 passes.
 Calling FoFCou, ICntrl=  3107 FMM=F I1Cent=   0 AccDes= 0.00D+00.
 NEqPCM:  Using equilibrium solvation (IEInf=0, Eps=   2.0333, EpsInf=   2.0492)
 G2PCM: DoFxE=T DoFxN=T DoGrad=T DoDP/DQ/DG/TGxP=FFFF NFrqRd=   0 IEInf=0 SqF1=F DoCFld=F IF1Alg=4.
 End of G2Drv F.D. properties file   721 does not exist.
 End of G2Drv F.D. properties file   722 does not exist.
 End of G2Drv F.D. properties file   788 does not exist.
          IDoAtm=111111111111111111111111111111111111111111
 NEqPCM:  Using equilibrium solvation (IEInf=0, Eps=   2.0333, EpsInf=   2.0492)
          Differentiating once with respect to nuclear coordinates.
 CalDSu exits because no D1Ps are significant.
          There are   129 degrees of freedom in the 1st order CPHF.  IDoFFX=6 NUNeed=     0.
    123 vectors produced by pass  0 Test12= 5.17D-14 1.00D-09 XBig12= 4.99D-01 1.78D-01.
 AX will form    64 AO Fock derivatives at one time.
    123 vectors produced by pass  1 Test12= 5.17D-14 1.00D-09 XBig12= 3.58D-02 6.30D-02.
    123 vectors produced by pass  2 Test12= 5.17D-14 1.00D-09 XBig12= 1.68D-03 5.34D-03.
    123 vectors produced by pass  3 Test12= 5.17D-14 1.00D-09 XBig12= 1.50D-05 5.70D-04.
    123 vectors produced by pass  4 Test12= 5.17D-14 1.00D-09 XBig12= 1.13D-07 3.32D-05.
    123 vectors produced by pass  5 Test12= 5.17D-14 1.00D-09 XBig12= 5.94D-10 1.92D-06.
    106 vectors produced by pass  6 Test12= 5.17D-14 1.00D-09 XBig12= 2.16D-12 1.02D-07.
     41 vectors produced by pass  7 Test12= 5.17D-14 1.00D-09 XBig12= 7.98D-15 6.81D-09.
 InvSVY:  IOpt=1 It=  1 EMax= 1.33D-15
 Solved reduced A of dimension   885 with   129 vectors.
 End of Minotr F.D. properties file   721 does not exist.
 End of Minotr F.D. properties file   722 does not exist.
 End of Minotr F.D. properties file   788 does not exist.

 **********************************************************************

            Population analysis using the SCF Density.

 **********************************************************************

 Orbital symmetries:
       Occupied  (A) (A) (A) (A) (A) (A) (A) (A) (A) (A) (A) (A)
                 (A) (A) (A) (A) (A) (A) (A) (A) (A) (A) (A) (A)
                 (A) (A) (A) (A) (A) (A) (A) (A) (A) (A) (A) (A)
                 (A) (A) (A) (A) (A) (A) (A) (A) (A) (A) (A) (A)
                 (A) (A) (A) (A) (A) (A) (A) (A) (A) (A) (A) (A)
                 (A) (A) (A) (A) (A) (A) (A) (A) (A) (A) (A) (A)
                 (A) (A) (A) (A) (A) (A) (A) (A) (A) (A) (A) (A)
                 (A) (A) (A) (A) (A) (A) (A) (A) (A) (A) (A) (A)
                 (A) (A) (A) (A)
       Virtual   (A) (A) (A) (A) (A) (A) (A) (A) (A) (A) (A) (A)
                 (A) (A) (A) (A) (A) (A) (A) (A) (A) (A) (A) (A)
                 (A) (A) (A) (A) (A) (A) (A) (A) (A) (A) (A) (A)
                 (A) (A) (A) (A) (A) (A) (A) (A) (A) (A) (A) (A)
                 (A) (A) (A) (A) (A) (A) (A) (A) (A) (A) (A) (A)
                 (A) (A) (A) (A) (A) (A) (A) (A) (A) (A) (A) (A)
                 (A) (A) (A) (A) (A) (A) (A) (A) (A) (A) (A) (A)
                 (A) (A) (A) (A) (A) (A) (A) (A) (A) (A) (A) (A)
                 (A) (A) (A) (A) (A) (A) (A) (A) (A) (A) (A) (A)
                 (A) (A) (A) (A) (A) (A) (A) (A) (A) (A) (A) (A)
                 (A) (A) (A) (A) (A) (A) (A) (A) (A) (A) (A) (A)
                 (A) (A) (A) (A) (A) (A) (A) (A) (A) (A) (A) (A)
                 (A) (A) (A) (A) (A) (A) (A) (A) (A) (A) (A) (A)
                 (A) (A) (A) (A) (A) (A) (A) (A) (A) (A) (A) (A)
                 (A) (A) (A) (A) (A) (A) (A) (A) (A) (A) (A) (A)
                 (A) (A) (A) (A) (A) (A) (A) (A) (A) (A) (A) (A)
                 (A) (A) (A) (A) (A) (A) (A) (A) (A) (A) (A) (A)
                 (A) (A) (A) (A) (A) (A) (A) (A) (A) (A) (A) (A)
                 (A) (A) (A) (A) (A) (A) (A) (A) (A) (A) (A) (A)
                 (A) (A) (A) (A) (A) (A) (A) (A) (A) (A) (A) (A)
                 (A) (A) (A) (A) (A) (A) (A) (A) (A) (A) (A) (A)
                 (A) (A) (A) (A) (A) (A) (A) (A) (A) (A) (A) (A)
                 (A) (A) (A) (A) (A) (A) (A) (A) (A) (A) (A) (A)
                 (A) (A) (A) (A) (A) (A) (A) (A) (A) (A) (A) (A)
                 (A) (A) (A) (A) (A) (A) (A) (A) (A) (A) (A) (A)
                 (A) (A) (A) (A) (A) (A) (A) (A) (A) (A) (A) (A)
                 (A) (A) (A) (A) (A) (A) (A) (A) (A) (A) (A) (A)
                 (A) (A) (A) (A) (A) (A) (A) (A) (A) (A) (A) (A)
                 (A) (A) (A) (A) (A) (A) (A) (A) (A) (A) (A) (A)
                 (A) (A) (A) (A) (A) (A) (A) (A) (A) (A) (A) (A)
                 (A) (A) (A) (A) (A) (A) (A) (A) (A) (A) (A) (A)
                 (A) (A) (A) (A) (A) (A) (A) (A) (A) (A) (A) (A)
                 (A) (A) (A) (A) (A) (A) (A) (A) (A) (A) (A) (A)
                 (A) (A) (A) (A) (A) (A) (A) (A) (A) (A) (A) (A)
                 (A) (A) (A) (A) (A) (A) (A) (A) (A) (A) (A) (A)
                 (A) (A) (A) (A) (A) (A) (A) (A) (A) (A) (A) (A)
                 (A) (A) (A) (A) (A) (A) (A) (A) (A) (A) (A) (A)
                 (A) (A) (A) (A) (A) (A) (A) (A) (A) (A) (A) (A)
                 (A) (A) (A) (A) (A) (A) (A) (A) (A) (A) (A) (A)
                 (A) (A) (A) (A) (A) (A) (A) (A) (A) (A) (A) (A)
                 (A) (A) (A) (A) (A) (A) (A) (A) (A) (A) (A) (A)
                 (A) (A) (A) (A) (A) (A) (A) (A) (A) (A) (A) (A)
                 (A) (A) (A) (A) (A) (A) (A) (A) (A) (A) (A) (A)
                 (A)
 The electronic state is 1-A.
 Alpha  occ. eigenvalues --  -25.24860 -25.24716 -25.24482 -25.24480 -25.24445
 Alpha  occ. eigenvalues --  -25.24441 -19.61930 -19.55281 -19.49608 -19.46524
 Alpha  occ. eigenvalues --  -14.75035 -10.78397 -10.78145 -10.66060 -10.57635
 Alpha  occ. eigenvalues --  -10.56010 -10.55685 -10.55220 -10.55001 -10.52653
 Alpha  occ. eigenvalues --  -10.52594 -10.51462 -10.50263 -10.50062 -10.47201
 Alpha  occ. eigenvalues --  -10.47028  -1.41578  -1.41056  -1.33710  -1.33413
 Alpha  occ. eigenvalues --   -1.33243  -1.33060  -1.19721  -1.09743  -1.07023
 Alpha  occ. eigenvalues --   -0.99713  -0.94322  -0.93690  -0.86159  -0.85259
 Alpha  occ. eigenvalues --   -0.84451  -0.79946  -0.78456  -0.77028  -0.75051
 Alpha  occ. eigenvalues --   -0.69591  -0.68850  -0.65721  -0.65627  -0.65108
 Alpha  occ. eigenvalues --   -0.64856  -0.64847  -0.64105  -0.63320  -0.61619
 Alpha  occ. eigenvalues --   -0.58531  -0.58397  -0.54385  -0.54298  -0.54093
 Alpha  occ. eigenvalues --   -0.53539  -0.53501  -0.53281  -0.51483  -0.51203
 Alpha  occ. eigenvalues --   -0.50846  -0.50474  -0.49901  -0.49105  -0.48823
 Alpha  occ. eigenvalues --   -0.48782  -0.48108  -0.47832  -0.47582  -0.46497
 Alpha  occ. eigenvalues --   -0.46383  -0.45781  -0.44739  -0.44225  -0.43909
 Alpha  occ. eigenvalues --   -0.41430  -0.41386  -0.40910  -0.40136  -0.39177
 Alpha  occ. eigenvalues --   -0.37997  -0.37572  -0.37297  -0.36818  -0.35540
 Alpha  occ. eigenvalues --   -0.34691  -0.34299  -0.33517  -0.32255  -0.30999
 Alpha  occ. eigenvalues --   -0.28729  -0.24758  -0.24132  -0.22417  -0.21451
 Alpha virt. eigenvalues --    0.02248   0.04068   0.05078   0.05814   0.06356
 Alpha virt. eigenvalues --    0.06683   0.07257   0.07298   0.07459   0.08310
 Alpha virt. eigenvalues --    0.08387   0.09061   0.09423   0.09474   0.09742
 Alpha virt. eigenvalues --    0.10243   0.10502   0.10769   0.10915   0.11655
 Alpha virt. eigenvalues --    0.11861   0.12468   0.12619   0.12699   0.13238
 Alpha virt. eigenvalues --    0.13288   0.14144   0.14146   0.14582   0.14998
 Alpha virt. eigenvalues --    0.15731   0.15870   0.16149   0.16251   0.16376
 Alpha virt. eigenvalues --    0.17056   0.17432   0.17810   0.18066   0.18175
 Alpha virt. eigenvalues --    0.18879   0.19346   0.19722   0.20354   0.20452
 Alpha virt. eigenvalues --    0.20794   0.21276   0.21745   0.21966   0.22238
 Alpha virt. eigenvalues --    0.22586   0.22741   0.23208   0.23567   0.23943
 Alpha virt. eigenvalues --    0.24157   0.24522   0.25006   0.25066   0.25393
 Alpha virt. eigenvalues --    0.26124   0.26222   0.26391   0.26463   0.26641
 Alpha virt. eigenvalues --    0.27173   0.27544   0.27794   0.28589   0.28640
 Alpha virt. eigenvalues --    0.28926   0.29146   0.29353   0.29919   0.30050
 Alpha virt. eigenvalues --    0.30484   0.30885   0.31252   0.31344   0.31466
 Alpha virt. eigenvalues --    0.32439   0.32486   0.32711   0.33116   0.33548
 Alpha virt. eigenvalues --    0.33641   0.33715   0.34172   0.34376   0.34495
 Alpha virt. eigenvalues --    0.34935   0.35082   0.35636   0.36188   0.36694
 Alpha virt. eigenvalues --    0.36875   0.37237   0.37592   0.38063   0.38469
 Alpha virt. eigenvalues --    0.38774   0.39028   0.39370   0.39867   0.40250
 Alpha virt. eigenvalues --    0.40628   0.41053   0.41643   0.41773   0.42129
 Alpha virt. eigenvalues --    0.42219   0.42379   0.43154   0.43394   0.43556
 Alpha virt. eigenvalues --    0.43998   0.44766   0.45229   0.45556   0.45945
 Alpha virt. eigenvalues --    0.46019   0.46459   0.46675   0.47575   0.47900
 Alpha virt. eigenvalues --    0.48150   0.48557   0.48686   0.49783   0.50058
 Alpha virt. eigenvalues --    0.50138   0.50915   0.51390   0.52191   0.52689
 Alpha virt. eigenvalues --    0.52834   0.53310   0.53642   0.54256   0.54802
 Alpha virt. eigenvalues --    0.55000   0.56366   0.57156   0.57943   0.58419
 Alpha virt. eigenvalues --    0.60280   0.60438   0.60530   0.60856   0.61488
 Alpha virt. eigenvalues --    0.62684   0.63151   0.63291   0.63441   0.64313
 Alpha virt. eigenvalues --    0.64962   0.65045   0.66408   0.67436   0.68490
 Alpha virt. eigenvalues --    0.68932   0.69462   0.69934   0.70443   0.70750
 Alpha virt. eigenvalues --    0.71041   0.71412   0.71983   0.72167   0.72529
 Alpha virt. eigenvalues --    0.73934   0.74310   0.74598   0.74968   0.75497
 Alpha virt. eigenvalues --    0.76078   0.76524   0.77240   0.77304   0.78281
 Alpha virt. eigenvalues --    0.78333   0.78536   0.78628   0.79186   0.80137
 Alpha virt. eigenvalues --    0.80343   0.80549   0.81093   0.81862   0.82062
 Alpha virt. eigenvalues --    0.82921   0.83343   0.84805   0.85172   0.85816
 Alpha virt. eigenvalues --    0.87485   0.88023   0.90682   0.92284   0.94208
 Alpha virt. eigenvalues --    0.94878   0.95518   0.97113   0.98057   0.99775
 Alpha virt. eigenvalues --    0.99997   1.01837   1.02348   1.03798   1.04069
 Alpha virt. eigenvalues --    1.06799   1.07349   1.08696   1.09574   1.09762
 Alpha virt. eigenvalues --    1.10177   1.11718   1.11864   1.12791   1.14672
 Alpha virt. eigenvalues --    1.16043   1.16324   1.16818   1.16996   1.18075
 Alpha virt. eigenvalues --    1.19013   1.19583   1.19990   1.23082   1.23775
 Alpha virt. eigenvalues --    1.24532   1.25603   1.27191   1.27791   1.27961
 Alpha virt. eigenvalues --    1.29354   1.29627   1.31255   1.33393   1.34038
 Alpha virt. eigenvalues --    1.36643   1.37827   1.37949   1.40798   1.41059
 Alpha virt. eigenvalues --    1.42343   1.44033   1.45123   1.45556   1.45905
 Alpha virt. eigenvalues --    1.46737   1.48345   1.49080   1.49880   1.50460
 Alpha virt. eigenvalues --    1.50621   1.50908   1.51615   1.51723   1.53168
 Alpha virt. eigenvalues --    1.53614   1.54980   1.55208   1.55985   1.56175
 Alpha virt. eigenvalues --    1.57554   1.59474   1.60168   1.60399   1.60433
 Alpha virt. eigenvalues --    1.61400   1.62685   1.62737   1.63150   1.64129
 Alpha virt. eigenvalues --    1.65047   1.65236   1.65654   1.65910   1.66197
 Alpha virt. eigenvalues --    1.67405   1.68128   1.68298   1.68365   1.68546
 Alpha virt. eigenvalues --    1.69758   1.72466   1.73653   1.74155   1.76654
 Alpha virt. eigenvalues --    1.77208   1.78594   1.78960   1.79670   1.81116
 Alpha virt. eigenvalues --    1.81283   1.82068   1.82722   1.84029   1.85072
 Alpha virt. eigenvalues --    1.85651   1.87086   1.87234   1.88204   1.88289
 Alpha virt. eigenvalues --    1.89571   1.89867   1.90704   1.92044   1.93192
 Alpha virt. eigenvalues --    1.94546   1.95131   1.96085   1.97068   2.00427
 Alpha virt. eigenvalues --    2.01249   2.01507   2.03387   2.03877   2.05397
 Alpha virt. eigenvalues --    2.06147   2.10287   2.10639   2.12126   2.14637
 Alpha virt. eigenvalues --    2.15318   2.15578   2.19266   2.21290   2.22816
 Alpha virt. eigenvalues --    2.24223   2.25034   2.26138   2.30342   2.31656
 Alpha virt. eigenvalues --    2.32482   2.39016   2.40938   2.44705   2.45553
 Alpha virt. eigenvalues --    2.47349   2.49844   2.53292   2.55310   2.55974
 Alpha virt. eigenvalues --    2.57942   2.58102   2.59033   2.61327   2.61948
 Alpha virt. eigenvalues --    2.62763   2.63187   2.65669   2.66652   2.69750
 Alpha virt. eigenvalues --    2.70166   2.72688   2.73637   2.75104   2.79116
 Alpha virt. eigenvalues --    2.81227   2.82289   2.85685   2.86558   2.88680
 Alpha virt. eigenvalues --    2.90161   2.94020   2.97244   2.99135   2.99873
 Alpha virt. eigenvalues --    3.01366   3.02513   3.02743   3.03439   3.04844
 Alpha virt. eigenvalues --    3.05595   3.06504   3.07301   3.07867   3.08025
 Alpha virt. eigenvalues --    3.09140   3.10805   3.11418   3.12222   3.14684
 Alpha virt. eigenvalues --    3.15315   3.16330   3.16851   3.20836   3.23190
 Alpha virt. eigenvalues --    3.23507   3.23950   3.27329   3.30201   3.30297
 Alpha virt. eigenvalues --    3.30637   3.31277   3.33123   3.36262   3.36339
 Alpha virt. eigenvalues --    3.40021   3.41284   3.43357   3.45279   3.45756
 Alpha virt. eigenvalues --    3.45826   3.48336   3.50113   3.52838   3.54930
 Alpha virt. eigenvalues --    3.57810   3.69345   3.73755   3.75278   3.78155
 Alpha virt. eigenvalues --    3.80655   3.81768   3.84521   3.84533   3.85828
 Alpha virt. eigenvalues --    3.87906   3.88218   3.88702   3.88930   3.89213
 Alpha virt. eigenvalues --    3.90467   3.91637   3.92326   3.92582   3.93018
 Alpha virt. eigenvalues --    3.93585   3.94504   3.97637   4.01875   4.02029
 Alpha virt. eigenvalues --    4.02709   4.03934   4.04825   4.06136   4.07227
 Alpha virt. eigenvalues --    4.12330   4.14147   4.19474   4.20915   4.21343
 Alpha virt. eigenvalues --    4.23971   4.24639   4.25296   4.26769   4.27843
 Alpha virt. eigenvalues --    4.29826   4.30352   4.56405   4.71789   4.78564
 Alpha virt. eigenvalues --    4.84635   4.96598   4.97934   4.99905   5.00718
 Alpha virt. eigenvalues --    5.11095   5.15999   5.22343   5.25931   5.30325
 Alpha virt. eigenvalues --    5.44374   5.46890   5.49278   5.52855   5.77212
 Alpha virt. eigenvalues --    5.86718   6.05161   6.07161   6.44157   6.48122
 Alpha virt. eigenvalues --    6.50979   6.53058   6.55157   6.55410   6.56460
 Alpha virt. eigenvalues --    6.57418   6.59990   6.61907   6.63208   6.65602
 Alpha virt. eigenvalues --    6.66413   6.68933   6.84433   6.86737   6.89120
 Alpha virt. eigenvalues --    6.91434  23.47361  23.61823  23.61922  23.66438
 Alpha virt. eigenvalues --   23.67479  23.77542  23.84389  23.86757  23.94983
 Alpha virt. eigenvalues --   23.95536  23.98428  24.01048  24.08296  24.11024
 Alpha virt. eigenvalues --   24.21684  35.70980  50.07685  50.13694  50.19411
 Alpha virt. eigenvalues --   50.23019  66.90396  66.93386  66.94163  66.96116
 Alpha virt. eigenvalues --   66.99822  67.02218
          Condensed to atoms (all electrons):
               1          2          3          4          5          6
     1  C   31.379231  -0.308581   0.009837   0.007121  -0.315183  -0.636240
     2  N   -0.308581   7.919841   0.181351  -0.044343  -0.287771  -0.468434
     3  C    0.009837   0.181351   9.799377   0.623490   0.288352  -0.844673
     4  O    0.007121  -0.044343   0.623490   8.127451  -0.205244  -0.216478
     5  O   -0.315183  -0.287771   0.288352  -0.205244   8.485103   0.464088
     6  C   -0.636240  -0.468434  -0.844673  -0.216478   0.464088   8.705823
     7  C    0.007541   0.059372   0.307572   0.038249  -0.185777  -1.060357
     8  C   -0.019470  -0.012778  -0.284862  -0.001348   0.030146   0.381614
     9  C   -4.994897   0.228527  -0.993199   0.178880  -0.118751  -0.483816
    10  C    2.236481   0.062891  -0.121314  -0.030927  -0.006582  -0.058143
    11  C    1.667544  -0.172817  -2.296852  -0.029595  -0.031659  -0.185497
    12  C  -16.642620   0.223542   0.068560  -0.021790   0.015085   0.022997
    13  C   -1.874041   0.089639  -1.155134  -0.067249  -0.014428  -0.117012
    14  H   -0.009237   0.079976   0.050754   0.000356   0.022367   0.007273
    15  H    0.005130   0.004011   0.030285  -0.000491  -0.049869   0.375954
    16  H    0.008571   0.003963   0.037099  -0.000379  -0.050582   0.367287
    17  H   -0.000553  -0.000889   0.002024  -0.000346   0.001104  -0.056353
    18  H   -0.000156  -0.000782   0.003861  -0.000343   0.001028  -0.058412
    19  H   -0.000095  -0.000033  -0.000866  -0.000072  -0.000337  -0.044819
    20  H    0.000149   0.000042   0.008762   0.000027  -0.000811   0.087029
    21  H   -0.000128  -0.000035  -0.001365  -0.000067  -0.000327  -0.044017
    22  H    0.063667  -0.026951   0.092596   0.008237   0.004118   0.011817
    23  H    0.185031  -0.016573   0.002863   0.000190  -0.000113   0.000132
    24  C   -2.924289  -0.014544  -0.421119  -0.003056  -0.000345  -0.011477
    25  C   -1.536070   0.044919   0.517726  -0.004214   0.006318   0.037022
    26  H    0.052854  -0.001489   0.004767  -0.000013  -0.000005   0.000044
    27  F    0.036800  -0.000057   0.000558   0.000001   0.000000   0.000002
    28  F    0.028312  -0.000065  -0.000821  -0.000000   0.000000  -0.000007
    29  F    0.025957  -0.000070  -0.000708  -0.000000   0.000000  -0.000007
    30  F    0.056423   0.001028   0.008330  -0.000688  -0.000051   0.000229
    31  F   -0.008854   0.000391  -0.001805   0.000030   0.000001  -0.000027
    32  F   -0.004107   0.000371  -0.001653   0.000038   0.000001  -0.000030
    33  O    0.072414  -0.013812   0.009521  -0.000071   0.000082  -0.000809
    34  O    0.068267  -0.007352  -0.021791   0.000436   0.007029  -0.013071
    35  C   -0.121788  -0.008053   0.022685   0.000171  -0.000679   0.008149
    36  C    0.165860  -0.032419   0.032456   0.000519   0.000897   0.004495
    37  C    0.002172   0.002850  -0.007808  -0.000146  -0.000843   0.000215
    38  H   -0.000367   0.000060   0.000020  -0.000000   0.000006  -0.000016
    39  H   -0.000237   0.000059  -0.000042  -0.000000   0.000005  -0.000025
    40  H    0.000156   0.000282  -0.000102   0.000001  -0.000010   0.000003
    41  H   -0.000075  -0.000065   0.000050  -0.000000   0.000001  -0.000009
    42  H    0.000011   0.000282  -0.000041   0.000001  -0.000008   0.000025
               7          8          9         10         11         12
     1  C    0.007541  -0.019470  -4.994897   2.236481   1.667544 -16.642620
     2  N    0.059372  -0.012778   0.228527   0.062891  -0.172817   0.223542
     3  C    0.307572  -0.284862  -0.993199  -0.121314  -2.296852   0.068560
     4  O    0.038249  -0.001348   0.178880  -0.030927  -0.029595  -0.021790
     5  O   -0.185777   0.030146  -0.118751  -0.006582  -0.031659   0.015085
     6  C   -1.060357   0.381614  -0.483816  -0.058143  -0.185497   0.022997
     7  C    6.500373  -0.279377   0.037743   0.000909   0.004288  -0.002075
     8  C   -0.279377   6.289433  -0.014762  -0.000850  -0.001502   0.000241
     9  C    0.037743  -0.014762  15.603166  -1.367317  -7.625711   6.067466
    10  C    0.000909  -0.000850  -1.367317  41.136384 -13.523707  -5.000631
    11  C    0.004288  -0.001502  -7.625711 -13.523707  47.327642 -11.352639
    12  C   -0.002075   0.000241   6.067466  -5.000631 -11.352639  33.365698
    13  C    0.006894  -0.001512  -3.214234  -8.217985   3.001502  -1.393464
    14  H   -0.000811  -0.000277  -0.013044   0.011608  -0.019404   0.028513
    15  H   -0.023614  -0.018392  -0.001620   0.000271   0.000037   0.000048
    16  H   -0.023505  -0.018026  -0.002508   0.000338   0.000065  -0.000083
    17  H    0.451929  -0.066375   0.000161   0.000005   0.000008   0.000020
    18  H    0.452011  -0.066634   0.000167   0.000005   0.000010   0.000008
    19  H    0.019481   0.365947   0.000036  -0.000000   0.000000   0.000000
    20  H   -0.142148   0.395226   0.000040   0.000000   0.000001  -0.000001
    21  H    0.019678   0.365621   0.000040  -0.000001   0.000000   0.000000
    22  H   -0.000962   0.000098   0.318452  -0.016469  -0.032561  -0.062733
    23  H   -0.000036   0.000002  -0.035338   0.008477  -0.002687  -0.203076
    24  C   -0.000018  -0.000043  -2.527158   4.669993  -4.704952  -4.013324
    25  C   -0.001158   0.000261   4.810724 -11.833618  -4.997654   3.905517
    26  H    0.000001   0.000000  -0.013551   0.042075   0.105188   0.263830
    27  F   -0.000000   0.000000   0.069663  -0.266268  -0.077762   0.129581
    28  F   -0.000000  -0.000000  -0.003395  -0.110108   0.289641  -0.138055
    29  F   -0.000000  -0.000000  -0.000114  -0.099543   0.285021  -0.128095
    30  F    0.000009  -0.000000   0.111404  -0.447505   0.040255   0.013752
    31  F   -0.000000   0.000000  -0.080312   0.198308  -0.056862   0.007177
    32  F   -0.000000  -0.000000  -0.073478   0.189915  -0.061135   0.006859
    33  O    0.000367  -0.000004  -0.005194   0.003949   0.024975  -0.090379
    34  O    0.004475   0.000466   0.016029   0.000517   0.006484   0.007307
    35  C   -0.002192  -0.000521  -0.036053  -0.019430  -0.035695   0.086078
    36  C    0.000893   0.001445  -0.034350  -0.009668   0.006843  -0.150819
    37  C   -0.000370  -0.001077  -0.000094   0.000004  -0.001801   0.002333
    38  H    0.000016  -0.000000  -0.000011  -0.000004  -0.000081  -0.000202
    39  H    0.000016  -0.000000  -0.000004  -0.000005  -0.000073  -0.000329
    40  H    0.000167   0.000086  -0.000027  -0.000007   0.000002  -0.000214
    41  H   -0.000024  -0.000005   0.000007   0.000002   0.000000   0.000102
    42  H    0.000162   0.000079  -0.000025  -0.000008   0.000001  -0.000190
              13         14         15         16         17         18
     1  C   -1.874041  -0.009237   0.005130   0.008571  -0.000553  -0.000156
     2  N    0.089639   0.079976   0.004011   0.003963  -0.000889  -0.000782
     3  C   -1.155134   0.050754   0.030285   0.037099   0.002024   0.003861
     4  O   -0.067249   0.000356  -0.000491  -0.000379  -0.000346  -0.000343
     5  O   -0.014428   0.022367  -0.049869  -0.050582   0.001104   0.001028
     6  C   -0.117012   0.007273   0.375954   0.367287  -0.056353  -0.058412
     7  C    0.006894  -0.000811  -0.023614  -0.023505   0.451929   0.452011
     8  C   -0.001512  -0.000277  -0.018392  -0.018026  -0.066375  -0.066634
     9  C   -3.214234  -0.013044  -0.001620  -0.002508   0.000161   0.000167
    10  C   -8.217985   0.011608   0.000271   0.000338   0.000005   0.000005
    11  C    3.001502  -0.019404   0.000037   0.000065   0.000008   0.000010
    12  C   -1.393464   0.028513   0.000048  -0.000083   0.000020   0.000008
    13  C   22.038806  -0.061048   0.000569  -0.000027   0.000215   0.000132
    14  H   -0.061048   0.275456   0.000022   0.000021  -0.000028  -0.000027
    15  H    0.000569   0.000022   0.475493  -0.044574   0.005435  -0.008468
    16  H   -0.000027   0.000021  -0.044574   0.476632  -0.008565   0.005439
    17  H    0.000215  -0.000028   0.005435  -0.008565   0.442649  -0.030306
    18  H    0.000132  -0.000027  -0.008468   0.005439  -0.030306   0.442144
    19  H    0.000005  -0.000000  -0.000826   0.004360  -0.008014   0.006414
    20  H   -0.000008  -0.000000  -0.000196  -0.000200  -0.003780  -0.003793
    21  H    0.000008  -0.000000   0.004346  -0.000861   0.006434  -0.008002
    22  H   -0.063118  -0.000191  -0.000047  -0.000045  -0.000000  -0.000000
    23  H    0.265592   0.013160  -0.000000  -0.000000  -0.000000  -0.000000
    24  C   -1.722654   0.000484  -0.000001  -0.000003   0.000000   0.000000
    25  C   -1.309513   0.000182   0.000004  -0.000033  -0.000000  -0.000001
    26  H   -0.172504   0.000035  -0.000000  -0.000000  -0.000000  -0.000000
    27  F    0.033112   0.000000  -0.000000  -0.000000  -0.000000  -0.000000
    28  F    0.072054   0.000000  -0.000000   0.000000  -0.000000   0.000000
    29  F    0.052259   0.000000   0.000000  -0.000000   0.000000  -0.000000
    30  F    0.006656   0.000003   0.000000   0.000000   0.000000   0.000000
    31  F    0.021651  -0.000000   0.000000  -0.000000   0.000000  -0.000000
    32  F    0.020899  -0.000000  -0.000000   0.000000  -0.000000   0.000000
    33  O   -0.007797   0.019103   0.000000   0.000000  -0.000000  -0.000001
    34  O   -0.096898   0.061591   0.000004  -0.000013  -0.000005  -0.000036
    35  C    0.104980  -0.004347   0.000019   0.000058   0.000190   0.000167
    36  C   -0.100084   0.028526  -0.000013   0.000004  -0.000397  -0.000390
    37  C    0.001298  -0.001753   0.000014   0.000016   0.000284   0.000338
    38  H    0.000843  -0.000015   0.000000   0.000000   0.000000  -0.000000
    39  H    0.001004  -0.000012   0.000000   0.000000  -0.000000  -0.000000
    40  H   -0.000244  -0.000177  -0.000000  -0.000000  -0.000015  -0.000008
    41  H    0.000167   0.000025  -0.000000  -0.000000   0.000000   0.000000
    42  H   -0.000218  -0.000180  -0.000000  -0.000000  -0.000006  -0.000016
              19         20         21         22         23         24
     1  C   -0.000095   0.000149  -0.000128   0.063667   0.185031  -2.924289
     2  N   -0.000033   0.000042  -0.000035  -0.026951  -0.016573  -0.014544
     3  C   -0.000866   0.008762  -0.001365   0.092596   0.002863  -0.421119
     4  O   -0.000072   0.000027  -0.000067   0.008237   0.000190  -0.003056
     5  O   -0.000337  -0.000811  -0.000327   0.004118  -0.000113  -0.000345
     6  C   -0.044819   0.087029  -0.044017   0.011817   0.000132  -0.011477
     7  C    0.019481  -0.142148   0.019678  -0.000962  -0.000036  -0.000018
     8  C    0.365947   0.395226   0.365621   0.000098   0.000002  -0.000043
     9  C    0.000036   0.000040   0.000040   0.318452  -0.035338  -2.527158
    10  C   -0.000000   0.000000  -0.000001  -0.016469   0.008477   4.669993
    11  C    0.000000   0.000001   0.000000  -0.032561  -0.002687  -4.704952
    12  C    0.000000  -0.000001   0.000000  -0.062733  -0.203076  -4.013324
    13  C    0.000005  -0.000008   0.000008  -0.063118   0.265592  -1.722654
    14  H   -0.000000  -0.000000  -0.000000  -0.000191   0.013160   0.000484
    15  H   -0.000826  -0.000196   0.004346  -0.000047  -0.000000  -0.000001
    16  H    0.004360  -0.000200  -0.000861  -0.000045  -0.000000  -0.000003
    17  H   -0.008014  -0.003780   0.006434  -0.000000  -0.000000   0.000000
    18  H    0.006414  -0.003793  -0.008002  -0.000000  -0.000000   0.000000
    19  H    0.466401  -0.024786  -0.036629  -0.000000  -0.000000   0.000000
    20  H   -0.024786   0.440292  -0.024749   0.000000   0.000000   0.000000
    21  H   -0.036629  -0.024749   0.466310  -0.000000  -0.000000   0.000000
    22  H   -0.000000   0.000000  -0.000000   0.349130   0.000143   0.006289
    23  H   -0.000000   0.000000  -0.000000   0.000143   0.279208  -0.003899
    24  C    0.000000   0.000000   0.000000   0.006289  -0.003899  19.791839
    25  C   -0.000000  -0.000000  -0.000000   0.008594  -0.004665  -3.393069
    26  H    0.000000   0.000000   0.000000   0.000042  -0.002182   0.034046
    27  F   -0.000000   0.000000  -0.000000   0.000074   0.000012  -0.032758
    28  F    0.000000   0.000000  -0.000000   0.000018  -0.000009   0.028846
    29  F   -0.000000   0.000000   0.000000   0.000017   0.000000   0.026744
    30  F    0.000000  -0.000000   0.000000   0.013710  -0.000013  -0.026309
    31  F   -0.000000  -0.000000  -0.000000  -0.000094  -0.000008   0.040796
    32  F   -0.000000  -0.000000  -0.000000  -0.000094  -0.000007   0.033249
    33  O    0.000000   0.000000   0.000000  -0.000028   0.031731   0.003674
    34  O    0.000001   0.000001   0.000001   0.000014   0.008212   0.000589
    35  C   -0.000001  -0.000002  -0.000000   0.000221  -0.001716  -0.007449
    36  C   -0.000004   0.000006  -0.000005   0.000034   0.019082  -0.003246
    37  C    0.000005  -0.000014   0.000005   0.000002   0.000155   0.000027
    38  H    0.000000  -0.000000   0.000000  -0.000000  -0.000075  -0.000001
    39  H    0.000000  -0.000000   0.000000   0.000000  -0.000063  -0.000000
    40  H   -0.000000   0.000000  -0.000000   0.000000  -0.000002  -0.000000
    41  H    0.000000  -0.000000   0.000000  -0.000000  -0.000002   0.000000
    42  H   -0.000000   0.000000  -0.000000   0.000000  -0.000003  -0.000000
              25         26         27         28         29         30
     1  C   -1.536070   0.052854   0.036800   0.028312   0.025957   0.056423
     2  N    0.044919  -0.001489  -0.000057  -0.000065  -0.000070   0.001028
     3  C    0.517726   0.004767   0.000558  -0.000821  -0.000708   0.008330
     4  O   -0.004214  -0.000013   0.000001  -0.000000  -0.000000  -0.000688
     5  O    0.006318  -0.000005   0.000000   0.000000   0.000000  -0.000051
     6  C    0.037022   0.000044   0.000002  -0.000007  -0.000007   0.000229
     7  C   -0.001158   0.000001  -0.000000  -0.000000  -0.000000   0.000009
     8  C    0.000261   0.000000   0.000000  -0.000000  -0.000000  -0.000000
     9  C    4.810724  -0.013551   0.069663  -0.003395  -0.000114   0.111404
    10  C  -11.833618   0.042075  -0.266268  -0.110108  -0.099543  -0.447505
    11  C   -4.997654   0.105188  -0.077762   0.289641   0.285021   0.040255
    12  C    3.905517   0.263830   0.129581  -0.138055  -0.128095   0.013752
    13  C   -1.309513  -0.172504   0.033112   0.072054   0.052259   0.006656
    14  H    0.000182   0.000035   0.000000   0.000000   0.000000   0.000003
    15  H    0.000004  -0.000000  -0.000000  -0.000000   0.000000   0.000000
    16  H   -0.000033  -0.000000  -0.000000   0.000000  -0.000000   0.000000
    17  H   -0.000000  -0.000000  -0.000000  -0.000000   0.000000   0.000000
    18  H   -0.000001  -0.000000  -0.000000   0.000000  -0.000000   0.000000
    19  H   -0.000000   0.000000  -0.000000   0.000000  -0.000000   0.000000
    20  H   -0.000000   0.000000   0.000000   0.000000   0.000000  -0.000000
    21  H   -0.000000   0.000000  -0.000000  -0.000000   0.000000   0.000000
    22  H    0.008594   0.000042   0.000074   0.000018   0.000017   0.013710
    23  H   -0.004665  -0.002182   0.000012  -0.000009   0.000000  -0.000013
[...]
 0000337,0.00000336,0.00001708,-0.00002309,0.00000026,-0.00000520,-0.00
 001447,0.00000169,0.00003395,-0.00001645,-0.00000318,-0.00002743,-0.00
 000162,0.00000626,0.00004392,0.00000086,0.00000921,0.00001804,0.000321
 57,-0.00006509,-0.00000218,-0.00000083,-0.00000203,-0.00000218,-0.0000
 0896,0.00000608,0.00000200,0.00000458,-0.00000708,0.00000833,0.0000016
 7,0.00001662,-0.00000482,-0.00000678,0.00000512,-0.00000055,0.00000293
 ,-0.00000264,-0.00000161,-0.00000028,-0.00000204,-0.00000303,0.0000025
 9,-0.00000300,-0.00002005,0.00003036,-0.00000986,-0.00007587,0.0000185
 2,-0.00002344,-0.00001923,0.00005369,-0.00001410,0.00000084,0.00000216
 ,-0.00000743,0.00001663,-0.00001015,-0.00000021,0.00002245,0.00000342,
 0.00000217,0.00002690,-0.00001174,0.00002274,-0.00000038,-0.00001434,0
 .00000370,0.00000473,-0.00001447,-0.00000216,0.00001639,-0.00001918,0.
 00001128,0.00072936,0.00018679,0.00159869,0.00083397,-0.00062650,-0.00
 026855,-0.00166609,0.00154446,0.00016344,-0.04282189,-0.09143481,-0.26
 066125,-0.00106448,-0.00182344,-0.00535653,0.04946456,0.09958954,0.282
 49617,-0.00004165,0.00002458,0.00000234,0.00009946,0.00009436,-0.00005
 088,-0.00021764,0.00003793,0.00002212,0.00005374,-0.00000948,-0.000005
 20,0.00011314,-0.00007798,-0.00001930,-0.00004296,0.00001949,0.0000071
 0,0.00000025,0.00001172,0.00000766,0.00001153,-0.00001240,-0.00000214,
 0.00001116,-0.00001392,0.,-0.00000791,0.00001362,-0.00000081,0.0000067
 1,0.00000018,0.00000620,-0.00000147,0.00000677,-0.00000600,0.00002187,
 -0.00001545,-0.00000931,-0.00002769,-0.00015594,0.00008983,0.00000745,
 -0.00000794,-0.00000613,0.00000773,-0.00000500,0.00000279,0.00000417,0
 .00001236,-0.00003318,0.00000894,0.00001308,0.00003002,-0.00000676,-0.
 00000482,0.00000549,0.00000884,0.00000340,0.00000082,-0.00000870,-0.00
 000719,-0.00000652,-0.00000451,0.00000233,0.00000190,0.00001368,-0.000
 08335,-0.00000200,0.00000368,-0.00001318,0.00000851,-0.00000562,-0.000
 02668,0.00000766,0.00000503,-0.00000213,0.00000207,-0.00000204,0.00000
 433,-0.00000011,0.00000125,0.00000612,-0.00000291,-0.00000352,0.000004
 09,-0.00000651,0.00000753,0.00000935,-0.00000366,0.00000048,0.00000672
 ,-0.00000078,-0.00000246,0.00000737,-0.00000290,0.00086274,0.00147650,
 0.00046595,0.00120802,0.00120898,0.00094010,0.00263038,0.00298391,-0.0
 0759940,-0.13368071,-0.07695517,0.09786561,-0.01852197,-0.01584945,0.0
 2115167,0.00306366,0.00364940,-0.00351581,0.14790885,-0.00039381,0.000
 08642,0.00002424,0.00000174,-0.00100849,0.00006740,0.00036753,0.000151
 43,0.00000458,-0.00013343,-0.00021430,-0.00001502,-0.00014211,-0.00002
 370,0.00000084,0.00010211,0.00002217,0.00000143,-0.00000683,-0.0000078
 0,0.00000581,0.00000019,0.00000738,-0.00000068,0.00008257,-0.00006864,
 -0.00001672,-0.00002280,-0.00002103,0.00000079,0.00007153,-0.00003505,
 -0.00002799,-0.00004546,0.00001436,0.00000179,0.00012111,0.00008727,0.
 00003546,0.00010249,0.00161278,-0.00021075,-0.00001476,-0.00001013,-0.
 00000350,-0.00001370,-0.00000737,0.00000183,0.00000414,-0.00000174,-0.
 00000435,0.00000321,0.00000144,0.00000089,-0.00000005,-0.00000117,-0.0
 0000002,-0.00000685,0.00000117,0.00000117,-0.00000186,-0.00000348,-0.0
 0000141,-0.00000901,0.00000968,0.00000416,-0.00008474,-0.00002294,-0.0
 0001381,-0.00011264,0.00001075,0.00002971,-0.00001937,0.00006119,0.000
 02576,0.00000938,-0.00000380,0.00000931,0.00002500,-0.00001831,-0.0000
 1483,0.00003784,0.00001891,-0.00001256,0.00003111,-0.00001018,0.000006
 62,0.00000430,-0.00001454,-0.00000414,0.00000675,-0.00002111,-0.000023
 56,0.00001450,-0.00002081,0.00000385,0.00123789,0.00281950,-0.00413177
 ,0.00130855,-0.00822966,-0.00300713,-0.02109111,-0.01401324,0.02409942
 ,-0.07619586,-0.11294982,0.09100408,0.00394456,0.00226422,-0.00388582,
 0.00822851,0.00681594,-0.00856439,0.08226286,0.12210755,0.00011168,-0.
 00002999,-0.00000991,-0.00001967,0.00015907,0.00002572,-0.00008052,-0.
 00009094,-0.00000863,0.00003007,0.00007837,0.00000286,0.00004160,0.000
 03037,0.00000652,-0.00004647,-0.00001078,-0.00000029,-0.00000133,-0.00
 000741,-0.00000382,-0.00000143,0.00000023,0.00000091,-0.00001793,0.000
 02181,0.00000341,0.00000611,0.00001534,-0.00000254,-0.00003660,0.00001
 655,0.00000908,0.00003143,0.00000189,-0.00000452,-0.00003920,-0.000019
 04,0.00000105,-0.00000697,-0.00031299,-0.00003338,0.00000511,0.0000033
 9,0.00000396,0.00000456,0.00000138,-0.00000327,-0.00000399,0.00000218,
 0.00000310,-0.00000236,0.00000164,0.00000013,0.00000055,0.00000089,-0.
 00000164,0.00000307,-0.00000175,-0.00000076,0.00000165,0.00000202,0.00
 000236,0.00000241,-0.00000229,-0.00000113,0.00002411,-0.00003535,-0.00
 000831,0.00008351,-0.00001001,-0.00000736,0.00001946,-0.00005318,-0.00
 000820,-0.00000117,0.00000039,-0.00000156,-0.00001906,0.00001215,0.000
 00785,-0.00002888,-0.00001068,0.00000599,-0.00002429,0.00000799,-0.000
 00898,-0.00000193,0.00001286,0.00000149,-0.00000578,0.00001733,0.00001
 326,-0.00001342,0.00001710,-0.00000520,-0.00183760,-0.00069279,0.00055
 407,-0.00057726,0.00002804,0.00000527,0.00204292,-0.00313123,0.0000477
 0,0.09757270,0.08939018,-0.15807501,-0.00581545,-0.00551745,0.00650766
 ,0.01657980,0.01610190,-0.02010052,-0.10702558,-0.09540120,0.16940517,
 -0.00010302,0.00003635,0.00000749,0.00000071,-0.00011828,-0.00003576,0
 .00004703,0.00006695,0.00002213,-0.00002379,-0.00005821,-0.00000910,-0
 .00005796,-0.00003399,-0.00002622,0.00009719,0.00003464,0.00000322,-0.
 00000063,-0.00001950,0.00003311,-0.00000933,0.00002284,-0.00000972,0.0
 0001875,-0.00001617,-0.00000291,-0.00000600,-0.00000342,-0.00000058,0.
 00002130,-0.00001104,-0.00000305,-0.00001640,0.00000311,-0.00000445,0.
 00003248,0.00003762,-0.00000336,0.00002891,0.00022231,0.00005902,-0.00
 001271,-0.00000245,-0.00000203,-0.00001293,0.00000643,-0.00000113,0.00
 001811,-0.00000630,0.00003421,0.00000124,-0.00000861,-0.00005177,0.000
 00811,0.00000768,-0.00000403,-0.00001083,-0.00000269,0.00000326,0.0000
 0308,0.00000074,0.00000130,-0.00000211,0.00000249,0.00000332,-0.000023
 02,-0.00001057,0.00000580,-0.00003992,-0.00000031,0.00001467,-0.000008
 33,0.00001772,0.00001425,0.00000186,-0.00000306,0.00000364,0.00000864,
 -0.00000503,-0.00000595,0.00001501,0.00000883,-0.00000570,0.00000960,-
 0.00000173,-0.00000160,0.00000289,-0.00000358,-0.00000336,0.00000260,-
 0.00000703,-0.00000984,0.00000390,-0.00000540,-0.00000073,0.00102647,0
 .00087385,-0.00019049,0.00206190,0.00115252,-0.00064589,-0.00168813,-0
 .00295691,0.00060144,-0.01962745,-0.01655582,0.02255602,-0.13404861,-0
 .07722772,0.10091773,0.00144078,-0.00039701,-0.00027676,-0.00587295,0.
 00140210,-0.00237489,0.14809972,0.00010288,-0.00002396,0.00000622,-0.0
 0001869,0.00019047,-0.00000141,0.00000108,-0.00014971,-0.00000395,0.00
 002273,0.00011947,0.00000086,0.00004650,0.00010748,0.00000506,-0.00009
 348,-0.00001539,0.00000669,0.00003121,-0.00003119,0.00000777,-0.000018
 45,0.00003261,-0.00000105,-0.00001668,0.00002271,-0.00000161,0.0000022
 6,0.00001513,-0.00000157,-0.00002682,0.00001638,-0.00000023,0.00001734
 ,0.00000054,-0.00000759,-0.00003256,-0.00001178,0.00000236,-0.00000629
 ,-0.00033033,-0.00001105,0.00001128,0.00000934,0.00000496,0.00000902,0
 .00001230,-0.00000674,-0.00003016,0.00000670,0.00004037,-0.00003687,-0
 .00000764,-0.00004151,0.00001110,0.00000730,-0.00000193,0.00001843,-0.
 00000409,0.00000193,0.00001115,0.00000248,-0.00000110,0.00000285,-0.00
 000243,0.00000027,0.00002150,-0.00005049,0.00000032,0.00005667,-0.0000
 2707,0.00000725,0.00000982,-0.00005552,0.00000028,0.00000106,-0.000003
 94,0.00000030,-0.00001391,0.00001435,0.00000671,-0.00001460,0.00000179
 ,0.00000067,-0.00001934,0.00001138,-0.00001350,0.00000357,0.00001617,-
 0.00000134,-0.00000351,0.00001652,0.00000901,-0.00001055,0.00001717,-0
 .00000645,-0.00060065,0.00021831,0.00000095,0.00098465,0.00014767,-0.0
 0003695,0.00073539,-0.00034132,-0.00049209,0.00150956,0.00213392,-0.00
 310940,-0.07912827,-0.11646796,0.09056872,-0.00049889,0.00009919,-0.00
 007236,0.00112776,0.00035557,-0.00018025,0.08534749,0.12205198,0.00011
 196,-0.00004726,-0.00000741,-0.00014997,0.00002668,0.00000185,0.000282
 54,-0.00012691,-0.00001643,-0.00005876,0.00008650,0.00000628,-0.000146
 08,0.00015126,-0.00001108,0.00003133,-0.00007438,-0.00000688,0.0000270
 9,0.00002136,0.00006046,-0.00002710,0.00001740,-0.00001817,-0.00002258
 ,0.00002746,0.00000351,0.00000981,-0.00000307,-0.00000154,-0.00002559,
 0.00001042,0.00000420,0.00001181,-0.00000628,-0.00000181,-0.00004134,-
 0.00001275,0.00000354,0.00003562,-0.00007445,0.00001284,-0.00000557,0.
 00001214,0.00000828,-0.00001213,0.00002488,-0.00000833,-0.00000890,-0.
 00003434,0.00005057,-0.00003719,-0.00004172,-0.00008570,0.00002005,0.0
 0001904,-0.00001199,-0.00001159,-0.00000783,0.00000489,0.00001273,0.00
 000945,0.00000937,0.00000754,-0.00000454,-0.00000079,0.00001435,0.0000
 0994,-0.00000509,0.00003791,0.00000188,-0.00000329,0.00001538,-0.00000
 463,-0.00000414,-0.00000352,0.00000143,-0.00000087,-0.00000732,0.00000
 252,0.00000231,-0.00001355,-0.00000830,0.00000329,-0.00001036,0.000002
 10,-0.00000358,-0.00000712,-0.00000109,0.00000213,-0.00000322,0.000002
 06,0.00000433,-0.00000587,0.00000326,-0.00000246,-0.00025249,-0.000527
 74,-0.00009355,-0.00142067,0.00005327,-0.00017688,0.00113446,0.0017567
 9,0.00024545,-0.00509296,-0.00544431,0.00626849,0.10216924,0.08885215,
 -0.16539271,0.00059657,-0.00047354,0.00076424,-0.00211584,0.00035330,0
 .00082346,-0.10889826,-0.09884611,0.17592414,-0.00001725,0.00004459,0.
 00000257,0.00011274,0.00023770,-0.00000157,-0.00028650,-0.00005993,0.0
 0000647,0.00007817,0.00006862,-0.00000022,0.00013062,-0.00005083,-0.00
 000274,-0.00004714,0.00000984,0.00000118,-0.00000999,0.00000490,-0.000
 00325,0.00000863,-0.00001320,0.00000008,0.00001971,0.00000780,0.000000
 69,-0.00001265,0.00003857,-0.00000043,-0.00002621,0.00001879,0.0000022
 9,0.00002694,0.00002096,-0.00000002,0.00001165,0.00004966,0.00000712,-
 0.00002592,-0.00041971,0.00000768,0.00000746,0.00000144,-0.00000092,0.
 00000733,-0.00000052,0.00000076,0.00000727,0.00000203,-0.00001114,0.00
 001465,0.00000277,0.00001317,-0.00000523,-0.00000115,0.00000130,0.0000
 0045,0.00000020,0.00000014,-0.00000410,-0.00000065,-0.00000061,-0.0000
 0412,0.00000569,-0.00000012,0.00001274,-0.00025391,-0.00002334,0.00008
 294,-0.00004297,-0.00000526,0.00001249,-0.00010115,-0.00001178,0.00000
 696,-0.00001515,-0.00000252,-0.00002365,0.00002632,0.00001675,-0.00002
 294,0.00000585,0.00000397,-0.00002734,0.00001603,-0.00001548,0.0000088
 2,0.00002876,-0.00000133,-0.00000597,0.00003176,0.00002198,-0.00001606
 ,0.00002878,-0.00000683,-0.00302777,0.00338761,0.00002329,0.00171747,0
 .00097881,0.00027413,-0.00452500,-0.00621532,-0.00161129,-0.00773846,0
 .03448221,0.00074916,-0.06622101,0.06617649,0.00175432,0.00145717,-0.0
 0053287,-0.00026898,0.00099215,-0.00048766,0.00083498,0.00538324,-0.01
 770285,-0.00287521,0.07159842,-0.00016353,0.00003285,0.00000954,-0.000
 01658,-0.00037077,-0.00000560,0.00014653,0.00023408,-0.00000736,-0.000
 06823,-0.00019694,-0.00000230,-0.00010531,-0.00010310,0.00001024,0.000
 13395,0.00005214,-0.00000800,-0.00002186,0.00000661,-0.00000853,0.0000
 1684,-0.00001208,0.00000215,0.00001748,-0.00003871,-0.00000517,-0.0000
 0027,-0.00004129,0.00000260,0.00005688,-0.00003566,-0.00000997,-0.0000
 3778,-0.00000597,0.00000400,0.00005330,0.00001833,-0.00000421,0.000042
 73,0.00067640,0.00001101,-0.00001338,-0.00001059,-0.00000783,-0.000012
 94,-0.00001432,0.00000968,0.00001950,0.00000389,-0.00002131,0.00003128
 ,0.00000347,0.00002391,-0.00000999,-0.00000743,0.00000412,-0.00001627,
 0.00000696,0.00000131,-0.00000806,-0.00000623,-0.00000350,-0.00000272,
 0.00000316,0.00000032,-0.00005543,0.00017602,0.00001150,-0.00013799,0.
 00006838,0.00000211,-0.00002728,0.00014124,0.00001110,-0.00000513,0.00
 000989,0.00000108,0.00003573,-0.00003836,-0.00002123,0.00003776,-0.000
 00482,-0.00000465,0.00004577,-0.00002629,0.00002636,-0.00000767,-0.000
 03980,0.00000167,0.00000991,-0.00004369,-0.00002798,0.00002653,-0.0000
 4301,0.00001297,0.00172874,-0.00055663,0.00004711,0.00180908,-0.000769
 44,0.00025998,-0.00211594,0.00091127,-0.00000600,-0.00146141,-0.001070
 97,-0.00026341,0.06650443,-0.29193675,-0.00448120,0.00042060,0.0002558
 4,0.00053813,0.00063728,0.00030057,-0.00016059,0.00412576,-0.01441300,
 -0.00146627,-0.07376037,0.31738670,-0.00001023,0.00001359,0.00000275,0
 .00002914,0.00005152,0.00003222,-0.00004676,-0.00001259,-0.00001485,0.
 00001436,0.00001887,0.00000189,0.00002671,-0.00000163,0.00002487,-0.00
 001296,-0.00000894,-0.00000258,0.00000615,0.00001410,-0.00002143,-0.00
 000088,-0.00000181,0.00000786,0.00000504,0.00000143,0.00000061,-0.0000
 0366,0.00000753,0.00000083,-0.00000312,0.00000365,-0.00000255,0.000003
 23,0.00000572,0.00000034,0.00000474,0.00001026,-0.00000511,-0.00000613
 ,-0.00009999,-0.00004744,0.00000253,0.00000471,0.00000057,0.00000161,-
 0.00000037,0.00000114,-0.00000965,-0.00000352,0.00000966,0.00000851,-0
 .00000135,0.00000120,-0.00000179,0.00000007,-0.00000001,0.00000143,-0.
 00000003,0.00000106,0.00000292,0.00000062,-0.00000075,-0.00000097,0.00
 000159,-0.00000076,0.00000332,-0.00006197,-0.00000655,0.00000949,-0.00
 000837,0.00000279,-0.00000011,-0.00001679,-0.00000143,0.00000164,-0.00
 000376,-0.00000019,-0.00000303,0.00000429,0.00000226,-0.00000164,0.000
 00257,-0.00000024,-0.00000385,0.00000288,-0.00000376,0.00000246,0.0000
 0520,-0.00000058,-0.00000049,0.00000509,0.00000342,-0.00000207,0.00000
 465,-0.00000115,-0.00077104,0.00069128,0.00002170,-0.00008528,0.000307
 52,0.00056556,-0.00106397,-0.00086209,0.00037451,-0.00129437,0.0081441
 3,-0.00095821,0.00167945,-0.00473784,-0.05034053,0.00045596,0.00032298
 ,0.00005310,0.00020522,-0.00041741,0.00014587,-0.00780409,0.02057172,0
 .00100815,-0.00008528,0.00518955,0.04757354,0.00000164,-0.00000002,-0.
 00000777,-0.00005140,-0.00001386,0.00002512,0.00011599,-0.00001522,-0.
 00001390,-0.00002798,0.00000748,0.00000502,-0.00007269,0.00004031,0.00
 000003,0.00004137,-0.00001087,-0.00001102,0.00000073,-0.00001842,0.000
 05945,-0.00001052,0.00001106,-0.00001609,-0.00000067,0.00000585,0.0000
 0128,0.00000163,-0.00000282,0.00000033,-0.00000216,0.00000027,-0.00000
 109,-0.00000243,-0.00000004,0.00000381,-0.00000124,0.00001508,0.000021
 89,0.00002098,0.00002212,-0.00001244,-0.00000255,-0.00000032,0.0000014
 0,-0.00001114,0.00000908,-0.00000303,0.00000141,-0.00000126,0.00000525
 ,-0.00001234,-0.00001333,-0.00003598,0.00000904,0.00000919,-0.00000630
 ,-0.00000556,-0.00000192,0.00000642,0.00000232,-0.00000154,0.00000238,
 0.00000200,-0.00000003,-0.00000203,-0.00000319,-0.00002255,-0.00002097
 ,-0.00000435,0.00000452,-0.00001738,0.00000121,0.00000936,-0.00001263,
 -0.00000093,-0.00000155,-0.00000585,0.00000033,0.00000091,0.00000476,-
 0.00000003,-0.00000233,0.00000463,0.00000396,-0.00000258,0.00000823,-0
 .00000323,-0.00000376,0.00000283,-0.00000049,-0.00000123,0.00000540,0.
 00000245,-0.00000335,0.00000366,0.00013188,0.00029846,0.00045988,0.000
 68216,0.00059769,0.00024534,0.00018081,-0.00167044,-0.00048884,-0.0065
 1174,-0.01211901,-0.03171234,-0.05545803,-0.01823893,-0.04410773,-0.00
 651106,0.00126350,-0.00141818,0.00139610,-0.00058790,0.00058605,0.0032
 3060,0.00818724,0.01673474,0.00034930,0.00214804,0.00874750,0.06251784
 ,0.00008505,-0.00002351,-0.00000966,-0.00002499,0.00013979,-0.00001397
 ,-0.00000388,-0.00009673,0.00001232,0.00001408,0.00007437,0.00000086,0
 .00001235,0.00006051,-0.00002961,-0.00005081,-0.00002066,0.00000669,0.
 00000857,-0.00001165,0.00003255,-0.00000823,0.00000671,-0.00001158,-0.
 00001367,0.00001777,0.00000391,0.00000329,0.00000997,-0.00000226,-0.00
 002261,0.00001285,0.00000486,0.00001555,-0.00000007,0.00000040,-0.0000
 3029,-0.00001064,0.00000624,-0.00001266,-0.00023218,0.00000973,0.00000
 545,0.00000119,0.00000228,0.00000381,0.00000901,-0.00000562,0.00000215
 ,0.00000311,0.00000308,-0.00002275,0.00000186,-0.00001911,0.00000783,0
 .00000409,-0.00000160,0.00000653,-0.00000253,-0.00000149,0.00000168,0.
 00000281,0.00000185,0.00000250,-0.00000185,-0.00000022,0.00002034,-0.0
 0003044,-0.00000501,0.00004743,-0.00001449,-0.00000624,0.00001020,-0.0
 0003753,-0.00000624,-0.00000019,-0.00000188,-0.00000158,-0.00001153,0.
 00001043,0.00000724,-0.00001475,-0.00000254,0.00000344,-0.00001420,0.0
 0000659,-0.00000557,0.00000014,0.00001004,0.00000060,-0.00000343,0.000
 01205,0.00000950,-0.00000774,0.00001159,-0.00000325,-0.00030981,0.0001
 0993,-0.00012030,-0.00034083,0.00041858,-0.00021128,0.00047556,0.00002
 910,0.00084213,0.00021683,0.00119513,0.00388317,-0.01867130,-0.0846866
 5,-0.09113145,0.00083815,0.00057525,0.00054946,-0.00038442,-0.00004102
 ,-0.00025512,0.00408541,0.00630892,0.01576024,-0.00601795,-0.01050195,
 -0.02914706,0.02010313,0.08668465,-0.00009370,0.00004637,-0.00000663,0
 .00011786,0.00001189,0.00005498,-0.00019655,0.00009363,-0.00003566,0.0
 0004179,-0.00004848,0.00001036,0.00009437,-0.00010571,0.00006104,-0.00
 000355,0.00002442,-0.00001007,-0.00000705,0.00003395,-0.00011006,0.000
 01488,-0.00001754,0.00003252,0.00002004,-0.00001805,0.00000308,-0.0000
 0980,0.00000579,0.00000197,0.00001786,-0.00000638,0.00000061,-0.000009
 36,0.00000899,0.00000839,0.00003131,0.00002106,0.00001070,-0.00003789,
 -0.00001249,-0.00008730,0.00000027,0.00000781,-0.00000056,0.00000649,-
 0.00002220,0.00001055,-0.00000360,0.00000063,-0.00000012,0.00004312,0.
 00002081,0.00004979,-0.00001653,-0.00001750,0.00000981,0.00000150,0.00
 000376,-0.00001050,-0.00000009,0.00000525,-0.00000152,-0.00000564,0.00
 000453,-0.00000471,-0.00001078,-0.00004432,-0.00002005,-0.00003115,-0.
 00000320,-0.00002286,-0.00001392,0.00000040,-0.00002199,0.00000264,-0.
 00000347,-0.00000484,0.00000439,0.00000310,0.00000671,0.00001016,0.000
 00607,0.00000265,0.00001135,-0.00000333,0.00001273,0.00000454,0.000000
 75,0.00000349,0.00000192,0.00000243,0.00000956,0.00000806,-0.00000379,
 0.00000811,0.00024824,0.00081521,-0.00000684,0.00161997,0.00092113,0.0
 0126496,-0.00121968,-0.00247003,-0.00018896,-0.00137200,-0.00151780,-0
 .00577549,-0.04563467,-0.08979823,-0.27351359,-0.00148220,0.00020185,0
 .00135232,-0.00040807,0.00007460,0.00070812,-0.00390897,-0.00840421,-0
 .01935904,0.00120627,0.00033466,0.00157223,0.05095818,0.09984765,0.293
 98612\\-0.00000178,0.00000080,-0.00000258,0.00000013,0.00000850,0.0000
 0059,0.00000144,0.00000089,-0.00000501,-0.00000054,-0.00000150,-0.0000
 0905,0.00000011,0.00000051,-0.00000247,-0.00000174,0.00000011,-0.00000
 602,-0.00000024,0.00000022,-0.00000213,-0.00000032,0.00000046,-0.00000
 495,-0.00000020,0.00000017,-0.00000874,-0.00000081,-0.00000193,-0.0000
 0654,0.00000092,-0.00000201,-0.00000574,-0.00000005,0.00000101,0.00000
 112,0.00000033,0.00000351,0.00000225,0.00000184,-0.00000794,0.00000253
 ,-0.00000002,0.00000411,-0.00000773,-0.00000147,-0.00000346,-0.0000082
 0,-0.00000093,-0.00000326,0.00000026,0.00000079,0.00000310,0.00000059,
 -0.00000150,-0.00000270,-0.00000799,-0.00000008,0.00000009,-0.00000294
 ,0.00000035,0.00000363,-0.00000751,-0.00000191,0.00000004,-0.00001075,
 0.00000085,-0.00000543,0.00000444,-0.00000010,-0.00000249,-0.00000398,
 -0.00000206,0.00000073,-0.00001239,-0.00000134,-0.00000147,0.00000463,
 0.00000320,0.00000973,-0.00000751,0.00000133,-0.00000174,-0.00000036,-
 0.00000050,-0.00000385,-0.00000672,-0.00000007,-0.00000063,-0.00001720
 ,-0.00000250,0.00000415,-0.00001460,-0.00000453,-0.00000412,-0.0000130
 4,-0.00000088,-0.00000086,0.00001488,0.00000075,-0.00000125,0.00000566
 ,0.00000182,-0.00000096,0.00001571,0.00000119,-0.00000029,0.00001667,0
 .00000224,0.00000125,0.00001753,0.00000023,-0.00000427,0.00001712,0.00
 000142,0.00000221,0.00002091,0.00000014,-0.00000087,0.00001399,0.00000
 206,0.00000105,0.00002033,0.00000244,0.00000475,0.00001495\\\@


 LIFE IS SO UNCERTAIN - EAT DESSERT FIRST.
 Job cpu time:       0 days 11 hours 32 minutes 57.4 seconds.
 Elapsed time:       0 days 11 hours 32 minutes 58.2 seconds.
 File lengths (MBytes):  RWF=   1737 Int=      0 D2E=      0 Chk=     48 Scr=      1
 Normal termination of Gaussian 16 at Tue Mar 23 01:02:38 2021.
