 Entering Gaussian System, Link 0=/apps/gaussian/g09e01/g09/g09
 AtFile(1): /home/507/hio507/Basis/GTMP2LARGE.gbs
 Initial command:
 /apps/gaussian/g09e01/g09/l1.exe "/jobfs/local/3890864.r-man2/Gau-27327.inp" -scrdir="/jobfs/local/3890864.r-man2/"
 Entering Link 1 = /apps/gaussian/g09e01/g09/l1.exe PID=     27328.
  
 Copyright (c) 1988,1990,1992,1993,1995,1998,2003,2009,2015,
            Gaussian, Inc.  All Rights Reserved.
  
 This is part of the Gaussian(R) 09 program.  It is based on
 the Gaussian(R) 03 system (copyright 2003, Gaussian, Inc.),
 the Gaussian(R) 98 system (copyright 1998, Gaussian, Inc.),
 the Gaussian(R) 94 system (copyright 1995, Gaussian, Inc.),
 the Gaussian 92(TM) system (copyright 1992, Gaussian, Inc.),
 the Gaussian 90(TM) system (copyright 1990, Gaussian, Inc.),
 the Gaussian 88(TM) system (copyright 1988, Gaussian, Inc.),
 the Gaussian 86(TM) system (copyright 1986, Carnegie Mellon
 University), and the Gaussian 82(TM) system (copyright 1983,
 Carnegie Mellon University). Gaussian is a federally registered
 trademark of Gaussian, Inc.
  
 This software contains proprietary and confidential information,
 including trade secrets, belonging to Gaussian, Inc.
  
 This software is provided under written license and may be
 used, copied, transmitted, or stored only in accord with that
 written license.
  
 The following legend is applicable only to US Government
 contracts under FAR:
  
                    RESTRICTED RIGHTS LEGEND
  
 Use, reproduction and disclosure by the US Government is
 subject to restrictions as set forth in subparagraphs (a)
 and (c) of the Commercial Computer Software - Restricted
 Rights clause in FAR 52.227-19.
  
 Gaussian, Inc.
 340 Quinnipiac St., Bldg. 40, Wallingford CT 06492
  
  
 ---------------------------------------------------------------
 Warning -- This program may not be used in any manner that
 competes with the business of Gaussian, Inc. or will provide
 assistance to any competitor of Gaussian, Inc.  The licensee
 of this program is prohibited from giving any competitor of
 Gaussian, Inc. access to this program.  By using this program,
 the user acknowledges that Gaussian, Inc. is engaged in the
 business of creating and licensing software in the field of
 computational chemistry and represents and warrants to the
 licensee that it is not a competitor of Gaussian, Inc. and that
 it will not use this program in any manner prohibited above.
 ---------------------------------------------------------------
  

 Cite this work as:
 Gaussian 09, Revision E.01,
 M. J. Frisch, G. W. Trucks, H. B. Schlegel, G. E. Scuseria, 
 M. A. Robb, J. R. Cheeseman, G. Scalmani, V. Barone, B. Mennucci, 
 G. A. Petersson, H. Nakatsuji, M. Caricato, X. Li, H. P. Hratchian, 
 A. F. Izmaylov, J. Bloino, G. Zheng, J. L. Sonnenberg, M. Hada, 
 M. Ehara, K. Toyota, R. Fukuda, J. Hasegawa, M. Ishida, T. Nakajima, 
 Y. Honda, O. Kitao, H. Nakai, T. Vreven, J. A. Montgomery, Jr., 
 J. E. Peralta, F. Ogliaro, M. Bearpark, J. J. Heyd, E. Brothers, 
 K. N. Kudin, V. N. Staroverov, T. Keith, R. Kobayashi, J. Normand, 
 K. Raghavachari, A. Rendell, J. C. Burant, S. S. Iyengar, J. Tomasi, 
 M. Cossi, N. Rega, J. M. Millam, M. Klene, J. E. Knox, J. B. Cross, 
 V. Bakken, C. Adamo, J. Jaramillo, R. Gomperts, R. E. Stratmann, 
 O. Yazyev, A. J. Austin, R. Cammi, C. Pomelli, J. W. Ochterski, 
 R. L. Martin, K. Morokuma, V. G. Zakrzewski, G. A. Voth, 
 P. Salvador, J. J. Dannenberg, S. Dapprich, A. D. Daniels, 
 O. Farkas, J. B. Foresman, J. V. Ortiz, J. Cioslowski, 
 and D. J. Fox, Gaussian, Inc., Wallingford CT, 2013.
 
 ******************************************
 Gaussian 09:  ES64L-G09RevE.01 30-Nov-2015
                30-Nov-2019 
 ******************************************
 %chk=CP21.MP2_GTMP2LARGE.chk
 %mem=1114112000
 %nproc=4
 Will use up to    4 processors via shared memory.
 -------------------------------------------------------------
 # MP2/Gen 5D SCF=Tight INT(grid=ultrafine) maxdisk=3489660928
 -------------------------------------------------------------
 1/38=1/1;
 2/12=2,17=6,18=5,40=1/2;
 3/5=7,8=1,11=9,16=1,25=1,30=1,75=-5/1,2,3;
 4//1;
 5/5=2,32=2,38=5/2;
 8/10=1/1;
 9/16=-3/6;
 6/7=2,8=2,9=2,10=2/1;
 99/5=1,9=1/99;
 -------------------
 CP21.MP2_GTMP2LARGE
 -------------------
 Symbolic Z-matrix:
 Charge =  0 Multiplicity = 1
 C                    -6.10445   1.25459   0.36313 
 N                    -4.84897   0.65739   0.28377 
 C                    -3.62619   1.28107   0.02846 
 O                    -3.51113   2.45885  -0.22502 
 N                    -2.56628   0.41307   0.06124 
 C                    -1.21538   0.94034  -0.08991 
 C                    -0.21621  -0.19588  -0.24976 
 C                     1.20579   0.33008  -0.41776 
 C                    -6.30088   2.64383   0.36401 
 C                    -7.58613   3.14974   0.47277 
 C                    -8.66825   2.28171   0.57668 
 C                    -8.49164   0.90053   0.5782 
 C                    -7.21124   0.39564   0.47171 
 H                    -4.85084  -0.35172   0.27784 
 H                    -2.65948  -0.4389    0.5952 
 H                    -0.94994   1.57051   0.76701 
 H                    -1.20961   1.58399  -0.97099 
 H                    -0.50132  -0.80232  -1.11452 
 H                    -0.26231  -0.85228   0.62741 
 H                     1.28565   0.96853  -1.30064 
 H                     1.91855  -0.48764  -0.53296 
 H                     1.51336   0.92075   0.44836 
 H                    -5.45645   3.30921   0.27864 
 C                    -10.76704   3.07689  -1.12563 
 H                    -9.34734   0.24223   0.67237 
 H                    -7.05849  -0.6789    0.47848 
 F                    -10.71981   1.88137  -1.69987 
 F                    -11.99386   3.55881  -1.21668 
 F                    -9.92636   3.88882  -1.75233 
 S                    -10.29716   2.93706   0.67573 
 O                    -10.25311   4.29995   1.16032 
 O                    -11.19293   1.9393    1.22197 
 H                    -7.75196   4.22092   0.4872 
 
                          Input orientation:                          
 ---------------------------------------------------------------------
 Center     Atomic      Atomic             Coordinates (Angstroms)
 Number     Number       Type             X           Y           Z
 ---------------------------------------------------------------------
      1          6           0       -6.104454    1.254590    0.363134
      2          7           0       -4.848974    0.657387    0.283768
      3          6           0       -3.626192    1.281070    0.028464
      4          8           0       -3.511129    2.458849   -0.225020
      5          7           0       -2.566284    0.413067    0.061240
      6          6           0       -1.215380    0.940340   -0.089909
      7          6           0       -0.216215   -0.195880   -0.249760
      8          6           0        1.205789    0.330079   -0.417763
      9          6           0       -6.300884    2.643835    0.364010
     10          6           0       -7.586126    3.149741    0.472769
     11          6           0       -8.668248    2.281706    0.576682
     12          6           0       -8.491639    0.900533    0.578197
     13          6           0       -7.211237    0.395635    0.471705
     14          1           0       -4.850840   -0.351719    0.277844
     15          1           0       -2.659480   -0.438902    0.595205
     16          1           0       -0.949945    1.570507    0.767008
     17          1           0       -1.209605    1.583992   -0.970988
     18          1           0       -0.501322   -0.802317   -1.114522
     19          1           0       -0.262310   -0.852278    0.627406
     20          1           0        1.285648    0.968525   -1.300639
     21          1           0        1.918552   -0.487635   -0.532955
     22          1           0        1.513362    0.920751    0.448365
     23          1           0       -5.456450    3.309211    0.278637
     24          6           0      -10.767038    3.076889   -1.125634
     25          1           0       -9.347340    0.242229    0.672374
     26          1           0       -7.058492   -0.678904    0.478476
     27          9           0      -10.719811    1.881373   -1.699874
     28          9           0      -11.993862    3.558806   -1.216682
     29          9           0       -9.926365    3.888819   -1.752334
     30         16           0      -10.297158    2.937059    0.675729
     31          8           0      -10.253109    4.299954    1.160322
     32          8           0      -11.192934    1.939299    1.221973
     33          1           0       -7.751960    4.220921    0.487202
 ---------------------------------------------------------------------
                    Distance matrix (angstroms):
                    1          2          3          4          5
     1  C    0.000000
     2  N    1.392546   0.000000
     3  C    2.500898   1.396193   0.000000
     4  O    2.919161   2.300861   1.210231   0.000000
     5  N    3.649377   2.306487   1.370368   2.271542   0.000000
     6  C    4.920066   3.663700   2.437647   2.755828   1.458014
     7  C    6.095151   4.740798   3.726490   4.231389   2.447522
     8  C    7.409736   6.104050   4.944850   5.178623   3.803271
     9  C    1.403063   2.461800   3.020546   2.857255   4.360646
    10  C    2.408104   3.706691   4.401184   4.191640   5.732151
    11  C    2.770128   4.160658   5.169541   5.222067   6.402457
    12  C    2.422862   3.662625   4.911170   5.280055   5.967805
    13  C    1.405190   2.384140   3.719275   4.293376   4.663087
    14  H    2.039375   1.009125   2.056199   3.153885   2.418887
    15  H    3.845728   2.468345   2.052810   3.129702   1.009780
    16  H    5.179950   4.033576   2.791329   2.886682   2.109580
    17  H    5.084086   3.959547   2.632595   2.572714   2.068124
    18  H    6.148937   4.794583   3.925778   4.526076   2.669016
    19  H    6.216058   4.840935   4.028102   4.716462   2.688854
    20  H    7.580474   6.343559   5.098075   5.136837   4.123182
    21  H    8.258750   6.912128   5.847024   6.185308   4.612818
    22  H    7.625604   6.369911   5.169251   5.297613   4.129300
    23  H    2.156042   2.720519   2.743317   2.181985   4.097312
    24  C    5.222728   6.547052   7.453093   7.337663   8.703849
    25  H    3.411277   4.534167   5.850243   6.307145   6.810682
    26  H    2.159142   2.589509   3.978026   4.787921   4.641812
    27  F    5.094152   6.316622   7.325773   7.380635   8.469797
    28  F    6.518462   7.856145   8.761071   8.611043  10.020378
    29  F    5.101114   6.353563   7.047253   6.747796   8.339106
    30  S    4.528486   5.918890   6.903843   6.862232   8.155645
    31  O    5.207790   6.575813   7.369586   7.124825   8.683498
    32  O    5.205675   6.539829   7.688518   7.834146   8.837181
    33  H    3.395407   4.600814   5.086761   4.647236   6.447669
                    6          7          8          9         10
     6  C    0.000000
     7  C    1.521473   0.000000
     8  C    2.518326   1.525435   0.000000
     9  C    5.382405   6.742692   7.893971   0.000000
    10  C    6.766422   8.125935   9.275846   1.385503   0.000000
    11  C    7.601898   8.846373  10.114069   2.404326   1.391141
    12  C    7.306976   8.388699   9.765115   2.807914   2.426933
    13  C    6.046687   7.056964   8.464147   2.427909   2.779504
    14  H    3.875723   4.667163   6.134450   3.329173   4.447472
    15  H    2.111188   2.596646   4.069120   4.776667   6.096326
    16  H    1.096299   2.166171   2.754911   5.472384   6.827844
    17  H    1.091156   2.162160   2.777136   5.369041   6.722799
    18  H    2.143960   1.094013   2.163798   6.906297   8.266360
    19  H    2.153221   1.096542   2.155380   6.982589   8.347356
    20  H    2.778813   2.171584   1.092457   7.945640   9.306506
    21  H    3.472309   2.173143   1.090851   8.841367  10.226480
    22  H    2.781394   2.173862   1.092553   8.002410   9.368547
    23  H    4.871760   6.326525   7.331141   1.078464   2.144444
    24  C    9.842344  11.081428  12.304253   4.727907   3.560674
    25  H    8.197390   9.188020  10.609649   3.891489   3.405193
    26  H    6.089907   6.897854   8.373747   3.409936   3.864836
    27  F    9.685647  10.804784  12.094225   4.936384   4.018597
    28  F   11.149065  12.399418  13.612264   5.978775   4.738112
    29  F    9.345504  10.640935  11.763102   4.378699   3.312708
    30  S    9.330155  10.597040  11.845247   4.019124   2.726925
    31  O    9.722686  11.087835  12.229334   4.358546   2.984714
    32  O   10.112890  11.278889  12.609784   5.016435   3.877568
    33  H    7.336358   8.765769   9.808103   2.146625   1.084037
                   11         12         13         14         15
    11  C    0.000000
    12  C    1.392419   0.000000
    13  C    2.385616   1.380467   0.000000
    14  H    4.647239   3.861834   2.483464   0.000000
    15  H    6.596010   5.984017   4.629277   2.215938   0.000000
    16  H    7.753337   7.573748   6.377406   4.376210   2.643813
    17  H    7.649408   7.476303   6.285948   4.308730   2.940611
    18  H    8.892135   8.343271   6.998155   4.589122   2.777207
    19  H    8.971300   8.414073   7.061807   4.628970   2.432763
    20  H   10.214149   9.956404   8.698648   6.472337   4.597729
    21  H   10.999131  10.560954   9.227273   6.819131   4.715241
    22  H   10.272967  10.005864   8.740419   6.492405   4.391221
    23  H    3.385299   3.886366   3.406681   3.710683   4.687388
    24  C    2.816933   3.580084   4.731208   6.980437   9.003031
    25  H    2.151694   1.083724   2.150985   4.552684   6.722899
    26  H    3.371376   2.135059   1.085363   2.240765   4.407100
    27  F    3.090612   3.334127   4.385575   6.583532   8.695977
    28  F    3.988338   4.749060   5.977441   8.279406  10.314809
    29  F    3.096770   4.052118   4.951828   6.918434   8.777683
    30  S    1.758592   2.723390   4.002920   6.374696   8.350912
    31  O    2.631681   3.872687   4.997087   7.183406   8.968797
    32  O    2.628246   2.964874   4.335863   6.808986   8.880795
    33  H    2.146659   3.402996   3.863345   5.419351   6.903548
                   16         17         18         19         20
    16  H    0.000000
    17  H    1.757337   0.000000
    18  H    3.061325   2.493339   0.000000
    19  H    2.522344   3.063926   1.758959   0.000000
    20  H    3.104097   2.591092   2.522654   3.070645   0.000000
    21  H    3.762197   3.777417   2.508592   2.497111   1.763607
    22  H    2.567411   3.141496   3.077422   2.515691   1.764412
    23  H    4.854913   4.751171   6.587780   6.664737   7.309501
    24  C   10.110717   9.674564  10.974210  11.351687  12.236955
    25  H    8.502324   8.409738   9.084939   9.150832  10.838852
    26  H    6.515938   6.436701   6.749026   6.800023   8.689300
    27  F   10.081291   9.542732  10.581227  11.056600  12.046731
    28  F   11.395458  10.966332  12.292612  12.668371  13.530040
    29  F    9.607173   9.050118  10.547275  11.024296  11.594886
    30  S    9.447020   9.334136  10.637027  10.726583  11.913965
    31  O    9.703269   9.680077  11.238569  11.253690  12.259594
    32  O   10.259718  10.227520  11.282120  11.297121  12.767967
    33  H    7.305505   7.202924   8.964943   9.047202   9.769996
                   21         22         23         24         25
    21  H    0.000000
    22  H    1.763723   0.000000
    23  H    8.334589   7.369655   0.000000
    24  C   13.190197  12.567204   5.498027   0.000000
    25  H   11.353671  10.884182   4.969953   3.644677   0.000000
    26  H    9.035867   8.719890   4.302504   5.516563   2.474856
    27  F   12.911318  12.457458   5.801397   1.327118   3.193435
    28  F   14.505048  13.862785   6.710889   1.321223   4.644598
    29  F   12.686303  12.021641   4.943777   1.326165   4.417249
    30  S   12.744137  11.983554   4.871205   1.866882   2.857319
    31  O   13.188537  12.262778   4.976633   2.643030   4.186124
    32  O   13.449195  12.770507   5.972754   2.643247   2.566773
    33  H   10.804167   9.835590   2.478726   3.605654   4.290631
                   26         27         28         29         30
    26  H    0.000000
    27  F    4.970462   0.000000
    28  F    6.722323   2.161125   0.000000
    29  F    5.836549   2.159201   2.161105   0.000000
    30  S    4.858298   2.633743   2.616599   2.634165   0.000000
    31  O    5.954790   3.774662   3.038037   2.959621   1.447153
    32  O    4.949888   2.960472   3.035017   3.775092   1.447868
    33  H    4.948663   4.366340   4.619020   3.139083   2.856900
                   31         32         33
    31  O    0.000000
    32  O    2.541606   0.000000
    33  H    2.591347   4.193565   0.000000
 Stoichiometry    C11H13F3N2O3S
 Framework group  C1[X(C11H13F3N2O3S)]
 Deg. of freedom    93
 Full point group                 C1      NOp   1
 Largest Abelian subgroup         C1      NOp   1
 Largest concise Abelian subgroup C1      NOp   1
                         Standard orientation:                         
 ---------------------------------------------------------------------
 Center     Atomic      Atomic             Coordinates (Angstroms)
 Number     Number       Type             X           Y           Z
 ---------------------------------------------------------------------
      1          6           0        0.919378    0.623723   -0.075535
      2          7           0        2.282153    0.808804    0.143034
      3          6           0        3.312255   -0.103084   -0.095098
      4          8           0        3.132667   -1.235924   -0.481205
      5          7           0        4.552880    0.406523    0.186077
      6          6           0        5.731804   -0.399281   -0.108239
      7          6           0        6.977488    0.246923    0.479613
      8          6           0        8.225503   -0.581743    0.191993
      9          6           0        0.388366   -0.486841   -0.748781
     10          6           0       -0.980601   -0.574616   -0.943309
     11          6           0       -1.815860    0.431989   -0.469642
     12          6           0       -1.306019    1.541342    0.199858
     13          6           0        0.058030    1.630487    0.392509
     14          1           0        2.527685    1.643830    0.653698
     15          1           0        4.676427    1.408513    0.165936
     16          1           0        5.842691   -0.538549   -1.189988
     17          1           0        5.571315   -1.388149    0.324201
     18          1           0        6.841640    0.366684    1.558532
     19          1           0        7.101977    1.253025    0.061683
     20          1           0        8.138094   -1.583137    0.619814
     21          1           0        9.115873   -0.115403    0.615934
     22          1           0        8.387009   -0.692542   -0.882861
     23          1           0        1.043061   -1.264592   -1.108727
     24          6           0       -4.061462   -0.652882    0.840105
     25          1           0       -1.973287    2.320174    0.550045
     26          1           0        0.469610    2.493132    0.906763
     27          9           0       -3.727981    0.033931    1.925609
     28          9           0       -5.369795   -0.836101    0.821999
     29          9           0       -3.451435   -1.829998    0.871361
     30         16           0       -3.554721    0.289021   -0.690019
     31          8           0       -3.841595   -0.602477   -1.793282
     32          8           0       -4.173365    1.590845   -0.552706
     33          1           0       -1.403847   -1.420750   -1.472512
 ---------------------------------------------------------------------
 Rotational constants (GHZ):      1.0246635      0.0953005      0.0942311
 General basis read from cards:  (5D, 7F)
 There are   934 symmetry adapted cartesian basis functions of A   symmetry.
 There are   830 symmetry adapted basis functions of A   symmetry.
   830 basis functions,  1226 primitive gaussians,   934 cartesian basis functions
    80 alpha electrons       80 beta electrons
       nuclear repulsion energy      1747.1916739247 Hartrees.
 NAtoms=   33 NActive=   33 NUniq=   33 SFac= 1.00D+00 NAtFMM=   60 NAOKFM=F Big=F
 Integral buffers will be    131072 words long.
 Raffenetti 1 integral format.
 Two-electron integral symmetry is turned on.
 One-electron integrals computed using PRISM.
 NBasis=   830 RedAO= T EigKep=  2.16D-06  NBF=   830
 NBsUse=   828 1.00D-06 EigRej=  4.70D-07 NBFU=   828
 ExpMin= 3.60D-02 ExpMax= 9.34D+04 ExpMxC= 3.17D+03 IAcc=3 IRadAn=         5 AccDes= 0.00D+00
 Harris functional with IExCor=  205 and IRadAn=       5 diagonalized for initial guess.
 HarFok:  IExCor=  205 AccDes= 0.00D+00 IRadAn=         5 IDoV= 1 UseB2=F ITyADJ=14
 ICtDFT=  3500011 ScaDFX=  1.000000  1.000000  1.000000  1.000000
 FoFCou: FMM=F IPFlag=           0 FMFlag=      100000 FMFlg1=           0
         NFxFlg=           0 DoJE=T BraDBF=F KetDBF=T FulRan=T
         wScrn=  0.000000 ICntrl=     500 IOpCl=  0 I1Cent=   200000004 NGrid=           0
         NMat0=    1 NMatS0=      1 NMatT0=    0 NMatD0=    1 NMtDS0=    0 NMtDT0=    0
 Petite list used in FoFCou.
 Requested convergence on RMS density matrix=1.00D-08 within 128 cycles.
 Requested convergence on MAX density matrix=1.00D-06.
 Requested convergence on             energy=1.00D-06.
 No special actions if energy rises.
 Initial convergence to 1.0D-05 achieved.  Increase integral accuracy.
 SCF Done:  E(RHF) =  -1453.81327003     A.U. after   17 cycles
            NFock= 17  Conv=0.22D-08     -V/T= 2.0009
 ExpMin= 3.60D-02 ExpMax= 9.34D+04 ExpMxC= 3.17D+03 IAcc=3 IRadAn=         5 AccDes= 0.00D+00
 HarFok:  IExCor=  205 AccDes= 0.00D+00 IRadAn=         5 IDoV=-2 UseB2=F ITyADJ=14
 ICtDFT= 12500011 ScaDFX=  1.000000  1.000000  1.000000  1.000000
 Range of M.O.s used for correlation:    25   828
 NBasis=   830 NAE=    80 NBE=    80 NFC=    24 NFV=     0
 NROrb=    804 NOA=    56 NOB=    56 NVA=   748 NVB=   748

 **** Warning!!: The largest alpha MO coefficient is  0.10849075D+03

 Fully direct method using O(OVN) memory.
 JobTyp=1 Pass  1:  I=   1 to   7 NPSUse=  4 ParTrn=T ParDer=T DoDerP=F.
 JobTyp=1 Pass  2:  I=   8 to  15 NPSUse=  4 ParTrn=T ParDer=T DoDerP=F.
 JobTyp=1 Pass  3:  I=  16 to  25 NPSUse=  4 ParTrn=T ParDer=T DoDerP=F.
 JobTyp=1 Pass  4:  I=  26 to  41 NPSUse=  4 ParTrn=T ParDer=T DoDerP=F.
 JobTyp=1 Pass  5:  I=  42 to  56 NPSUse=  4 ParTrn=T ParDer=T DoDerP=F.
 Spin components of T(2) and E(2):
     alpha-alpha T2 =       0.1474950956D+00 E2=     -0.4959060538D+00
     alpha-beta  T2 =       0.7648230771D+00 E2=     -0.2798059206D+01
     beta-beta   T2 =       0.1474950956D+00 E2=     -0.4959060538D+00
 ANorm=    0.1435204957D+01
 E2 =    -0.3789871314D+01 EUMP2 =    -0.14576031413423D+04

 **********************************************************************

            Population analysis using the SCF density.

 **********************************************************************

 Orbital symmetries:
       Occupied  (A) (A) (A) (A) (A) (A) (A) (A) (A) (A) (A) (A)
                 (A) (A) (A) (A) (A) (A) (A) (A) (A) (A) (A) (A)
                 (A) (A) (A) (A) (A) (A) (A) (A) (A) (A) (A) (A)
                 (A) (A) (A) (A) (A) (A) (A) (A) (A) (A) (A) (A)
                 (A) (A) (A) (A) (A) (A) (A) (A) (A) (A) (A) (A)
                 (A) (A) (A) (A) (A) (A) (A) (A) (A) (A) (A) (A)
                 (A) (A) (A) (A) (A) (A) (A) (A)
       Virtual   (A) (A) (A) (A) (A) (A) (A) (A) (A) (A) (A) (A)
                 (A) (A) (A) (A) (A) (A) (A) (A) (A) (A) (A) (A)
                 (A) (A) (A) (A) (A) (A) (A) (A) (A) (A) (A) (A)
                 (A) (A) (A) (A) (A) (A) (A) (A) (A) (A) (A) (A)
                 (A) (A) (A) (A) (A) (A) (A) (A) (A) (A) (A) (A)
                 (A) (A) (A) (A) (A) (A) (A) (A) (A) (A) (A) (A)
                 (A) (A) (A) (A) (A) (A) (A) (A) (A) (A) (A) (A)
                 (A) (A) (A) (A) (A) (A) (A) (A) (A) (A) (A) (A)
                 (A) (A) (A) (A) (A) (A) (A) (A) (A) (A) (A) (A)
                 (A) (A) (A) (A) (A) (A) (A) (A) (A) (A) (A) (A)
                 (A) (A) (A) (A) (A) (A) (A) (A) (A) (A) (A) (A)
                 (A) (A) (A) (A) (A) (A) (A) (A) (A) (A) (A) (A)
                 (A) (A) (A) (A) (A) (A) (A) (A) (A) (A) (A) (A)
                 (A) (A) (A) (A) (A) (A) (A) (A) (A) (A) (A) (A)
                 (A) (A) (A) (A) (A) (A) (A) (A) (A) (A) (A) (A)
                 (A) (A) (A) (A) (A) (A) (A) (A) (A) (A) (A) (A)
                 (A) (A) (A) (A) (A) (A) (A) (A) (A) (A) (A) (A)
                 (A) (A) (A) (A) (A) (A) (A) (A) (A) (A) (A) (A)
                 (A) (A) (A) (A) (A) (A) (A) (A) (A) (A) (A) (A)
                 (A) (A) (A) (A) (A) (A) (A) (A) (A) (A) (A) (A)
                 (A) (A) (A) (A) (A) (A) (A) (A) (A) (A) (A) (A)
                 (A) (A) (A) (A) (A) (A) (A) (A) (A) (A) (A) (A)
                 (A) (A) (A) (A) (A) (A) (A) (A) (A) (A) (A) (A)
                 (A) (A) (A) (A) (A) (A) (A) (A) (A) (A) (A) (A)
                 (A) (A) (A) (A) (A) (A) (A) (A) (A) (A) (A) (A)
                 (A) (A) (A) (A) (A) (A) (A) (A) (A) (A) (A) (A)
                 (A) (A) (A) (A) (A) (A) (A) (A) (A) (A) (A) (A)
                 (A) (A) (A) (A) (A) (A) (A) (A) (A) (A) (A) (A)
                 (A) (A) (A) (A) (A) (A) (A) (A) (A) (A) (A) (A)
                 (A) (A) (A) (A) (A) (A) (A) (A) (A) (A) (A) (A)
                 (A) (A) (A) (A) (A) (A) (A) (A) (A) (A) (A) (A)
                 (A) (A) (A) (A) (A) (A) (A) (A) (A) (A) (A) (A)
                 (A) (A) (A) (A) (A) (A) (A) (A) (A) (A) (A) (A)
                 (A) (A) (A) (A) (A) (A) (A) (A) (A) (A) (A) (A)
                 (A) (A) (A) (A) (A) (A) (A) (A) (A) (A) (A) (A)
                 (A) (A) (A) (A) (A) (A) (A) (A) (A) (A) (A) (A)
                 (A) (A) (A) (A) (A) (A) (A) (A) (A) (A) (A) (A)
                 (A) (A) (A) (A) (A) (A) (A) (A) (A) (A) (A) (A)
                 (A) (A) (A) (A) (A) (A) (A) (A) (A) (A) (A) (A)
                 (A) (A) (A) (A) (A) (A) (A) (A) (A) (A) (A) (A)
                 (A) (A) (A) (A) (A) (A) (A) (A) (A) (A) (A) (A)
                 (A) (A) (A) (A) (A) (A) (A) (A) (A) (A) (A) (A)
                 (A) (A) (A) (A) (A) (A) (A) (A) (A) (A) (A) (A)
                 (A) (A) (A) (A) (A) (A) (A) (A) (A) (A) (A) (A)
                 (A) (A) (A) (A) (A) (A) (A) (A) (A) (A) (A) (A)
                 (A) (A) (A) (A) (A) (A) (A) (A) (A) (A) (A) (A)
                 (A) (A) (A) (A) (A) (A) (A) (A) (A) (A) (A) (A)
                 (A) (A) (A) (A) (A) (A) (A) (A) (A) (A) (A) (A)
                 (A) (A) (A) (A) (A) (A) (A) (A) (A) (A) (A) (A)
                 (A) (A) (A) (A) (A) (A) (A) (A) (A) (A) (A) (A)
                 (A) (A) (A) (A) (A) (A) (A) (A) (A) (A) (A) (A)
                 (A) (A) (A) (A) (A) (A) (A) (A) (A) (A) (A) (A)
                 (A) (A) (A) (A) (A) (A) (A) (A) (A) (A) (A) (A)
                 (A) (A) (A) (A) (A) (A) (A) (A) (A) (A) (A) (A)
                 (A) (A) (A) (A) (A) (A) (A) (A) (A) (A) (A) (A)
                 (A) (A) (A) (A) (A) (A) (A) (A) (A) (A) (A) (A)
                 (A) (A) (A) (A) (A) (A) (A) (A) (A) (A) (A) (A)
                 (A) (A) (A) (A) (A) (A) (A) (A) (A) (A) (A) (A)
                 (A) (A) (A) (A) (A) (A) (A) (A) (A) (A) (A) (A)
                 (A) (A) (A) (A) (A) (A) (A) (A) (A) (A) (A) (A)
                 (A) (A) (A) (A) (A) (A) (A) (A) (A) (A) (A) (A)
                 (A) (A) (A) (A) (A) (A) (A) (A) (A) (A) (A) (A)
                 (A) (A) (A) (A)
 The electronic state is 1-A.
 Alpha  occ. eigenvalues --  -92.19346 -26.36591 -26.36555 -26.36351 -20.56945
 Alpha  occ. eigenvalues --  -20.56908 -20.53972 -15.62754 -15.60180 -11.53736
 Alpha  occ. eigenvalues --  -11.40476 -11.32991 -11.28196 -11.27959 -11.27797
 Alpha  occ. eigenvalues --  -11.27474 -11.26307 -11.25094 -11.24337 -11.22995
 Alpha  occ. eigenvalues --   -9.16409  -6.85025  -6.84951  -6.84915  -1.76115
 Alpha  occ. eigenvalues --   -1.66412  -1.66367  -1.47009  -1.42780  -1.36177
 Alpha  occ. eigenvalues --   -1.29246  -1.24995  -1.18454  -1.08258  -1.06263
 Alpha  occ. eigenvalues --   -1.05621  -1.02013  -0.95715  -0.92506  -0.88532
 Alpha  occ. eigenvalues --   -0.87323  -0.85194  -0.85145  -0.83667  -0.82424
 Alpha  occ. eigenvalues --   -0.79909  -0.77176  -0.75287  -0.73657  -0.73394
 Alpha  occ. eigenvalues --   -0.71357  -0.69157  -0.68905  -0.68178  -0.67340
 Alpha  occ. eigenvalues --   -0.67245  -0.66532  -0.65847  -0.65035  -0.64219
 Alpha  occ. eigenvalues --   -0.63568  -0.63238  -0.61867  -0.59300  -0.58576
 Alpha  occ. eigenvalues --   -0.57101  -0.54672  -0.53627  -0.52651  -0.52267
 Alpha  occ. eigenvalues --   -0.51884  -0.50578  -0.50013  -0.49679  -0.47998
 Alpha  occ. eigenvalues --   -0.47013  -0.45931  -0.42268  -0.37433  -0.34544
 Alpha virt. eigenvalues --    0.01967   0.03556   0.04540   0.04839   0.05376
 Alpha virt. eigenvalues --    0.05896   0.06503   0.06875   0.07409   0.08165
 Alpha virt. eigenvalues --    0.08252   0.08882   0.09112   0.09700   0.09933
 Alpha virt. eigenvalues --    0.10302   0.11155   0.11283   0.11957   0.12839
 Alpha virt. eigenvalues --    0.13344   0.13426   0.13805   0.14641   0.15243
 Alpha virt. eigenvalues --    0.15534   0.15908   0.16270   0.16614   0.17065
 Alpha virt. eigenvalues --    0.17630   0.17825   0.18203   0.18605   0.18830
 Alpha virt. eigenvalues --    0.18988   0.19411   0.19542   0.19745   0.20136
 Alpha virt. eigenvalues --    0.20438   0.20717   0.21046   0.21709   0.22442
 Alpha virt. eigenvalues --    0.22682   0.23381   0.23755   0.23882   0.24274
 Alpha virt. eigenvalues --    0.24685   0.25004   0.25555   0.25756   0.26220
 Alpha virt. eigenvalues --    0.26754   0.26783   0.27428   0.27583   0.27826
 Alpha virt. eigenvalues --    0.28592   0.29099   0.29402   0.30140   0.30585
 Alpha virt. eigenvalues --    0.31206   0.31687   0.31877   0.32623   0.33505
 Alpha virt. eigenvalues --    0.33651   0.34465   0.34712   0.35189   0.35495
 Alpha virt. eigenvalues --    0.35887   0.36525   0.36702   0.36958   0.37346
 Alpha virt. eigenvalues --    0.37752   0.38047   0.38252   0.38758   0.39205
 Alpha virt. eigenvalues --    0.39496   0.39871   0.40441   0.40670   0.40842
 Alpha virt. eigenvalues --    0.41336   0.41607   0.41918   0.42104   0.42624
 Alpha virt. eigenvalues --    0.42852   0.43133   0.43637   0.44380   0.44622
 Alpha virt. eigenvalues --    0.45055   0.45381   0.45565   0.46221   0.46413
 Alpha virt. eigenvalues --    0.47376   0.47635   0.47790   0.48286   0.49367
 Alpha virt. eigenvalues --    0.49919   0.50992   0.51251   0.51578   0.52594
 Alpha virt. eigenvalues --    0.52817   0.54766   0.54825   0.55332   0.56208
 Alpha virt. eigenvalues --    0.57341   0.57397   0.58078   0.58246   0.59049
 Alpha virt. eigenvalues --    0.59633   0.60152   0.60826   0.61476   0.62585
 Alpha virt. eigenvalues --    0.63432   0.64727   0.65004   0.66128   0.67941
 Alpha virt. eigenvalues --    0.68232   0.68264   0.68865   0.68894   0.69918
 Alpha virt. eigenvalues --    0.70211   0.71140   0.71933   0.72202   0.72835
 Alpha virt. eigenvalues --    0.73778   0.74531   0.74940   0.75185   0.75571
 Alpha virt. eigenvalues --    0.76621   0.76957   0.77549   0.79042   0.79153
 Alpha virt. eigenvalues --    0.79932   0.80888   0.81235   0.81681   0.82175
 Alpha virt. eigenvalues --    0.82493   0.82857   0.83622   0.84042   0.84710
 Alpha virt. eigenvalues --    0.85209   0.85522   0.85791   0.86583   0.87118
 Alpha virt. eigenvalues --    0.87264   0.87645   0.88531   0.89420   0.89985
 Alpha virt. eigenvalues --    0.90104   0.90583   0.91734   0.92861   0.93454
 Alpha virt. eigenvalues --    0.94148   0.94567   0.95043   0.95987   0.96103
 Alpha virt. eigenvalues --    0.96930   0.97374   0.97772   0.98249   0.99456
 Alpha virt. eigenvalues --    1.00166   1.00506   1.01205   1.01672   1.02138
 Alpha virt. eigenvalues --    1.02522   1.03341   1.03592   1.05104   1.05362
 Alpha virt. eigenvalues --    1.06407   1.06945   1.07512   1.07893   1.08370
 Alpha virt. eigenvalues --    1.11145   1.13386   1.14504   1.14719   1.15320
 Alpha virt. eigenvalues --    1.15969   1.16257   1.17646   1.18103   1.19306
 Alpha virt. eigenvalues --    1.20685   1.20924   1.22244   1.22724   1.23488
 Alpha virt. eigenvalues --    1.24238   1.25105   1.25640   1.25787   1.26053
 Alpha virt. eigenvalues --    1.27254   1.28346   1.28505   1.29073   1.29523
 Alpha virt. eigenvalues --    1.30688   1.31751   1.32504   1.33293   1.33634
 Alpha virt. eigenvalues --    1.34498   1.35127   1.35593   1.36003   1.37014
 Alpha virt. eigenvalues --    1.37240   1.37736   1.38328   1.38684   1.39731
 Alpha virt. eigenvalues --    1.40044   1.40378   1.41432   1.41924   1.42918
 Alpha virt. eigenvalues --    1.43699   1.44151   1.45319   1.46021   1.46499
 Alpha virt. eigenvalues --    1.47081   1.47871   1.48547   1.49000   1.49917
 Alpha virt. eigenvalues --    1.51522   1.52091   1.52660   1.53484   1.54441
 Alpha virt. eigenvalues --    1.54937   1.55623   1.56551   1.57639   1.57800
 Alpha virt. eigenvalues --    1.59316   1.59817   1.59898   1.60319   1.61787
 Alpha virt. eigenvalues --    1.61826   1.62839   1.63090   1.63647   1.64056
 Alpha virt. eigenvalues --    1.64521   1.65410   1.66708   1.66926   1.67672
 Alpha virt. eigenvalues --    1.67825   1.68388   1.68830   1.69632   1.70461
 Alpha virt. eigenvalues --    1.70507   1.71344   1.72258   1.72692   1.73578
 Alpha virt. eigenvalues --    1.74628   1.76058   1.77212   1.77513   1.77979
 Alpha virt. eigenvalues --    1.78576   1.79563   1.80268   1.81146   1.82714
 Alpha virt. eigenvalues --    1.82917   1.83006   1.84511   1.85444   1.87190
 Alpha virt. eigenvalues --    1.87651   1.89417   1.90130   1.92462   1.93482
 Alpha virt. eigenvalues --    1.94246   1.95905   1.97463   1.98589   1.99628
 Alpha virt. eigenvalues --    2.00896   2.02855   2.04048   2.05148   2.05986
 Alpha virt. eigenvalues --    2.10031   2.11614   2.12971   2.14053   2.15623
 Alpha virt. eigenvalues --    2.16467   2.17999   2.18900   2.21167   2.22378
 Alpha virt. eigenvalues --    2.24097   2.24631   2.25339   2.26140   2.27549
 Alpha virt. eigenvalues --    2.30375   2.30698   2.34230   2.37117   2.37423
 Alpha virt. eigenvalues --    2.38462   2.39241   2.41795   2.42380   2.42625
 Alpha virt. eigenvalues --    2.43637   2.45858   2.47465   2.52673   2.54362
 Alpha virt. eigenvalues --    2.54824   2.57440   2.59786   2.61770   2.63322
 Alpha virt. eigenvalues --    2.65267   2.66434   2.69316   2.69622   2.75587
 Alpha virt. eigenvalues --    2.80430   2.82332   2.82869   2.83479   2.85519
 Alpha virt. eigenvalues --    2.86195   2.88521   2.90677   2.91344   2.92956
 Alpha virt. eigenvalues --    2.93907   2.95272   2.97537   2.98597   2.99414
 Alpha virt. eigenvalues --    3.01472   3.02068   3.02160   3.03954   3.04882
 Alpha virt. eigenvalues --    3.05497   3.06842   3.07674   3.08252   3.11324
 Alpha virt. eigenvalues --    3.11617   3.12091   3.13686   3.14023   3.14707
 Alpha virt. eigenvalues --    3.15657   3.15924   3.16755   3.18058   3.18139
 Alpha virt. eigenvalues --    3.18819   3.19402   3.19667   3.20620   3.22029
 Alpha virt. eigenvalues --    3.22668   3.23469   3.24332   3.24790   3.25315
 Alpha virt. eigenvalues --    3.26705   3.27733   3.28543   3.29532   3.31647
 Alpha virt. eigenvalues --    3.31737   3.32865   3.34132   3.35129   3.36585
 Alpha virt. eigenvalues --    3.37094   3.39133   3.40273   3.41461   3.43125
 Alpha virt. eigenvalues --    3.44801   3.45887   3.46385   3.46724   3.47329
 Alpha virt. eigenvalues --    3.47795   3.49074   3.50562   3.51229   3.52139
 Alpha virt. eigenvalues --    3.53239   3.54120   3.55233   3.55761   3.57328
 Alpha virt. eigenvalues --    3.58329   3.59777   3.61217   3.62678   3.63427
 Alpha virt. eigenvalues --    3.64564   3.65011   3.65346   3.66669   3.67194
 Alpha virt. eigenvalues --    3.68233   3.68794   3.70342   3.70596   3.71059
 Alpha virt. eigenvalues --    3.71804   3.72730   3.74052   3.74832   3.75278
 Alpha virt. eigenvalues --    3.76599   3.77255   3.77790   3.78662   3.79509
 Alpha virt. eigenvalues --    3.80383   3.80884   3.81382   3.82725   3.82988
 Alpha virt. eigenvalues --    3.83215   3.84177   3.84930   3.86424   3.87510
 Alpha virt. eigenvalues --    3.89483   3.90213   3.91336   3.91589   3.92685
 Alpha virt. eigenvalues --    3.93115   3.94112   3.94895   3.95431   3.96636
 Alpha virt. eigenvalues --    3.97968   3.98763   3.99774   4.00884   4.01208
 Alpha virt. eigenvalues --    4.02286   4.03248   4.03424   4.04121   4.05075
 Alpha virt. eigenvalues --    4.05444   4.05888   4.06037   4.06676   4.07557
 Alpha virt. eigenvalues --    4.09565   4.10498   4.10739   4.12587   4.13870
 Alpha virt. eigenvalues --    4.14971   4.16685   4.17269   4.17657   4.18114
 Alpha virt. eigenvalues --    4.18889   4.22379   4.23759   4.24972   4.26067
 Alpha virt. eigenvalues --    4.26864   4.28704   4.29419   4.30341   4.32010
 Alpha virt. eigenvalues --    4.32360   4.32902   4.34683   4.35824   4.37494
 Alpha virt. eigenvalues --    4.37959   4.39848   4.40501   4.40770   4.41649
 Alpha virt. eigenvalues --    4.42553   4.44232   4.45670   4.47856   4.48631
 Alpha virt. eigenvalues --    4.50434   4.53033   4.53966   4.54645   4.55971
 Alpha virt. eigenvalues --    4.56205   4.57044   4.58146   4.61419   4.61892
 Alpha virt. eigenvalues --    4.63921   4.64900   4.66658   4.67532   4.69012
 Alpha virt. eigenvalues --    4.69581   4.70485   4.71542   4.71889   4.73249
 Alpha virt. eigenvalues --    4.73859   4.75185   4.76117   4.76755   4.77775
 Alpha virt. eigenvalues --    4.78256   4.81762   4.82570   4.84419   4.84909
 Alpha virt. eigenvalues --    4.85560   4.85859   4.87200   4.88387   4.89091
 Alpha virt. eigenvalues --    4.90257   4.92338   4.92740   4.94729   4.97625
 Alpha virt. eigenvalues --    5.00228   5.00894   5.01545   5.04914   5.05387
 Alpha virt. eigenvalues --    5.08406   5.12142   5.12728   5.13666   5.15161
 Alpha virt. eigenvalues --    5.16742   5.17841   5.21411   5.25944   5.28678
 Alpha virt. eigenvalues --    5.32942   5.33333   5.36984   5.37891   5.42937
 Alpha virt. eigenvalues --    5.45160   5.46265   5.46917   5.48363   5.49665
 Alpha virt. eigenvalues --    5.50305   5.52225   5.54340   5.57072   5.57427
 Alpha virt. eigenvalues --    5.58767   5.60408   5.61052   5.61673   5.62386
 Alpha virt. eigenvalues --    5.63506   5.64358   5.64853   5.68506   5.69441
 Alpha virt. eigenvalues --    5.70622   5.72743   5.73185   5.74703   5.75776
 Alpha virt. eigenvalues --    5.78008   5.80470   5.82811   5.83150   5.83994
 Alpha virt. eigenvalues --    5.85595   5.89284   5.89915   5.91836   5.96131
 Alpha virt. eigenvalues --    5.98803   5.99327   6.00370   6.05493   6.06691
 Alpha virt. eigenvalues --    6.10246   6.12132   6.13111   6.13494   6.14418
 Alpha virt. eigenvalues --    6.15264   6.17028   6.18876   6.25363   6.27707
 Alpha virt. eigenvalues --    6.30123   6.31759   6.33425   6.34605   6.38394
 Alpha virt. eigenvalues --    6.42099   6.49683   6.54068   6.56371   6.73073
 Alpha virt. eigenvalues --    6.83081   6.83459   6.93145   6.94928   6.95623
 Alpha virt. eigenvalues --    6.95892   6.98734   7.00136   7.02326   7.03592
 Alpha virt. eigenvalues --    7.05057   7.08848   7.08987   7.09168   7.09404
 Alpha virt. eigenvalues --    7.10417   7.10617   7.11021   7.13197   7.13578
 Alpha virt. eigenvalues --    7.17709   7.19373   7.24601   7.24673   7.25972
 Alpha virt. eigenvalues --    7.32345   7.33549   7.36411   7.45346   7.46908
 Alpha virt. eigenvalues --    7.48679   7.50953   7.51283   7.51561   7.56783
 Alpha virt. eigenvalues --    7.60150   7.61755   7.68311   7.71114   7.72557
 Alpha virt. eigenvalues --    7.80780   7.82647   7.86805   7.87742   7.88996
 Alpha virt. eigenvalues --    7.95790   7.97086   8.06266   8.07424   8.13898
 Alpha virt. eigenvalues --    8.21748   8.26871   8.38613   8.40364   9.68188
 Alpha virt. eigenvalues --    9.68586   9.68695   9.79871   9.80200   9.86652
 Alpha virt. eigenvalues --   10.02295  10.12841  10.13483  10.15643  10.31328
 Alpha virt. eigenvalues --   10.35277  10.48277  10.49163  10.76641  10.77243
 Alpha virt. eigenvalues --   18.47576  18.73965  19.05344  25.06186  25.38072
 Alpha virt. eigenvalues --   25.51540  25.59748  25.60799  25.62641  25.64419
 Alpha virt. eigenvalues --   25.83473  25.88881  26.07724  26.31047  37.26629
 Alpha virt. eigenvalues --   37.33777  51.76545  51.78071  51.93377  68.81751
 Alpha virt. eigenvalues --   68.82621  68.86648 193.76617
          Condensed to atoms (all electrons):
               1          2          3          4          5          6
     1  C   18.938747  -0.096558  -0.706748  -0.277620  -0.176620  -0.698224
     2  N   -0.096558   6.976747   0.685633  -0.016312  -0.119799  -0.300393
     3  C   -0.706748   0.685633   7.446286   0.379524   0.267372  -1.001376
     4  O   -0.277620  -0.016312   0.379524   8.230858  -0.056220  -0.074545
     5  N   -0.176620  -0.119799   0.267372  -0.056220   6.727843   0.370920
     6  C   -0.698224  -0.300393  -1.001376  -0.074545   0.370920   7.270011
     7  C    0.028006  -0.017805   0.134703   0.033133  -0.162817  -0.571204
     8  C   -0.010954  -0.018819  -0.201189   0.003013  -0.031770   0.507683
     9  C    0.938740  -0.129982   0.539564   0.288499   0.092187   0.172500
    10  C   -3.692296   0.071140   0.123338   0.075465   0.061328   0.067957
    11  C   -5.059293  -0.037556  -0.848083   0.015378   0.055855  -0.010488
    12  C   -3.042556  -0.049861  -0.700785  -0.007208  -0.027501  -0.052066
    13  C    2.052766  -0.056094  -0.675736  -0.043447  -0.109210  -0.160250
    14  H    0.030747   0.387614   0.042280   0.000395   0.017003   0.019574
    15  H    0.006195   0.015277  -0.030146   0.000296   0.352085  -0.053502
    16  H    0.016811   0.008360   0.033878  -0.015309  -0.063059   0.477513
    17  H   -0.011670   0.004578   0.052932  -0.007659  -0.051014   0.408209
    18  H    0.002365   0.001383   0.003248  -0.000732   0.004487  -0.045216
    19  H   -0.002145   0.004614   0.018081  -0.000731   0.000213  -0.038971
    20  H    0.000988   0.000594   0.004741   0.000277   0.000392  -0.024089
    21  H   -0.000154  -0.000782  -0.000966   0.000347  -0.005256   0.012552
    22  H   -0.000562  -0.000161  -0.000985   0.000519  -0.000792  -0.025047
    23  H   -0.297407  -0.013802   0.068927  -0.015873   0.011993   0.024733
    24  C    0.408582  -0.001508   0.014022  -0.000032  -0.000391   0.000012
    25  H    0.132132  -0.001580   0.001605  -0.000100  -0.000463  -0.000529
    26  H   -0.270948  -0.028411  -0.036410  -0.000231   0.003887   0.000386
    27  F   -0.025804   0.000083  -0.000384   0.000000   0.000002  -0.000000
    28  F    0.000302  -0.000002  -0.000007   0.000000  -0.000000  -0.000000
    29  F   -0.012890   0.000150   0.001337  -0.000000   0.000003   0.000012
    30  S   -2.641149   0.014220  -0.134555   0.000899   0.006371   0.000617
    31  O    0.003803   0.000466   0.001288  -0.000011   0.000018   0.000024
    32  O   -0.024717   0.000175  -0.002310   0.000001   0.000012  -0.000012
    33  H    0.147595  -0.002970   0.009184  -0.000646  -0.000837  -0.000523
               7          8          9         10         11         12
     1  C    0.028006  -0.010954   0.938740  -3.692296  -5.059293  -3.042556
     2  N   -0.017805  -0.018819  -0.129982   0.071140  -0.037556  -0.049861
     3  C    0.134703  -0.201189   0.539564   0.123338  -0.848083  -0.700785
     4  O    0.033133   0.003013   0.288499   0.075465   0.015378  -0.007208
     5  N   -0.162817  -0.031770   0.092187   0.061328   0.055855  -0.027501
     6  C   -0.571204   0.507683   0.172500   0.067957  -0.010488  -0.052066
     7  C    5.592658  -0.129456   0.012562   0.001117   0.000756  -0.000195
     8  C   -0.129456   5.211182   0.004199   0.001490   0.000354  -0.000282
     9  C    0.012562   0.004199  14.720316   2.334667  -4.988576  -3.422779
    10  C    0.001117   0.001490   2.334667  14.982953   1.043966  -4.737150
    11  C    0.000756   0.000354  -4.988576   1.043966  19.950041   0.194170
    12  C   -0.000195  -0.000282  -3.422779  -4.737150   0.194170  15.520796
    13  C    0.003566  -0.002734  -3.550874  -2.769538  -2.812044   1.379102
    14  H   -0.009493  -0.000284   0.122062   0.045227  -0.046042  -0.170690
    15  H    0.032634  -0.008530  -0.021660  -0.006313  -0.000084   0.007842
    16  H   -0.104935  -0.007679  -0.015959  -0.003722  -0.000449   0.001860
    17  H   -0.013192  -0.018719  -0.002228  -0.000409  -0.001819  -0.001170
    18  H    0.451413  -0.027314  -0.004345  -0.000934  -0.000346   0.000337
    19  H    0.416127  -0.026588   0.001610   0.000229  -0.000029  -0.000136
    20  H   -0.009238   0.413209   0.000133   0.000045   0.000042   0.000029
    21  H   -0.029333   0.407748   0.000319   0.000051   0.000015  -0.000011
    22  H   -0.002971   0.427021   0.000105  -0.000013  -0.000034  -0.000053
    23  H    0.000596   0.000772   0.515490   0.124121   0.042930  -0.068371
    24  C    0.000009  -0.000001   0.254941   0.612312  -0.024954   0.005176
    25  H   -0.000011  -0.000007   0.043070   0.069759  -0.009140   0.370465
    26  H    0.000633   0.000170  -0.030705  -0.040724   0.093483   0.177895
    27  F    0.000000   0.000000  -0.010193  -0.024775   0.087120  -0.033112
    28  F   -0.000000  -0.000000  -0.002547  -0.008945   0.036882  -0.011600
    29  F   -0.000000   0.000000  -0.007748  -0.040073   0.059978  -0.007684
    30  S   -0.000072   0.000025  -1.526747  -2.454628  -1.229495   1.052143
    31  O   -0.000000   0.000000   0.047041  -0.075304  -0.212183   0.033768
    32  O    0.000000  -0.000000  -0.020735   0.000802  -0.198515  -0.064425
    33  H   -0.000037  -0.000014  -0.025099   0.398052  -0.087784   0.017236
              13         14         15         16         17         18
     1  C    2.052766   0.030747   0.006195   0.016811  -0.011670   0.002365
     2  N   -0.056094   0.387614   0.015277   0.008360   0.004578   0.001383
     3  C   -0.675736   0.042280  -0.030146   0.033878   0.052932   0.003248
     4  O   -0.043447   0.000395   0.000296  -0.015309  -0.007659  -0.000732
     5  N   -0.109210   0.017003   0.352085  -0.063059  -0.051014   0.004487
     6  C   -0.160250   0.019574  -0.053502   0.477513   0.408209  -0.045216
     7  C    0.003566  -0.009493   0.032634  -0.104935  -0.013192   0.451413
     8  C   -0.002734  -0.000284  -0.008530  -0.007679  -0.018719  -0.027314
     9  C   -3.550874   0.122062  -0.021660  -0.015959  -0.002228  -0.004345
    10  C   -2.769538   0.045227  -0.006313  -0.003722  -0.000409  -0.000934
    11  C   -2.812044  -0.046042  -0.000084  -0.000449  -0.001819  -0.000346
    12  C    1.379102  -0.170690   0.007842   0.001860  -0.001170   0.000337
    13  C   12.925511  -0.126737   0.008050   0.005178  -0.000097   0.000980
    14  H   -0.126737   0.513469  -0.008222   0.001236   0.002307  -0.000422
    15  H    0.008050  -0.008222   0.519064  -0.002455   0.002382   0.001058
    16  H    0.005178   0.001236  -0.002455   0.600658  -0.028182   0.006707
    17  H   -0.000097   0.002307   0.002382  -0.028182   0.562339  -0.005918
    18  H    0.000980  -0.000422   0.001058   0.006707  -0.005918   0.621519
    19  H   -0.000043   0.001888  -0.000327  -0.010301   0.008933  -0.062132
    20  H    0.000084  -0.000128   0.000741   0.000877  -0.002078  -0.007499
    21  H   -0.000084  -0.000142   0.000751  -0.002449  -0.001255  -0.007465
    22  H   -0.000235   0.000027   0.000113  -0.003267   0.001898   0.004374
    23  H   -0.077746  -0.001495   0.000393  -0.002053  -0.000335  -0.000161
    24  C    0.129525   0.002676  -0.000045   0.000000   0.000027  -0.000000
    25  H   -0.101977   0.001451   0.000044   0.000028  -0.000015   0.000006
    26  H    0.439436  -0.005324   0.000593  -0.000164  -0.000026  -0.000062
    27  F   -0.021141  -0.000184   0.000001   0.000000  -0.000000  -0.000000
    28  F   -0.003772   0.000005  -0.000000  -0.000000   0.000000  -0.000000
    29  F   -0.002027  -0.000037   0.000002   0.000000  -0.000001   0.000000
    30  S   -0.184368  -0.019428   0.000448  -0.000027  -0.000220  -0.000009
    31  O    0.010108   0.000044  -0.000001  -0.000001   0.000000   0.000000
    32  O    0.062519  -0.000145   0.000001   0.000000  -0.000000  -0.000000
    33  H    0.027280   0.001262  -0.000048   0.000077   0.000072   0.000007
              19         20         21         22         23         24
     1  C   -0.002145   0.000988  -0.000154  -0.000562  -0.297407   0.408582
     2  N    0.004614   0.000594  -0.000782  -0.000161  -0.013802  -0.001508
     3  C    0.018081   0.004741  -0.000966  -0.000985   0.068927   0.014022
     4  O   -0.000731   0.000277   0.000347   0.000519  -0.015873  -0.000032
     5  N    0.000213   0.000392  -0.005256  -0.000792   0.011993  -0.000391
     6  C   -0.038971  -0.024089   0.012552  -0.025047   0.024733   0.000012
     7  C    0.416127  -0.009238  -0.029333  -0.002971   0.000596   0.000009
     8  C   -0.026588   0.413209   0.407748   0.427021   0.000772  -0.000001
     9  C    0.001610   0.000133   0.000319   0.000105   0.515490   0.254941
    10  C    0.000229   0.000045   0.000051  -0.000013   0.124121   0.612312
    11  C   -0.000029   0.000042   0.000015  -0.000034   0.042930  -0.024954
    12  C   -0.000136   0.000029  -0.000011  -0.000053  -0.068371   0.005176
    13  C   -0.000043   0.000084  -0.000084  -0.000235  -0.077746   0.129525
    14  H    0.001888  -0.000128  -0.000142   0.000027  -0.001495   0.002676
    15  H   -0.000327   0.000741   0.000751   0.000113   0.000393  -0.000045
    16  H   -0.010301   0.000877  -0.002449  -0.003267  -0.002053   0.000000
    17  H    0.008933  -0.002078  -0.001255   0.001898  -0.000335   0.000027
    18  H   -0.062132  -0.007499  -0.007465   0.004374  -0.000161  -0.000000
    19  H    0.682756   0.005160  -0.005481  -0.009077  -0.000101   0.000001
    20  H    0.005160   0.617088  -0.024094  -0.040801  -0.000009  -0.000000
    21  H   -0.005481  -0.024094   0.600492  -0.029243   0.000039   0.000000
    22  H   -0.009077  -0.040801  -0.029243   0.620253   0.000033   0.000000
    23  H   -0.000101  -0.000009   0.000039   0.000033   0.427436  -0.008096
    24  C    0.000001  -0.000000   0.000000   0.000000  -0.008096   5.031943
    25  H   -0.000002   0.000000  -0.000000  -0.000000  -0.001088   0.028224
    26  H   -0.000074   0.000000   0.000007  -0.000001   0.002125  -0.010550
    27  F    0.000000   0.000000   0.000000  -0.000000   0.000130   0.166835
    28  F    0.000000  -0.000000  -0.000000   0.000000   0.000034   0.271296
    29  F   -0.000000   0.000000   0.000000   0.000000   0.000888   0.160378
    30  S   -0.000014   0.000002   0.000000  -0.000001   0.041016  -1.636284
    31  O   -0.000000  -0.000000   0.000000   0.000000   0.000936  -0.104002
    32  O    0.000000   0.000000   0.000000  -0.000000  -0.000310  -0.134540
    33  H    0.000005  -0.000001  -0.000001  -0.000000  -0.015194   0.028729
              25         26         27         28         29         30
     1  C    0.132132  -0.270948  -0.025804   0.000302  -0.012890  -2.641149
     2  N   -0.001580  -0.028411   0.000083  -0.000002   0.000150   0.014220
     3  C    0.001605  -0.036410  -0.000384  -0.000007   0.001337  -0.134555
     4  O   -0.000100  -0.000231   0.000000   0.000000  -0.000000   0.000899
     5  N   -0.000463   0.003887   0.000002  -0.000000   0.000003   0.006371
     6  C   -0.000529   0.000386  -0.000000  -0.000000   0.000012   0.000617
     7  C   -0.000011   0.000633   0.000000  -0.000000  -0.000000  -0.000072
     8  C   -0.000007   0.000170   0.000000  -0.000000   0.000000   0.000025
     9  C    0.043070  -0.030705  -0.010193  -0.002547  -0.007748  -1.526747
    10  C    0.069759  -0.040724  -0.024775  -0.008945  -0.040073  -2.454628
    11  C   -0.009140   0.093483   0.087120   0.036882   0.059978  -1.229495
    12  C    0.370465   0.177895  -0.033112  -0.011600  -0.007684   1.052143
    13  C   -0.101977   0.439436  -0.021141  -0.003772  -0.002027  -0.184368
    14  H    0.001451  -0.005324  -0.000184   0.000005  -0.000037  -0.019428
    15  H    0.000044   0.000593   0.000001  -0.000000   0.000002   0.000448
    16  H    0.000028  -0.000164   0.000000  -0.000000   0.000000  -0.000027
    17  H   -0.000015  -0.000026  -0.000000   0.000000  -0.000001  -0.000220
    18  H    0.000006  -0.000062  -0.000000  -0.000000   0.000000  -0.000009
    19  H   -0.000002  -0.000074   0.000000   0.000000  -0.000000  -0.000014
    20  H    0.000000   0.000000   0.000000  -0.000000   0.000000   0.000002
    21  H   -0.000000   0.000007   0.000000  -0.000000   0.000000   0.000000
    22  H   -0.000000  -0.000001  -0.000000   0.000000   0.000000  -0.000001
    23  H   -0.001088   0.002125   0.000130   0.000034   0.000888   0.041016
    24  C    0.028224  -0.010550   0.166835   0.271296   0.160378  -1.636284
    25  H    0.439137  -0.019542  -0.008761  -0.000339  -0.001111  -0.163825
    26  H   -0.019542   0.543256   0.000999  -0.000007   0.000062   0.064705
    27  F   -0.008761   0.000999   9.006969   0.009430   0.019056   0.083422
    28  F   -0.000339  -0.000007   0.009430   9.039094   0.008504  -0.076120
    29  F   -0.001111   0.000062   0.019056   0.008504   9.013299   0.062411
    30  S   -0.163825   0.064705   0.083422  -0.076120   0.062411  22.406130
    31  O   -0.001889  -0.000405  -0.003310   0.005023   0.009990   0.578883
    32  O   -0.011415   0.001104   0.010211   0.004353  -0.003175   0.673314
    33  H    0.001921  -0.000952  -0.001123  -0.000763  -0.007324  -0.151704
              31         32         33
     1  C    0.003803  -0.024717   0.147595
     2  N    0.000466   0.000175  -0.002970
     3  C    0.001288  -0.002310   0.009184
     4  O   -0.000011   0.000001  -0.000646
     5  N    0.000018   0.000012  -0.000837
     6  C    0.000024  -0.000012  -0.000523
     7  C   -0.000000   0.000000  -0.000037
     8  C    0.000000  -0.000000  -0.000014
     9  C    0.047041  -0.020735  -0.025099
    10  C   -0.075304   0.000802   0.398052
    11  C   -0.212183  -0.198515  -0.087784
    12  C    0.033768  -0.064425   0.017236
    13  C    0.010108   0.062519   0.027280
    14  H    0.000044  -0.000145   0.001262
    15  H   -0.000001   0.000001  -0.000048
    16  H   -0.000001   0.000000   0.000077
    17  H    0.000000  -0.000000   0.000072
    18  H    0.000000  -0.000000   0.000007
    19  H   -0.000000   0.000000   0.000005
    20  H   -0.000000   0.000000  -0.000001
    21  H    0.000000   0.000000  -0.000001
    22  H    0.000000  -0.000000  -0.000000
    23  H    0.000936  -0.000310  -0.015194
    24  C   -0.104002  -0.134540   0.028729
    25  H   -0.001889  -0.011415   0.001921
    26  H   -0.000405   0.001104  -0.000952
    27  F   -0.003310   0.010211  -0.001123
    28  F    0.005023   0.004353  -0.000763
    29  F    0.009990  -0.003175  -0.007324
    30  S    0.578883   0.673314  -0.151704
    31  O    8.417340  -0.094074  -0.007723
    32  O   -0.094074   8.412312  -0.001695
    33  H   -0.007723  -0.001695   0.442506
 Mulliken charges:
               1
     1  C    0.340536
     2  N   -0.278639
     3  C    0.511737
     4  O   -0.511929
     5  N   -0.166223
     6  C   -0.276267
     7  C    0.342847
     8  C   -0.492524
     9  C   -0.327828
    10  C   -0.159196
    11  C   -0.014056
    12  C   -0.363183
    13  C   -0.345953
    14  H    0.199506
    15  H    0.183362
    16  H    0.106829
    17  H    0.102328
    18  H    0.064670
    19  H    0.016538
    20  H    0.063537
    21  H    0.084397
    22  H    0.058902
    23  H    0.239451
    24  C    0.805714
    25  H    0.233952
    26  H    0.115797
    27  F   -0.255471
    28  F   -0.270822
    29  F   -0.253997
    30  S    1.234042
    31  O   -0.609831
    32  O   -0.608735
    33  H    0.230510
 Sum of Mulliken charges =  -0.00000
 Mulliken charges with hydrogens summed into heavy atoms:
               1
     1  C    0.340536
     2  N   -0.079133
     3  C    0.511737
     4  O   -0.511929
     5  N    0.017139
     6  C   -0.067109
     7  C    0.424054
     8  C   -0.285689
     9  C   -0.088377
    10  C    0.071314
    11  C   -0.014056
    12  C   -0.129231
    13  C   -0.230156
    24  C    0.805714
    27  F   -0.255471
    28  F   -0.270822
    29  F   -0.253997
    30  S    1.234042
    31  O   -0.609831
    32  O   -0.608735
 Electronic spatial extent (au):  <R**2>=          10960.0586
 Charge=              0.0000 electrons
 Dipole moment (field-independent basis, Debye):
    X=              8.8194    Y=              3.3131    Z=              2.5964  Tot=              9.7724
 Quadrupole moment (field-independent basis, Debye-Ang):
   XX=           -122.8836   YY=           -121.7667   ZZ=           -128.4166
   XY=             15.0475   XZ=             -5.2219   YZ=              2.7370
 Traceless Quadrupole moment (field-independent basis, Debye-Ang):
   XX=              1.4720   YY=              2.5889   ZZ=             -4.0609
   XY=             15.0475   XZ=             -5.2219   YZ=              2.7370
 Octapole moment (field-independent basis, Debye-Ang**2):
  XXX=            209.2231  YYY=             -4.0276  ZZZ=             24.1978  XYY=             -6.2411
  XXY=             11.3198  XXZ=             50.1758  XZZ=            -10.2146  YZZ=             -5.2905
  YYZ=             16.8069  XYZ=             -1.6365
 Hexadecapole moment (field-independent basis, Debye-Ang**3):
 XXXX=         -11936.2440 YYYY=           -733.2845 ZZZZ=           -595.6535 XXXY=            269.0314
 XXXZ=           -182.0459 YYYX=            116.9018 YYYZ=             16.6116 ZZZX=           -110.3671
 ZZZY=            -17.4518 XXYY=          -2257.3470 XXZZ=          -2259.6417 YYZZ=           -217.5058
 XXYZ=            -20.9353 YYXZ=            -21.4265 ZZXY=             10.8090
 N-N= 1.747191673925D+03 E-N=-6.927541257710D+03  KE= 1.452449837001D+03
 1\1\GINC-R4288\SP\RMP2-FC\Gen\C11H13F3N2O3S1\ROOT\30-Nov-2019\0\\# MP2
 /Gen 5D SCF=Tight INT(grid=ultrafine) maxdisk=3489660928\\CP21.MP2_GTM
 P2LARGE\\0,1\C,0,-6.1044543489,1.2545902395,0.3631341035\N,0,-4.848973
 5137,0.6573868288,0.2837678461\C,0,-3.6261917011,1.2810695458,0.028464
 056\O,0,-3.5111289552,2.4588492034,-0.2250195425\N,0,-2.5662839242,0.4
 13066957,0.061240026\C,0,-1.2153797956,0.9403401283,-0.0899085938\C,0,
 -0.2162148296,-0.1958797023,-0.2497600858\C,0,1.2057893477,0.330078764
 7,-0.4177627534\C,0,-6.3008839983,2.6438345306,0.3640095699\C,0,-7.586
 1261431,3.1497409178,0.4727686925\C,0,-8.6682484411,2.2817056035,0.576
 6817331\C,0,-8.4916388752,0.9005330639,0.5781965004\C,0,-7.211237329,0
 .3956353252,0.4717054416\H,0,-4.8508404271,-0.3517187462,0.2778444281\
 H,0,-2.6594795947,-0.4389022026,0.595204607\H,0,-0.9499449328,1.570506
 8533,0.767007523\H,0,-1.2096051222,1.5839919268,-0.9709875344\H,0,-0.5
 013216011,-0.8023170952,-1.1145218908\H,0,-0.2623103482,-0.852278182,0
 .6274062036\H,0,1.2856482106,0.9685251527,-1.3006389909\H,0,1.91855209
 21,-0.4876351675,-0.5329551588\H,0,1.5133618968,0.9207506868,0.4483649
 138\H,0,-5.456449568,3.3092109411,0.2786368211\C,0,-10.76703803,3.0768
 886995,-1.1256340199\H,0,-9.3473399474,0.242229394,0.6723739298\H,0,-7
 .0584916298,-0.6789044537,0.4784756485\F,0,-10.719811282,1.8813726111,
 -1.6998743749\F,0,-11.9938616485,3.5588062002,-1.2166817861\F,0,-9.926
 3648575,3.8888187982,-1.7523336083\S,0,-10.2971581173,2.9370590805,0.6
 757292013\O,0,-10.2531086353,4.2999536823,1.1603223623\O,0,-11.1929336
 704,1.9392994818,1.2219731001\H,0,-7.7519602798,4.2209209328,0.4872016
 321\\Version=ES64L-G09RevE.01\State=1-A\HF=-1453.81327\MP2=-1457.60314
 13\RMSD=2.226e-09\PG=C01 [X(C11H13F3N2O3S1)]\\@


 THAT'S WHAT MAKES US A GREAT COUNTRY.
 THE LITTLE THINGS ARE SERIOUS AND THE BIG ONES ARE NOT.
           WILL ROGERS
 Job cpu time:       0 days  5 hours 56 minutes  8.7 seconds.
 File lengths (MBytes):  RWF=    368 Int=      0 D2E=      0 Chk=     40 Scr=      1
 Normal termination of Gaussian 09 at Sat Nov 30 16:31:01 2019.
pbs_rusage has been removed.
Please contact help@nci.org.au if you require this functionality.
