Process 0 of 1 is on r4146 - thread support 0
initial socket setup ...start
initial socket setup ...done 
now start server 0 ... 
r4146 10.9.71
Q-Chem Developer Version! Running on 10.9.71.*
                  Welcome to Q-Chem
     A Quantum Leap Into The Future Of Chemistry


 Q-Chem 5.0, Q-Chem, Inc., Pleasanton, CA (2017)

 Yihan Shao,  Zhengting Gan,  E. Epifanovsky,  A. T. B. Gilbert,  M. Wormit,  
 J. Kussmann,  A. W. Lange,  A. Behn,  Jia Deng,  Xintian Feng,  D. Ghosh,  
 M. Goldey,  P. R. Horn,  L. D. Jacobson,  I. Kaliman,  T. Kus,  A. Landau,  
 Jie Liu,  E. I. Proynov,  R. M. Richard,  R. P. Steele,  E. J. Sundstrom,  
 H. L. Woodcock III,  P. M. Zimmerman,  D. Zuev,  B. Albrecht,  E. Alguire,  
 S. A. Baeppler,  Z. Benda,  Y. A. Bernard,  E. J. Berquist,  K. B. Bravaya,  
 D. Casanova,  Chun-Min Chang,  Yunqing Chen,  A. Chien,  K. D. Closser,  
 M. P. Coons,  S. Dasgupta,  M. Diedenhofen,  Hainam Do,  R. G. Edgar,  
 Po-Tung Fang,  S. Fatehi,  Qingguo Feng,  Qinghui Ge,  A. Ghysels,  
 J. Gomes,  J. Gonthier,  A. Gunina,  M. W. D. Hanson-Heine,  
 P. H. P. Harbach,  A. W. Hauser,  J. E. Herr,  E. G. Hohenstein,  
 Z. C. Holden,  Kerwin Hui,  T.-C. Jagau,  Hyunjun Ji,  B. Kaduk,  
 K. Khistyaev,  Jaehoon Kim,  P. Klunzinger,  K. Koh,  D. Kosenkov,  
 T. Kowalczyk,  C. M. Krauter,  A. Kunitsa,  Ka Un Lao,  A. Laurent,  
 K. V. Lawler,  Joonho Lee,  D. Lefrancois,  S. Lehtola,  D. S. Levine,  
 Yi-Pei Li,  You-Sheng Lin,  Fenglai Liu,  E. Livshits,  A. Luenser,  
 P. Manohar,  E. Mansoor,  S. F. Manzer,  Shan-Ping Mao,  Yuezhi Mao,  
 N. Mardirossian,  A. V. Marenich,  L. A. Martinez-Martinez,  S. A. Maurer,  
 N. J. Mayhall,  S. C. McKenzie,  J.-M. Mewes,  A. F. Morrison,  K. Nanda,  
 T. S. Nguyen-Beck,  R. Olivares-Amaya,  J. A. Parkhill,  T. M. Perrine,  
 F. Plasser,  S. Prager,  A. Prociuk,  D. R. Rehn,  F. Rob,  M. Schneider,  
 N. Sergueev,  S. M. Sharada,  S. Sharma,  D. W. Small,  T. Stauch,  
 T. Stein,  Yu-Chuan Su,  A. J. W. Thom,  T. Tsuchimochi,  L. Vogt,  
 O. Vydrov,  M. A. Watson,  J. Wenzel,  M. de Wergifosse,  T. A. Wesolowski,  
 A. White,  J. Witte,  A. Yamada,  Jun Yang,  K. Yao,  S. Yeganeh,  
 S. R. Yost,  Zhi-Qiang You,  A. Zech,  Igor Ying Zhang,  Xing Zhang,  
 Yan Zhao,  Ying Zhu,  B. R. Brooks,  G. K. L. Chan,  C. J. Cramer,  
 M. S. Gordon,  W. J. Hehre,  A. Klamt,  M. W. Schmidt,  C. D. Sherrill,  
 D. G. Truhlar,  A. Aspuru-Guzik,  R. Baer,  A. T. Bell,  N. A. Besley,  
 Jeng-Da Chai,  A. Dreuw,  B. D. Dunietz,  T. R. Furlani,  Chao-Ping Hsu,  
 Yousung Jung,  Jing Kong,  D. S. Lambrecht,  WanZhen Liang,  C. Ochsenfeld,  
 V. A. Rassolov,  L. V. Slipchenko,  J. E. Subotnik,  T. Van Voorhis,  
 J. M. Herbert,  A. I. Krylov,  P. M. W. Gill,  M. Head-Gordon

 Contributors to earlier versions of Q-Chem not listed above: 
 R. D. Adamson,  B. Austin,  J. Baker,  G. J. O. Beran,  K. Brandhorst,  
 S. T. Brown,  E. F. C. Byrd,  A. K. Chakraborty,  C.-L. Cheng,  
 Siu Hung Chien,  D. M. Chipman,  D. L. Crittenden,  H. Dachsel,  
 R. A. DiStasio Jr.,  R. J. Doerksen,  A. D. Dutoi,  L. Fusti-Molnar,  
 W. A. Goddard III,  A. Golubeva-Zadorozhnaya,  S. R. Gwaltney,  G. Hawkins,  
 A. Heyden,  S. Hirata,  G. Kedziora,  F. J. Keil,  C. Kelley,  Jihan Kim,  
 R. A. King,  R. Z. Khaliullin,  P. P. Korambath,  W. Kurlancheek,  
 A. M. Lee,  M. S. Lee,  S. V. Levchenko,  Ching Yeh Lin,  D. Liotard,  
 R. C. Lochan,  I. Lotan,  P. E. Maslen,  N. Nair,  D. P. O'Neill,  
 D. Neuhauser,  E. Neuscamman,  C. M. Oana,  R. Olson,  B. Peters,  
 R. Peverati,  P. A. Pieniazek,  Y. M. Rhee,  J. Ritchie,  M. A. Rohrdanz,  
 E. Rosta,  N. J. Russ,  H. F. Schaefer III,  N. E. Schultz,  N. Shenvi,  
 A. C. Simmonett,  A. Sodt,  D. Stuck,  K. S. Thanthiriwatte,  V. Vanovschi,  
 Tao Wang,  A. Warshel,  C. F. Williams,  Q. Wu,  X. Xu,  W. Zhang

 Please cite Q-Chem as follows:
 Y. Shao et al., Mol. Phys. 113, 184-215 (2015)
 DOI: 10.1080/00268976.2014.952696

 Q-Chem 5.0.0 for Intel X86 EM64T Linux

 Parts of Q-Chem use Armadillo 5.200.1 (Boston Tea Smuggler).
 http://arma.sourceforge.net/

 Q-Chem begins on Mon Dec  9 10:13:38 2019  

Host: r4146
0

     Scratch files written to /jobfs/local/4046345.r-man2/CP21.CCSD-T_6-31pGd.mo//
 Parallel job on  1  processors
Core orbitals will be frozen

Checking the input file for inconsistencies... 	...done.

--------------------------------------------------------------
User input:
--------------------------------------------------------------
$molecule
  0 1
    C     -6.1044543489    1.2545902395    0.3631341035
    N     -4.8489735137    0.6573868288    0.2837678461
    C     -3.6261917011    1.2810695458    0.0284640560
    O     -3.5111289552    2.4588492034   -0.2250195425
    N     -2.5662839242    0.4130669570    0.0612400260
    C     -1.2153797956    0.9403401283   -0.0899085938
    C     -0.2162148296   -0.1958797023   -0.2497600858
    C      1.2057893477    0.3300787647   -0.4177627534
    C     -6.3008839983    2.6438345306    0.3640095699
    C     -7.5861261431    3.1497409178    0.4727686925
    C     -8.6682484411    2.2817056035    0.5766817331
    C     -8.4916388752    0.9005330639    0.5781965004
    C     -7.2112373290    0.3956353252    0.4717054416
    H     -4.8508404271   -0.3517187462    0.2778444281
    H     -2.6594795947   -0.4389022026    0.5952046070
    H     -0.9499449328    1.5705068533    0.7670075230
    H     -1.2096051222    1.5839919268   -0.9709875344
    H     -0.5013216011   -0.8023170952   -1.1145218908
    H     -0.2623103482   -0.8522781820    0.6274062036
    H      1.2856482106    0.9685251527   -1.3006389909
    H      1.9185520921   -0.4876351675   -0.5329551588
    H      1.5133618968    0.9207506868    0.4483649138
    H     -5.4564495680    3.3092109411    0.2786368211
    C    -10.7670380300    3.0768886995   -1.1256340199
    H     -9.3473399474    0.2422293940    0.6723739298
    H     -7.0584916298   -0.6789044537    0.4784756485
    F    -10.7198112820    1.8813726111   -1.6998743749
    F    -11.9938616485    3.5588062002   -1.2166817861
    F     -9.9263648575    3.8888187982   -1.7523336083
    S    -10.2971581173    2.9370590805    0.6757292013
    O    -10.2531086353    4.2999536823    1.1603223623
    O    -11.1929336704    1.9392994818    1.2219731001
    H     -7.7519602798    4.2209209328    0.4872016321

$end

$rem

    JOBTYPE               sp
    METHOD                CCSD(T)
    BASIS                 6-31+G*
    CC_BACKEND            XM

    MEM_TOTAL             60000
$end
--------------------------------------------------------------
 ----------------------------------------------------------------
             Standard Nuclear Orientation (Angstroms)
    I     Atom           X                Y                Z
 ----------------------------------------------------------------
    1      C       0.9193781301    -0.6237225175     0.0755352039
    2      N       2.2821530761    -0.8088035742    -0.1430339911
    3      C       3.3122552741     0.1030836696     0.0950975568
    4      O       3.1326669619     1.2359241405     0.4812047929
    5      N       4.5528798438    -0.4065227895    -0.1860771004
    6      C       5.7318041938     0.3992812105     0.1082393239
    7      C       6.9774883627    -0.2469226977    -0.4796127768
    8      C       8.2255034536     0.5817425086    -0.1919925508
    9      C       0.3883664202     0.4868410574     0.7487812095
   10      C      -0.9806009398     0.5746159163     0.9433091806
   11      C      -1.8158598748    -0.4319891151     0.4696418742
   12      C      -1.3060188937    -1.5413417960    -0.1998576557
   13      C       0.0580298623    -1.6304866539    -0.3925085767
   14      H       2.5276848400    -1.6438298731    -0.6536981340
   15      H       4.6764274221    -1.4085134946    -0.1659356367
   16      H       5.8426905391     0.5385488465     1.1899877896
   17      H       5.5713151623     1.3881492645    -0.3242006450
   18      H       6.8416399781    -0.3666835480    -1.5585324759
   19      H       7.1019771669    -1.2530247217    -0.0616825011
   20      H       8.1380935658     1.5831365731    -0.6198139132
   21      H       9.1158725904     0.1154030166    -0.6159340249
   22      H       8.3870089530     0.6925418771     0.8828613007
   23      H       1.0430614649     1.2645924440     1.1087269833
   24      C      -4.0614624667     0.6528819363    -0.8401049023
   25      H      -1.9732874061    -2.3201735405    -0.5500451501
   26      H       0.4696101762    -2.4931320287    -0.9067628166
   27      F      -3.7279811139    -0.0339311465    -1.9256089536
   28      F      -5.3697947208     0.8361010789    -0.8219990284
   29      F      -3.4514346005     1.8299984453    -0.8713614037
   30      S      -3.5547213547    -0.2890213376     0.6900194643
   31      O      -3.8415947229     0.6024765664     1.7932817822
   32      O      -4.1733652247    -1.5908451420     0.5527059554
   33      H      -1.4038465461     1.4207501044     1.4725123435
 ----------------------------------------------------------------
 Molecular Point Group                 C1    NOp =  1
 Largest Abelian Subgroup              C1    NOp =  1
 Nuclear Repulsion Energy =  1747.1916812215 hartrees
 There are       80 alpha and       80 beta electrons
 Requested basis set is 6-31+G(d)
 There are 127 shells and 410 basis functions
 Total memory of 50485MB is distributed as follows: 
   QALLOC including MEM_STATIC uses 30062MB
   MEM_STATIC is set to 62MB
   CCMAN JOB total memory use is  50423MB
 Warning: actual memory use might exceed 50485MB

 Total QAlloc Memory Limit  30062 MB
 Mega-Array Size        61 MB
 MEM_STATIC part        62 MB
 A cutoff of  1.0D-14 yielded   5750 shell pairs
 There are     64757 function pairs
 
 -------------------------------------------------------
 OpenMP Integral Computing Module                       
 Release: version 1.0, May 2013, Q-Chem Inc. Pittsburgh 
 -------------------------------------------------------
 Integral Job Info:
 Integral job number is                      11
 Integral operator is                         1
 short-range coefficients                     0
 long-range coefficients              100000000
 Omega coefficients                           0
 if combine SR and LR in K                    0
 Integral screening is                        0
 Integral computing path is                   2
 max size of driver memory is            800000
 size of driver memory is                593474
 size of scratch memory is             15166112
 max col of scratch BK array               1296
 max len of scratch array in speh3          155
 max len of scratch index in speh4           18
 max int batch size is                      520
 min int batch size is                       52
 fixed nKL is                                52
 max L of basis functions is                  2
 order of int derivative is                   0
 number of shells is                        127
 number of basis is                         410
 number of cartesian basis is               410
 number of contracted shell pairs          5750
 number of primitive shell pairs          18416
 maxK2 (contraction) of shell pair           36
 max number of K2 of shell pair               1
 max number of CS2 of shell pair            817
 max number of PS2 of shell pair           4524
 mem total for path MDJ                  162648
 -------------------------------------------------------
 Smallest overlap matrix eigenvalue = 7.98E-07
 Linear dependence detected in AO basis
 Number of orthogonalized atomic orbitals = 409
 Maximum deviation from orthogonality = 2.722E-10

 Scale SEOQF with 1.000000e-02/1.000000e-01/1.000000e-01

 Standard Electronic Orientation quadrupole field applied
 Nucleus-field energy     =     0.0000000084 hartrees
 Guess from superposition of atomic densities
 Warning:  Energy on first SCF cycle will be non-variational
 A restricted Hartree-Fock SCF calculation will be
 performed using Pulay DIIS extrapolation
 SCF converges when DIIS error is below 1.0E-08
 -------------------------------------------------------
 OpenMP Integral computing Module                
 Release: version 1.0, May 2013, Q-Chem Inc. Pittsburgh 
 -------------------------------------------------------
 ---------------------------------------
  Cycle       Energy         DIIS Error
 ---------------------------------------
    1   -1460.6718317892      3.89E-02
    2   -1452.8774301776      5.16E-03
    3   -1453.1795300420      3.80E-03
    4   -1453.4009339523      5.30E-04
    5   -1453.4077089560      1.79E-04
    6   -1453.4084837766      5.46E-05
    7   -1453.4085822819      2.07E-05
    8   -1453.4086100709      9.48E-06
    9   -1453.4086159554      4.29E-06
   10   -1453.4086176494      1.77E-06
   11   -1453.4086179819      7.41E-07
   12   -1453.4086180301      3.08E-07
   13   -1453.4086180378      1.13E-07
   14   -1453.4086180386      4.13E-08
   15   -1453.4086180387      1.38E-08
   16   -1453.4086180387      4.94E-09 Convergence criterion met
 ---------------------------------------
 SCF time:  CPU 298.47 s  wall 76.14 s
 SCF   energy in the final basis set = -1453.4086180387
 Total energy in the final basis set = -1453.4086180387


 ------------------------------------------------------------------------------

   CCMAN2: suite of methods based on coupled cluster
           and equation of motion theories.

   Components:
   * libvmm-1.3-trunk
     by Evgeny Epifanovsky, Ilya Kaliman.
   * libtensor-2.5-release
     by Evgeny Epifanovsky, Michael Wormit, Dmitry Zuev, Sam Manzer, 
        Ilya Kaliman.
   * libcc-2.5-trunk
     by Evgeny Epifanovsky, Arik Landau, Tomasz Kus, Kirill Khistyaev, 
        Dmitry Zuev, Prashant Manohar, Xintian Feng, Anna Krylov, 
        Matthew Goldey, Alec White, Thomas Jagau, Kaushik Nanda, 
        Anastasia Gunina, Alexander Kunitsa, Joonho Lee.

   CCMAN original authors:
   Anna I. Krylov, C. David Sherrill, Steven R. Gwaltney,
   Edward F. C. Byrd (2000)
   Sergey V. Levchenko, Lyudmila V. Slipchenko, Tao Wang,
   Ana-Maria C. Cristian (2003)
   Piotr A. Pieniazek, C. Melania Oana, Evgeny Epifanovsky (2007)
   Prashant Manohar (2009)

 ------------------------------------------------------------------------------


================================================================================
This program uses libxm tensor contraction code.
See https://github.com/ilyak/libxm for more info.
libxm is (c) Ilya Kaliman 2014-2016.
================================================================================

 Calculation will run on 4 cores using libxm for tensor contractions

 
 Alpha MOs, Restricted
 -- Occupied --                  
-92.221 -26.384 -26.384 -26.382 -20.585 -20.585 -20.556 -15.640
  1 A     2 A     3 A     4 A     5 A     6 A     7 A     8 A                  
-15.614 -11.551 -11.415 -11.337 -11.290 -11.289 -11.286 -11.280
  9 A    10 A    11 A    12 A    13 A    14 A    15 A    16 A                  
-11.271 -11.258 -11.248 -11.235  -9.196  -6.881  -6.881  -6.880
 17 A    18 A    19 A    20 A    21 A    22 A    23 A    24 A                  
 -1.769  -1.672  -1.671  -1.482  -1.433  -1.370  -1.296  -1.253
 25 A    26 A    27 A    28 A    29 A    30 A    31 A    32 A                  
 -1.189  -1.087  -1.068  -1.060  -1.026  -0.961  -0.930  -0.889
 33 A    34 A    35 A    36 A    37 A    38 A    39 A    40 A                  
 -0.878  -0.857  -0.856  -0.839  -0.828  -0.804  -0.775  -0.756
 41 A    42 A    43 A    44 A    45 A    46 A    47 A    48 A                  
 -0.741  -0.738  -0.719  -0.695  -0.692  -0.683  -0.676  -0.675
 49 A    50 A    51 A    52 A    53 A    54 A    55 A    56 A                  
 -0.672  -0.661  -0.653  -0.645  -0.637  -0.635  -0.621  -0.597
 57 A    58 A    59 A    60 A    61 A    62 A    63 A    64 A                  
 -0.587  -0.573  -0.548  -0.539  -0.529  -0.523  -0.518  -0.507
 65 A    66 A    67 A    68 A    69 A    70 A    71 A    72 A                  
 -0.501  -0.496  -0.480  -0.470  -0.460  -0.422  -0.375  -0.346
 73 A    74 A    75 A    76 A    77 A    78 A    79 A    80 A                  
 -- Virtual --                   
  0.039   0.064   0.069   0.075   0.081   0.085   0.087   0.091
 81 A    82 A    83 A    84 A    85 A    86 A    87 A    88 A                  
  0.097   0.101   0.102   0.107   0.114   0.119   0.124   0.125
 89 A    90 A    91 A    92 A    93 A    94 A    95 A    96 A                  
  0.132   0.133   0.138   0.141   0.148   0.151   0.157   0.166
 97 A    98 A    99 A   100 A   101 A   102 A   103 A   104 A                  
  0.170   0.178   0.183   0.188   0.196   0.198   0.208   0.211
105 A   106 A   107 A   108 A   109 A   110 A   111 A   112 A                  
  0.213   0.217   0.220   0.227   0.235   0.242   0.243   0.251
113 A   114 A   115 A   116 A   117 A   118 A   119 A   120 A                  
  0.254   0.259   0.262   0.263   0.276   0.277   0.280   0.290
121 A   122 A   123 A   124 A   125 A   126 A   127 A   128 A                  
  0.296   0.299   0.309   0.311   0.315   0.321   0.325   0.329
129 A   130 A   131 A   132 A   133 A   134 A   135 A   136 A                  
  0.333   0.336   0.341   0.350   0.352   0.360   0.364   0.366
137 A   138 A   139 A   140 A   141 A   142 A   143 A   144 A                  
  0.373   0.378   0.381   0.388   0.391   0.392   0.399   0.401
145 A   146 A   147 A   148 A   149 A   150 A   151 A   152 A                  
  0.411   0.412   0.414   0.419   0.422   0.424   0.430   0.434
153 A   154 A   155 A   156 A   157 A   158 A   159 A   160 A                  
  0.437   0.442   0.445   0.448   0.455   0.459   0.464   0.466
161 A   162 A   163 A   164 A   165 A   166 A   167 A   168 A                  
  0.472   0.476   0.477   0.483   0.484   0.495   0.496   0.503
169 A   170 A   171 A   172 A   173 A   174 A   175 A   176 A                  
  0.511   0.514   0.518   0.534   0.539   0.541   0.562   0.569
177 A   178 A   179 A   180 A   181 A   182 A   183 A   184 A                  
  0.580   0.587   0.605   0.613   0.621   0.623   0.633   0.644
185 A   186 A   187 A   188 A   189 A   190 A   191 A   192 A                  
  0.658   0.735   0.749   0.755   0.785   0.797   0.834   0.842
193 A   194 A   195 A   196 A   197 A   198 A   199 A   200 A                  
  0.846   0.882   0.891   0.896   0.905   0.906   0.916   0.924
201 A   202 A   203 A   204 A   205 A   206 A   207 A   208 A                  
  0.937   0.941   0.959   0.961   0.979   0.995   1.003   1.011
209 A   210 A   211 A   212 A   213 A   214 A   215 A   216 A                  
  1.024   1.035   1.045   1.048   1.063   1.080   1.084   1.091
217 A   218 A   219 A   220 A   221 A   222 A   223 A   224 A                  
  1.111   1.123   1.124   1.158   1.164   1.167   1.173   1.188
225 A   226 A   227 A   228 A   229 A   230 A   231 A   232 A                  
  1.202   1.205   1.212   1.228   1.236   1.249   1.256   1.261
233 A   234 A   235 A   236 A   237 A   238 A   239 A   240 A                  
  1.275   1.289   1.303   1.310   1.317   1.319   1.340   1.348
241 A   242 A   243 A   244 A   245 A   246 A   247 A   248 A                  
  1.361   1.367   1.380   1.385   1.395   1.423   1.454   1.473
249 A   250 A   251 A   252 A   253 A   254 A   255 A   256 A                  
  1.486   1.490   1.514   1.523   1.523   1.532   1.566   1.572
257 A   258 A   259 A   260 A   261 A   262 A   263 A   264 A                  
  1.576   1.583   1.587   1.594   1.613   1.623   1.626   1.647
265 A   266 A   267 A   268 A   269 A   270 A   271 A   272 A                  
  1.663   1.668   1.675   1.682   1.689   1.704   1.712   1.724
273 A   274 A   275 A   276 A   277 A   278 A   279 A   280 A                  
  1.743   1.753   1.762   1.777   1.785   1.803   1.852   1.877
281 A   282 A   283 A   284 A   285 A   286 A   287 A   288 A                  
  1.900   1.901   1.914   1.919   1.924   1.953   1.956   1.973
289 A   290 A   291 A   292 A   293 A   294 A   295 A   296 A                  
  1.976   1.982   1.996   2.005   2.046   2.050   2.058   2.077
297 A   298 A   299 A   300 A   301 A   302 A   303 A   304 A                  
  2.093   2.096   2.101   2.104   2.110   2.116   2.131   2.142
305 A   306 A   307 A   308 A   309 A   310 A   311 A   312 A                  
  2.147   2.158   2.178   2.185   2.194   2.210   2.219   2.225
313 A   314 A   315 A   316 A   317 A   318 A   319 A   320 A                  
  2.234   2.247   2.258   2.274   2.286   2.302   2.311   2.317
321 A   322 A   323 A   324 A   325 A   326 A   327 A   328 A                  
  2.330   2.345   2.353   2.361   2.367   2.377   2.386   2.402
329 A   330 A   331 A   332 A   333 A   334 A   335 A   336 A                  
  2.420   2.424   2.445   2.450   2.461   2.496   2.504   2.513
337 A   338 A   339 A   340 A   341 A   342 A   343 A   344 A                  
  2.519   2.529   2.553   2.571   2.596   2.608   2.630   2.636
345 A   346 A   347 A   348 A   349 A   350 A   351 A   352 A                  
  2.650   2.656   2.660   2.681   2.702   2.715   2.737   2.744
353 A   354 A   355 A   356 A   357 A   358 A   359 A   360 A                  
  2.783   2.865   2.889   2.944   2.963   2.994   3.002   3.014
361 A   362 A   363 A   364 A   365 A   366 A   367 A   368 A                  
  3.026   3.046   3.088   3.105   3.121   3.130   3.142   3.163
369 A   370 A   371 A   372 A   373 A   374 A   375 A   376 A                  
  3.180   3.219   3.260   3.280   3.314   3.395   3.463   3.562
377 A   378 A   379 A   380 A   381 A   382 A   383 A   384 A                  
  3.583   3.597   3.616   3.688   3.784   4.363   4.541   4.649
385 A   386 A   387 A   388 A   389 A   390 A   391 A   392 A                  
  4.657   4.671   4.723   4.771   4.779   4.802   4.834   4.849
393 A   394 A   395 A   396 A   397 A   398 A   399 A   400 A                  
  4.866   4.875   4.936   4.968   5.044   5.162   6.202   6.242
401 A   402 A   403 A   404 A   405 A   406 A   407 A   408 A                  
  6.864
409 A                                                                          
 
 Beta MOs, Restricted
 -- Occupied --                  
-92.221 -26.384 -26.384 -26.382 -20.585 -20.585 -20.556 -15.640
  1 A     2 A     3 A     4 A     5 A     6 A     7 A     8 A                  
-15.614 -11.551 -11.415 -11.337 -11.290 -11.289 -11.286 -11.280
  9 A    10 A    11 A    12 A    13 A    14 A    15 A    16 A                  
-11.271 -11.258 -11.248 -11.235  -9.196  -6.881  -6.881  -6.880
 17 A    18 A    19 A    20 A    21 A    22 A    23 A    24 A                  
 -1.769  -1.672  -1.671  -1.482  -1.433  -1.370  -1.296  -1.253
 25 A    26 A    27 A    28 A    29 A    30 A    31 A    32 A                  
 -1.189  -1.087  -1.068  -1.060  -1.026  -0.961  -0.930  -0.889
 33 A    34 A    35 A    36 A    37 A    38 A    39 A    40 A                  
 -0.878  -0.857  -0.856  -0.839  -0.828  -0.804  -0.775  -0.756
 41 A    42 A    43 A    44 A    45 A    46 A    47 A    48 A                  
 -0.741  -0.738  -0.719  -0.695  -0.692  -0.683  -0.676  -0.675
 49 A    50 A    51 A    52 A    53 A    54 A    55 A    56 A                  
 -0.672  -0.661  -0.653  -0.645  -0.637  -0.635  -0.621  -0.597
 57 A    58 A    59 A    60 A    61 A    62 A    63 A    64 A                  
 -0.587  -0.573  -0.548  -0.539  -0.529  -0.523  -0.518  -0.507
 65 A    66 A    67 A    68 A    69 A    70 A    71 A    72 A                  
 -0.501  -0.496  -0.480  -0.470  -0.460  -0.422  -0.375  -0.346
 73 A    74 A    75 A    76 A    77 A    78 A    79 A    80 A                  
 -- Virtual --                   
  0.039   0.064   0.069   0.075   0.081   0.085   0.087   0.091
 81 A    82 A    83 A    84 A    85 A    86 A    87 A    88 A                  
  0.097   0.101   0.102   0.107   0.114   0.119   0.124   0.125
 89 A    90 A    91 A    92 A    93 A    94 A    95 A    96 A                  
  0.132   0.133   0.138   0.141   0.148   0.151   0.157   0.166
 97 A    98 A    99 A   100 A   101 A   102 A   103 A   104 A                  
  0.170   0.178   0.183   0.188   0.196   0.198   0.208   0.211
105 A   106 A   107 A   108 A   109 A   110 A   111 A   112 A                  
  0.213   0.217   0.220   0.227   0.235   0.242   0.243   0.251
113 A   114 A   115 A   116 A   117 A   118 A   119 A   120 A                  
  0.254   0.259   0.262   0.263   0.276   0.277   0.280   0.290
121 A   122 A   123 A   124 A   125 A   126 A   127 A   128 A                  
  0.296   0.299   0.309   0.311   0.315   0.321   0.325   0.329
129 A   130 A   131 A   132 A   133 A   134 A   135 A   136 A                  
  0.333   0.336   0.341   0.350   0.352   0.360   0.364   0.366
137 A   138 A   139 A   140 A   141 A   142 A   143 A   144 A                  
  0.373   0.378   0.381   0.388   0.391   0.392   0.399   0.401
145 A   146 A   147 A   148 A   149 A   150 A   151 A   152 A                  
  0.411   0.412   0.414   0.419   0.422   0.424   0.430   0.434
153 A   154 A   155 A   156 A   157 A   158 A   159 A   160 A                  
  0.437   0.442   0.445   0.448   0.455   0.459   0.464   0.466
161 A   162 A   163 A   164 A   165 A   166 A   167 A   168 A                  
  0.472   0.476   0.477   0.483   0.484   0.495   0.496   0.503
169 A   170 A   171 A   172 A   173 A   174 A   175 A   176 A                  
  0.511   0.514   0.518   0.534   0.539   0.541   0.562   0.569
177 A   178 A   179 A   180 A   181 A   182 A   183 A   184 A                  
  0.580   0.587   0.605   0.613   0.621   0.623   0.633   0.644
185 A   186 A   187 A   188 A   189 A   190 A   191 A   192 A                  
  0.658   0.735   0.749   0.755   0.785   0.797   0.834   0.842
193 A   194 A   195 A   196 A   197 A   198 A   199 A   200 A                  
  0.846   0.882   0.891   0.896   0.905   0.906   0.916   0.924
201 A   202 A   203 A   204 A   205 A   206 A   207 A   208 A                  
  0.937   0.941   0.959   0.961   0.979   0.995   1.003   1.011
209 A   210 A   211 A   212 A   213 A   214 A   215 A   216 A                  
  1.024   1.035   1.045   1.048   1.063   1.080   1.084   1.091
217 A   218 A   219 A   220 A   221 A   222 A   223 A   224 A                  
  1.111   1.123   1.124   1.158   1.164   1.167   1.173   1.188
225 A   226 A   227 A   228 A   229 A   230 A   231 A   232 A                  
  1.202   1.205   1.212   1.228   1.236   1.249   1.256   1.261
233 A   234 A   235 A   236 A   237 A   238 A   239 A   240 A                  
  1.275   1.289   1.303   1.310   1.317   1.319   1.340   1.348
241 A   242 A   243 A   244 A   245 A   246 A   247 A   248 A                  
  1.361   1.367   1.380   1.385   1.395   1.423   1.454   1.473
249 A   250 A   251 A   252 A   253 A   254 A   255 A   256 A                  
  1.486   1.490   1.514   1.523   1.523   1.532   1.566   1.572
257 A   258 A   259 A   260 A   261 A   262 A   263 A   264 A                  
  1.576   1.583   1.587   1.594   1.613   1.623   1.626   1.647
265 A   266 A   267 A   268 A   269 A   270 A   271 A   272 A                  
  1.663   1.668   1.675   1.682   1.689   1.704   1.712   1.724
273 A   274 A   275 A   276 A   277 A   278 A   279 A   280 A                  
  1.743   1.753   1.762   1.777   1.785   1.803   1.852   1.877
281 A   282 A   283 A   284 A   285 A   286 A   287 A   288 A                  
  1.900   1.901   1.914   1.919   1.924   1.953   1.956   1.973
289 A   290 A   291 A   292 A   293 A   294 A   295 A   296 A                  
  1.976   1.982   1.996   2.005   2.046   2.050   2.058   2.077
297 A   298 A   299 A   300 A   301 A   302 A   303 A   304 A                  
  2.093   2.096   2.101   2.104   2.110   2.116   2.131   2.142
305 A   306 A   307 A   308 A   309 A   310 A   311 A   312 A                  
  2.147   2.158   2.178   2.185   2.194   2.210   2.219   2.225
313 A   314 A   315 A   316 A   317 A   318 A   319 A   320 A                  
  2.234   2.247   2.258   2.274   2.286   2.302   2.311   2.317
321 A   322 A   323 A   324 A   325 A   326 A   327 A   328 A                  
  2.330   2.345   2.353   2.361   2.367   2.377   2.386   2.402
329 A   330 A   331 A   332 A   333 A   334 A   335 A   336 A                  
  2.420   2.424   2.445   2.450   2.461   2.496   2.504   2.513
337 A   338 A   339 A   340 A   341 A   342 A   343 A   344 A                  
  2.519   2.529   2.553   2.571   2.596   2.608   2.630   2.636
345 A   346 A   347 A   348 A   349 A   350 A   351 A   352 A                  
  2.650   2.656   2.660   2.681   2.702   2.715   2.737   2.744
353 A   354 A   355 A   356 A   357 A   358 A   359 A   360 A                  
  2.783   2.865   2.889   2.944   2.963   2.994   3.002   3.014
361 A   362 A   363 A   364 A   365 A   366 A   367 A   368 A                  
  3.026   3.046   3.088   3.105   3.121   3.130   3.142   3.163
369 A   370 A   371 A   372 A   373 A   374 A   375 A   376 A                  
  3.180   3.219   3.260   3.280   3.314   3.395   3.463   3.562
377 A   378 A   379 A   380 A   381 A   382 A   383 A   384 A                  
  3.583   3.597   3.616   3.688   3.784   4.363   4.541   4.649
385 A   386 A   387 A   388 A   389 A   390 A   391 A   392 A                  
  4.657   4.671   4.723   4.771   4.779   4.802   4.834   4.849
393 A   394 A   395 A   396 A   397 A   398 A   399 A   400 A                  
  4.866   4.875   4.936   4.968   5.044   5.162   6.202   6.242
401 A   402 A   403 A   404 A   405 A   406 A   407 A   408 A                  
  6.864
409 A                                                                          

 Occupation and symmetry of molecular orbitals

 Point group: C1 (1 irreducible representation).

                           A     All 
 -------------------------------------
 All molecular orbitals:
  - Alpha                  409   409 
  - Beta                   409   409 
 -------------------------------------
 Alpha orbitals:
  - Frozen occupied        24    24  
  - Active occupied        56    56  
  - Active virtual         329   329 
  - Frozen virtual         0     0   
 -------------------------------------
 Beta orbitals:
  - Frozen occupied        24    24  
  - Active occupied        56    56  
  - Active virtual         329   329 
  - Frozen virtual         0     0   
 -------------------------------------

 Import integrals:   CPU 0.00 s  wall 0.00 s

 Import integrals:   CPU 2210.72 s  wall 932.53 s

 MP2 amplitudes:   CPU 31.28 s  wall 88.58 s

           CCSD T amplitudes will be solved using DIIS.

           Start     Size      MaxIter   EConv     TConv     
           3         7         100       1.00e-06  1.00e-04  
 ------------------------------------------------------------------------------
           Energy (a.u.)   Ediff      Tdiff       Comment
 ------------------------------------------------------------------------------
         -1456.36651400                           
     1   -1456.33386338   3.27e-02   1.57e+00     Step took 1:10.57.
     2   -1456.43060705   9.67e-02   2.17e-01     
     3   -1456.42603935   4.57e-03   8.40e-02     
     4   -1456.43602907   9.99e-03   3.23e-02     Switched to DIIS steps.
     5   -1456.43953429   3.51e-03   1.90e-02     
     6   -1456.43980434   2.70e-04   4.19e-03     
     7   -1456.43980853   4.18e-06   2.09e-03     
     8   -1456.43979861   9.91e-06   6.67e-04     
     9   -1456.43980247   3.86e-06   2.86e-04     
    10   -1456.43980335   8.76e-07   8.56e-05     
 ------------------------------------------------------------------------------
         -1456.43980335                           CCSD T converged.


 ------------------------------------------------------------------------------
 == (T) code is based on LIBPT ==
 == Author: Ilya Kaliman, 2016 ==

 Starting (T) calculation...
 (T) calculation completed in 121376 sec
 ------------------------------------------------------------------------------

 SCF energy                 = -1453.40861804
 MP2 energy                 = -1456.36651400
 CCSD correlation energy     =    -3.03118531
 CCSD total energy           = -1456.43980335
 CCSD(T) correlation energy =    -0.11551564
 CCSD(T) total energy       = -1456.55531898

 CCSD  T1^2 = 0.0534  T2^2 = 1.0019  Leading amplitudes:

 Amplitude    Orbitals with energies
  0.0247       75 (A) A                  ->    82 (A) A                   
              -0.4804                          0.0642                     
  0.0247       75 (A) B                  ->    82 (A) B                   
              -0.4804                          0.0642                     
 -0.0180       74 (A) A                  ->    119 (A) A                  
              -0.4958                          0.2431                     
 -0.0180       74 (A) B                  ->    119 (A) B                  
              -0.4958                          0.2431                     

 Amplitude    Orbitals with energies
 -0.0468       79 (A) A      79 (A) B    ->    88 (A) A      88 (A) B     
              -0.3749       -0.3749            0.0912        0.0912       
  0.0468       79 (A) A      79 (A) B    ->    88 (A) B      88 (A) A     
              -0.3749       -0.3749            0.0912        0.0912       
  0.0468       79 (A) B      79 (A) A    ->    88 (A) A      88 (A) B     
              -0.3749       -0.3749            0.0912        0.0912       
 -0.0468       79 (A) B      79 (A) A    ->    88 (A) B      88 (A) A     
              -0.3749       -0.3749            0.0912        0.0912       

 CCSD calculation:   CPU 592917.83 s  wall 169806.67 s

 Total ccman2 time:   CPU 595184.73 s  wall 170851.22 s

 
 --------------------------------------------------------------
 
                    Orbital Energies (a.u.)
 --------------------------------------------------------------
 
 Alpha MOs
 -- Occupied --
-92.221 -26.384 -26.384 -26.382 -20.585 -20.585 -20.556 -15.640
-15.614 -11.551 -11.415 -11.337 -11.290 -11.289 -11.286 -11.280
-11.271 -11.258 -11.248 -11.235  -9.196  -6.881  -6.881  -6.880
 -1.769  -1.672  -1.671  -1.482  -1.433  -1.370  -1.296  -1.253
 -1.189  -1.087  -1.068  -1.060  -1.026  -0.961  -0.930  -0.889
 -0.878  -0.857  -0.856  -0.839  -0.828  -0.804  -0.775  -0.756
 -0.741  -0.738  -0.719  -0.695  -0.692  -0.683  -0.676  -0.675
 -0.672  -0.661  -0.653  -0.645  -0.637  -0.635  -0.621  -0.597
 -0.587  -0.573  -0.548  -0.539  -0.529  -0.523  -0.518  -0.507
 -0.501  -0.496  -0.480  -0.470  -0.460  -0.422  -0.375  -0.346
 -- Virtual --
  0.039   0.064   0.069   0.075   0.081   0.085   0.087   0.091
  0.097   0.101   0.102   0.107   0.114   0.119   0.124   0.125
  0.132   0.133   0.138   0.141   0.148   0.151   0.157   0.166
  0.170   0.178   0.183   0.188   0.196   0.198   0.208   0.211
  0.213   0.217   0.220   0.227   0.235   0.242   0.243   0.251
  0.254   0.259   0.262   0.263   0.276   0.277   0.280   0.290
  0.296   0.299   0.309   0.311   0.315   0.321   0.325   0.329
  0.333   0.336   0.341   0.350   0.352   0.360   0.364   0.366
  0.373   0.378   0.381   0.388   0.391   0.392   0.399   0.401
  0.411   0.412   0.414   0.419   0.422   0.424   0.430   0.434
  0.437   0.442   0.445   0.448   0.455   0.459   0.464   0.466
  0.472   0.476   0.477   0.483   0.484   0.495   0.496   0.503
  0.511   0.514   0.518   0.534   0.539   0.541   0.562   0.569
  0.580   0.587   0.605   0.613   0.621   0.623   0.633   0.644
  0.658   0.735   0.749   0.755   0.785   0.797   0.834   0.842
  0.846   0.882   0.891   0.896   0.905   0.906   0.916   0.924
  0.937   0.941   0.959   0.961   0.979   0.995   1.003   1.011
  1.024   1.035   1.045   1.048   1.063   1.080   1.084   1.091
  1.111   1.123   1.124   1.158   1.164   1.167   1.173   1.188
  1.202   1.205   1.212   1.228   1.236   1.249   1.256   1.261
  1.275   1.289   1.303   1.310   1.317   1.319   1.340   1.348
  1.361   1.367   1.380   1.385   1.395   1.423   1.454   1.473
  1.486   1.490   1.514   1.523   1.523   1.532   1.566   1.572
  1.576   1.583   1.587   1.594   1.613   1.623   1.626   1.647
  1.663   1.668   1.675   1.682   1.689   1.704   1.712   1.724
  1.743   1.753   1.762   1.777   1.785   1.803   1.852   1.877
  1.900   1.901   1.914   1.919   1.924   1.953   1.956   1.973
  1.976   1.982   1.996   2.005   2.046   2.050   2.058   2.077
  2.093   2.096   2.101   2.104   2.110   2.116   2.131   2.142
  2.147   2.158   2.178   2.185   2.194   2.210   2.219   2.225
  2.234   2.247   2.258   2.274   2.286   2.302   2.311   2.317
  2.330   2.345   2.353   2.361   2.367   2.377   2.386   2.402
  2.420   2.424   2.445   2.450   2.461   2.496   2.504   2.513
  2.519   2.529   2.553   2.571   2.596   2.608   2.630   2.636
  2.650   2.656   2.660   2.681   2.702   2.715   2.737   2.744
  2.783   2.865   2.889   2.944   2.963   2.994   3.002   3.014
  3.026   3.046   3.088   3.105   3.121   3.130   3.142   3.163
  3.180   3.219   3.260   3.280   3.314   3.395   3.463   3.562
  3.583   3.597   3.616   3.688   3.784   4.363   4.541   4.649
  4.657   4.671   4.723   4.771   4.779   4.802   4.834   4.849
  4.866   4.875   4.936   4.968   5.044   5.162   6.202   6.242
  6.864
 --------------------------------------------------------------
 
          Ground-State Mulliken Net Atomic Charges

     Atom                 Charge (a.u.)
  ----------------------------------------
      1 C                     0.226454
      2 N                    -0.806172
      3 C                     0.709408
      4 O                    -0.627568
      5 N                    -0.687588
      6 C                    -0.067025
      7 C                    -0.279383
      8 C                    -0.673158
      9 C                     0.041616
     10 C                    -0.002334
     11 C                    -0.406922
     12 C                    -0.170843
     13 C                    -0.984628
     14 H                     0.460548
     15 H                     0.420335
     16 H                     0.204402
     17 H                     0.226483
     18 H                     0.207622
     19 H                     0.181976
     20 H                     0.199148
     21 H                     0.200984
     22 H                     0.197501
     23 H                     0.319417
     24 C                     1.116112
     25 H                     0.296097
     26 H                     0.234463
     27 F                    -0.362813
     28 F                    -0.368933
     29 F                    -0.356801
     30 S                     1.521252
     31 O                    -0.622866
     32 O                    -0.643171
     33 H                     0.296388
  ----------------------------------------
  Sum of atomic charges =    -0.000000

 -----------------------------------------------------------------
                    Cartesian Multipole Moments
 -----------------------------------------------------------------
    Charge (ESU x 10^10)
                -0.0000
    Dipole Moment (Debye)
         X       8.7429      Y      -3.3832      Z      -2.6813
       Tot       9.7506
    Quadrupole Moments (Debye-Ang)
        XX    -124.0851     XY     -15.6272     YY    -122.7127
        XZ       5.5676     YZ       2.7996     ZZ    -129.6465
    Octopole Moments (Debye-Ang^2)
       XXX     207.6037    XXY     -11.4634    XYY      -5.3047
       YYY       4.0684    XXZ     -51.5482    XYZ      -1.0741
       YYZ     -17.5170    XZZ     -10.7642    YZZ       5.0640
       ZZZ     -25.1146
    Hexadecapole Moments (Debye-Ang^3)
      XXXX  -12055.1690   XXXY    -281.5115   XXYY   -2278.8244
      XYYY    -122.3163   YYYY    -738.8444   XXXZ     192.2146
      XXYZ     -22.5302   XYYZ      22.4931   YYYZ      17.7698
      XXZZ   -2283.2123   XYZZ     -10.1767   YYZZ    -219.0593
      XZZZ     114.2527   YZZZ     -18.4812   ZZZZ    -601.8352
 -----------------------------------------------------------------
Archival summary:
1\1\r4146\SP\ProcedureUnspecified\6-31+G*\13321113\hio507\WedDec1109:42:272019WedDec1109:42:272019\0\\#,ProcedureUnspecified,6-31+G*,\\0,1\S\O,1,1.44715\O,1,1.44787,2,122.786\C,1,1.75859,2,109.976,3,-131.398,0\C,4,1.39114,1,119.484,2,-22.7534,0\H,5,1.08404,4,119.774,1,2.04755,0\C,5,1.3855,4,119.974,1,-178.559,0\H,7,1.07846,5,120.482,4,179.73,0\C,4,1.39242,1,119.148,2,158.471,0\H,9,1.08372,4,120.165,1,-1.99994,0\C,9,1.38047,4,118.708,1,178.652,0\H,11,1.08536,9,119.482,4,179.581,0\C,7,1.40306,5,119.437,4,-0.151019,0\N,13,1.39255,7,123.428,5,-178.741,0\H,14,1.00912,13,115.31,7,-179.058,0\C,14,1.39619,13,127.477,7,-8.66253,0\O,16,1.21023,14,123.8,13,-3.58906,0\N,16,1.37037,14,112.959,13,177.949,0\H,18,1.00978,16,118.404,14,-23.9925,0\C,18,1.45801,16,119.018,14,-175.526,0\H,20,1.09116,18,107.574,16,-50.0488,0\H,20,1.0963,18,110.559,16,66.3477,0\C,20,1.52147,18,110.444,16,-170.869,0\H,23,1.09401,20,109.018,18,57.6664,0\H,23,1.09654,20,109.596,18,-58.9353,0\C,23,1.52544,20,111.485,18,179.68,0\H,26,1.09085,23,111.239,20,-179.946,0\H,26,1.09246,23,111.017,20,-59.9559,0\H,26,1.09255,23,111.194,20,59.9402,0\C,1,1.86688,2,105.084,3,119.591,0\F,30,1.32122,1,109.118,2,-65.5632,0\F,30,1.32617,1,110.016,2,54.5085,0\F,30,1.32712,1,109.943,2,174.48,0\\HF=-1453.40862\\@

 Total job time:  170928.37s(wall), 595484.38s(cpu) 
 Wed Dec 11 09:42:27 2019

        *************************************************************
        *                                                           *
        *  Thank you very much for using Q-Chem.  Have a nice day.  *
        *                                                           *
        *************************************************************


0 sent ACK to 0 
now end server 0 ... 
