 Entering Gaussian System, Link 0=/apps/gaussian/g09e01/g09/g09
 AtFile(1): /home/507/hio507/Basis/6-31pGd.gbs
 Initial command:
 /apps/gaussian/g09e01/g09/l1.exe "/jobfs/local/3890865.r-man2/Gau-32289.inp" -scrdir="/jobfs/local/3890865.r-man2/"
 Entering Link 1 = /apps/gaussian/g09e01/g09/l1.exe PID=     32290.
  
 Copyright (c) 1988,1990,1992,1993,1995,1998,2003,2009,2015,
            Gaussian, Inc.  All Rights Reserved.
  
 This is part of the Gaussian(R) 09 program.  It is based on
 the Gaussian(R) 03 system (copyright 2003, Gaussian, Inc.),
 the Gaussian(R) 98 system (copyright 1998, Gaussian, Inc.),
 the Gaussian(R) 94 system (copyright 1995, Gaussian, Inc.),
 the Gaussian 92(TM) system (copyright 1992, Gaussian, Inc.),
 the Gaussian 90(TM) system (copyright 1990, Gaussian, Inc.),
 the Gaussian 88(TM) system (copyright 1988, Gaussian, Inc.),
 the Gaussian 86(TM) system (copyright 1986, Carnegie Mellon
 University), and the Gaussian 82(TM) system (copyright 1983,
 Carnegie Mellon University). Gaussian is a federally registered
 trademark of Gaussian, Inc.
  
 This software contains proprietary and confidential information,
 including trade secrets, belonging to Gaussian, Inc.
  
 This software is provided under written license and may be
 used, copied, transmitted, or stored only in accord with that
 written license.
  
 The following legend is applicable only to US Government
 contracts under FAR:
  
                    RESTRICTED RIGHTS LEGEND
  
 Use, reproduction and disclosure by the US Government is
 subject to restrictions as set forth in subparagraphs (a)
 and (c) of the Commercial Computer Software - Restricted
 Rights clause in FAR 52.227-19.
  
 Gaussian, Inc.
 340 Quinnipiac St., Bldg. 40, Wallingford CT 06492
  
  
 ---------------------------------------------------------------
 Warning -- This program may not be used in any manner that
 competes with the business of Gaussian, Inc. or will provide
 assistance to any competitor of Gaussian, Inc.  The licensee
 of this program is prohibited from giving any competitor of
 Gaussian, Inc. access to this program.  By using this program,
 the user acknowledges that Gaussian, Inc. is engaged in the
 business of creating and licensing software in the field of
 computational chemistry and represents and warrants to the
 licensee that it is not a competitor of Gaussian, Inc. and that
 it will not use this program in any manner prohibited above.
 ---------------------------------------------------------------
  

 Cite this work as:
 Gaussian 09, Revision E.01,
 M. J. Frisch, G. W. Trucks, H. B. Schlegel, G. E. Scuseria, 
 M. A. Robb, J. R. Cheeseman, G. Scalmani, V. Barone, B. Mennucci, 
 G. A. Petersson, H. Nakatsuji, M. Caricato, X. Li, H. P. Hratchian, 
 A. F. Izmaylov, J. Bloino, G. Zheng, J. L. Sonnenberg, M. Hada, 
 M. Ehara, K. Toyota, R. Fukuda, J. Hasegawa, M. Ishida, T. Nakajima, 
 Y. Honda, O. Kitao, H. Nakai, T. Vreven, J. A. Montgomery, Jr., 
 J. E. Peralta, F. Ogliaro, M. Bearpark, J. J. Heyd, E. Brothers, 
 K. N. Kudin, V. N. Staroverov, T. Keith, R. Kobayashi, J. Normand, 
 K. Raghavachari, A. Rendell, J. C. Burant, S. S. Iyengar, J. Tomasi, 
 M. Cossi, N. Rega, J. M. Millam, M. Klene, J. E. Knox, J. B. Cross, 
 V. Bakken, C. Adamo, J. Jaramillo, R. Gomperts, R. E. Stratmann, 
 O. Yazyev, A. J. Austin, R. Cammi, C. Pomelli, J. W. Ochterski, 
 R. L. Martin, K. Morokuma, V. G. Zakrzewski, G. A. Voth, 
 P. Salvador, J. J. Dannenberg, S. Dapprich, A. D. Daniels, 
 O. Farkas, J. B. Foresman, J. V. Ortiz, J. Cioslowski, 
 and D. J. Fox, Gaussian, Inc., Wallingford CT, 2013.
 
 ******************************************
 Gaussian 09:  ES64L-G09RevE.01 30-Nov-2015
                30-Nov-2019 
 ******************************************
 %chk=CP21.MP2_6-31pGd.chk
 %mem=1114112000
 %nproc=4
 Will use up to    4 processors via shared memory.
 -------------------------------------------------------------
 # MP2/Gen 6D SCF=Tight INT(grid=ultrafine) maxdisk=3489660928
 -------------------------------------------------------------
 1/38=1/1;
 2/12=2,17=6,18=5,40=1/2;
 3/5=7,8=2,11=9,16=1,25=1,30=1,75=-5/1,2,3;
 4//1;
 5/5=2,32=2,38=5/2;
 8/10=1/1;
 9/16=-3/6;
 6/7=2,8=2,9=2,10=2/1;
 99/5=1,9=1/99;
 ----------------
 CP21.MP2_6-31pGd
 ----------------
 Symbolic Z-matrix:
 Charge =  0 Multiplicity = 1
 C                    -6.10445   1.25459   0.36313 
 N                    -4.84897   0.65739   0.28377 
 C                    -3.62619   1.28107   0.02846 
 O                    -3.51113   2.45885  -0.22502 
 N                    -2.56628   0.41307   0.06124 
 C                    -1.21538   0.94034  -0.08991 
 C                    -0.21621  -0.19588  -0.24976 
 C                     1.20579   0.33008  -0.41776 
 C                    -6.30088   2.64383   0.36401 
 C                    -7.58613   3.14974   0.47277 
 C                    -8.66825   2.28171   0.57668 
 C                    -8.49164   0.90053   0.5782 
 C                    -7.21124   0.39564   0.47171 
 H                    -4.85084  -0.35172   0.27784 
 H                    -2.65948  -0.4389    0.5952 
 H                    -0.94994   1.57051   0.76701 
 H                    -1.20961   1.58399  -0.97099 
 H                    -0.50132  -0.80232  -1.11452 
 H                    -0.26231  -0.85228   0.62741 
 H                     1.28565   0.96853  -1.30064 
 H                     1.91855  -0.48764  -0.53296 
 H                     1.51336   0.92075   0.44836 
 H                    -5.45645   3.30921   0.27864 
 C                    -10.76704   3.07689  -1.12563 
 H                    -9.34734   0.24223   0.67237 
 H                    -7.05849  -0.6789    0.47848 
 F                    -10.71981   1.88137  -1.69987 
 F                    -11.99386   3.55881  -1.21668 
 F                    -9.92636   3.88882  -1.75233 
 S                    -10.29716   2.93706   0.67573 
 O                    -10.25311   4.29995   1.16032 
 O                    -11.19293   1.9393    1.22197 
 H                    -7.75196   4.22092   0.4872 
 
                          Input orientation:                          
 ---------------------------------------------------------------------
 Center     Atomic      Atomic             Coordinates (Angstroms)
 Number     Number       Type             X           Y           Z
 ---------------------------------------------------------------------
      1          6           0       -6.104454    1.254590    0.363134
      2          7           0       -4.848974    0.657387    0.283768
      3          6           0       -3.626192    1.281070    0.028464
      4          8           0       -3.511129    2.458849   -0.225020
      5          7           0       -2.566284    0.413067    0.061240
      6          6           0       -1.215380    0.940340   -0.089909
      7          6           0       -0.216215   -0.195880   -0.249760
      8          6           0        1.205789    0.330079   -0.417763
      9          6           0       -6.300884    2.643835    0.364010
     10          6           0       -7.586126    3.149741    0.472769
     11          6           0       -8.668248    2.281706    0.576682
     12          6           0       -8.491639    0.900533    0.578197
     13          6           0       -7.211237    0.395635    0.471705
     14          1           0       -4.850840   -0.351719    0.277844
     15          1           0       -2.659480   -0.438902    0.595205
     16          1           0       -0.949945    1.570507    0.767008
     17          1           0       -1.209605    1.583992   -0.970988
     18          1           0       -0.501322   -0.802317   -1.114522
     19          1           0       -0.262310   -0.852278    0.627406
     20          1           0        1.285648    0.968525   -1.300639
     21          1           0        1.918552   -0.487635   -0.532955
     22          1           0        1.513362    0.920751    0.448365
     23          1           0       -5.456450    3.309211    0.278637
     24          6           0      -10.767038    3.076889   -1.125634
     25          1           0       -9.347340    0.242229    0.672374
     26          1           0       -7.058492   -0.678904    0.478476
     27          9           0      -10.719811    1.881373   -1.699874
     28          9           0      -11.993862    3.558806   -1.216682
     29          9           0       -9.926365    3.888819   -1.752334
     30         16           0      -10.297158    2.937059    0.675729
     31          8           0      -10.253109    4.299954    1.160322
     32          8           0      -11.192934    1.939299    1.221973
     33          1           0       -7.751960    4.220921    0.487202
 ---------------------------------------------------------------------
                    Distance matrix (angstroms):
                    1          2          3          4          5
     1  C    0.000000
     2  N    1.392546   0.000000
     3  C    2.500898   1.396193   0.000000
     4  O    2.919161   2.300861   1.210231   0.000000
     5  N    3.649377   2.306487   1.370368   2.271542   0.000000
     6  C    4.920066   3.663700   2.437647   2.755828   1.458014
     7  C    6.095151   4.740798   3.726490   4.231389   2.447522
     8  C    7.409736   6.104050   4.944850   5.178623   3.803271
     9  C    1.403063   2.461800   3.020546   2.857255   4.360646
    10  C    2.408104   3.706691   4.401184   4.191640   5.732151
    11  C    2.770128   4.160658   5.169541   5.222067   6.402457
    12  C    2.422862   3.662625   4.911170   5.280055   5.967805
    13  C    1.405190   2.384140   3.719275   4.293376   4.663087
    14  H    2.039375   1.009125   2.056199   3.153885   2.418887
    15  H    3.845728   2.468345   2.052810   3.129702   1.009780
    16  H    5.179950   4.033576   2.791329   2.886682   2.109580
    17  H    5.084086   3.959547   2.632595   2.572714   2.068124
    18  H    6.148937   4.794583   3.925778   4.526076   2.669016
    19  H    6.216058   4.840935   4.028102   4.716462   2.688854
    20  H    7.580474   6.343559   5.098075   5.136837   4.123182
    21  H    8.258750   6.912128   5.847024   6.185308   4.612818
    22  H    7.625604   6.369911   5.169251   5.297613   4.129300
    23  H    2.156042   2.720519   2.743317   2.181985   4.097312
    24  C    5.222728   6.547052   7.453093   7.337663   8.703849
    25  H    3.411277   4.534167   5.850243   6.307145   6.810682
    26  H    2.159142   2.589509   3.978026   4.787921   4.641812
    27  F    5.094152   6.316622   7.325773   7.380635   8.469797
    28  F    6.518462   7.856145   8.761071   8.611043  10.020378
    29  F    5.101114   6.353563   7.047253   6.747796   8.339106
    30  S    4.528486   5.918890   6.903843   6.862232   8.155645
    31  O    5.207790   6.575813   7.369586   7.124825   8.683498
    32  O    5.205675   6.539829   7.688518   7.834146   8.837181
    33  H    3.395407   4.600814   5.086761   4.647236   6.447669
                    6          7          8          9         10
     6  C    0.000000
     7  C    1.521473   0.000000
     8  C    2.518326   1.525435   0.000000
     9  C    5.382405   6.742692   7.893971   0.000000
    10  C    6.766422   8.125935   9.275846   1.385503   0.000000
    11  C    7.601898   8.846373  10.114069   2.404326   1.391141
    12  C    7.306976   8.388699   9.765115   2.807914   2.426933
    13  C    6.046687   7.056964   8.464147   2.427909   2.779504
    14  H    3.875723   4.667163   6.134450   3.329173   4.447472
    15  H    2.111188   2.596646   4.069120   4.776667   6.096326
    16  H    1.096299   2.166171   2.754911   5.472384   6.827844
    17  H    1.091156   2.162160   2.777136   5.369041   6.722799
    18  H    2.143960   1.094013   2.163798   6.906297   8.266360
    19  H    2.153221   1.096542   2.155380   6.982589   8.347356
    20  H    2.778813   2.171584   1.092457   7.945640   9.306506
    21  H    3.472309   2.173143   1.090851   8.841367  10.226480
    22  H    2.781394   2.173862   1.092553   8.002410   9.368547
    23  H    4.871760   6.326525   7.331141   1.078464   2.144444
    24  C    9.842344  11.081428  12.304253   4.727907   3.560674
    25  H    8.197390   9.188020  10.609649   3.891489   3.405193
    26  H    6.089907   6.897854   8.373747   3.409936   3.864836
    27  F    9.685647  10.804784  12.094225   4.936384   4.018597
    28  F   11.149065  12.399418  13.612264   5.978775   4.738112
    29  F    9.345504  10.640935  11.763102   4.378699   3.312708
    30  S    9.330155  10.597040  11.845247   4.019124   2.726925
    31  O    9.722686  11.087835  12.229334   4.358546   2.984714
    32  O   10.112890  11.278889  12.609784   5.016435   3.877568
    33  H    7.336358   8.765769   9.808103   2.146625   1.084037
                   11         12         13         14         15
    11  C    0.000000
    12  C    1.392419   0.000000
    13  C    2.385616   1.380467   0.000000
    14  H    4.647239   3.861834   2.483464   0.000000
    15  H    6.596010   5.984017   4.629277   2.215938   0.000000
    16  H    7.753337   7.573748   6.377406   4.376210   2.643813
    17  H    7.649408   7.476303   6.285948   4.308730   2.940611
    18  H    8.892135   8.343271   6.998155   4.589122   2.777207
    19  H    8.971300   8.414073   7.061807   4.628970   2.432763
    20  H   10.214149   9.956404   8.698648   6.472337   4.597729
    21  H   10.999131  10.560954   9.227273   6.819131   4.715241
    22  H   10.272967  10.005864   8.740419   6.492405   4.391221
    23  H    3.385299   3.886366   3.406681   3.710683   4.687388
    24  C    2.816933   3.580084   4.731208   6.980437   9.003031
    25  H    2.151694   1.083724   2.150985   4.552684   6.722899
    26  H    3.371376   2.135059   1.085363   2.240765   4.407100
    27  F    3.090612   3.334127   4.385575   6.583532   8.695977
    28  F    3.988338   4.749060   5.977441   8.279406  10.314809
    29  F    3.096770   4.052118   4.951828   6.918434   8.777683
    30  S    1.758592   2.723390   4.002920   6.374696   8.350912
    31  O    2.631681   3.872687   4.997087   7.183406   8.968797
    32  O    2.628246   2.964874   4.335863   6.808986   8.880795
    33  H    2.146659   3.402996   3.863345   5.419351   6.903548
                   16         17         18         19         20
    16  H    0.000000
    17  H    1.757337   0.000000
    18  H    3.061325   2.493339   0.000000
    19  H    2.522344   3.063926   1.758959   0.000000
    20  H    3.104097   2.591092   2.522654   3.070645   0.000000
    21  H    3.762197   3.777417   2.508592   2.497111   1.763607
    22  H    2.567411   3.141496   3.077422   2.515691   1.764412
    23  H    4.854913   4.751171   6.587780   6.664737   7.309501
    24  C   10.110717   9.674564  10.974210  11.351687  12.236955
    25  H    8.502324   8.409738   9.084939   9.150832  10.838852
    26  H    6.515938   6.436701   6.749026   6.800023   8.689300
    27  F   10.081291   9.542732  10.581227  11.056600  12.046731
    28  F   11.395458  10.966332  12.292612  12.668371  13.530040
    29  F    9.607173   9.050118  10.547275  11.024296  11.594886
    30  S    9.447020   9.334136  10.637027  10.726583  11.913965
    31  O    9.703269   9.680077  11.238569  11.253690  12.259594
    32  O   10.259718  10.227520  11.282120  11.297121  12.767967
    33  H    7.305505   7.202924   8.964943   9.047202   9.769996
                   21         22         23         24         25
    21  H    0.000000
    22  H    1.763723   0.000000
    23  H    8.334589   7.369655   0.000000
    24  C   13.190197  12.567204   5.498027   0.000000
    25  H   11.353671  10.884182   4.969953   3.644677   0.000000
    26  H    9.035867   8.719890   4.302504   5.516563   2.474856
    27  F   12.911318  12.457458   5.801397   1.327118   3.193435
    28  F   14.505048  13.862785   6.710889   1.321223   4.644598
    29  F   12.686303  12.021641   4.943777   1.326165   4.417249
    30  S   12.744137  11.983554   4.871205   1.866882   2.857319
    31  O   13.188537  12.262778   4.976633   2.643030   4.186124
    32  O   13.449195  12.770507   5.972754   2.643247   2.566773
    33  H   10.804167   9.835590   2.478726   3.605654   4.290631
                   26         27         28         29         30
    26  H    0.000000
    27  F    4.970462   0.000000
    28  F    6.722323   2.161125   0.000000
    29  F    5.836549   2.159201   2.161105   0.000000
    30  S    4.858298   2.633743   2.616599   2.634165   0.000000
    31  O    5.954790   3.774662   3.038037   2.959621   1.447153
    32  O    4.949888   2.960472   3.035017   3.775092   1.447868
    33  H    4.948663   4.366340   4.619020   3.139083   2.856900
                   31         32         33
    31  O    0.000000
    32  O    2.541606   0.000000
    33  H    2.591347   4.193565   0.000000
 Stoichiometry    C11H13F3N2O3S
 Framework group  C1[X(C11H13F3N2O3S)]
 Deg. of freedom    93
 Full point group                 C1      NOp   1
 Largest Abelian subgroup         C1      NOp   1
 Largest concise Abelian subgroup C1      NOp   1
                         Standard orientation:                         
 ---------------------------------------------------------------------
 Center     Atomic      Atomic             Coordinates (Angstroms)
 Number     Number       Type             X           Y           Z
 ---------------------------------------------------------------------
      1          6           0        0.919378    0.623723   -0.075535
      2          7           0        2.282153    0.808804    0.143034
      3          6           0        3.312255   -0.103084   -0.095098
      4          8           0        3.132667   -1.235924   -0.481205
      5          7           0        4.552880    0.406523    0.186077
      6          6           0        5.731804   -0.399281   -0.108239
      7          6           0        6.977488    0.246923    0.479613
      8          6           0        8.225503   -0.581743    0.191993
      9          6           0        0.388366   -0.486841   -0.748781
     10          6           0       -0.980601   -0.574616   -0.943309
     11          6           0       -1.815860    0.431989   -0.469642
     12          6           0       -1.306019    1.541342    0.199858
     13          6           0        0.058030    1.630487    0.392509
     14          1           0        2.527685    1.643830    0.653698
     15          1           0        4.676427    1.408513    0.165936
     16          1           0        5.842691   -0.538549   -1.189988
     17          1           0        5.571315   -1.388149    0.324201
     18          1           0        6.841640    0.366684    1.558532
     19          1           0        7.101977    1.253025    0.061683
     20          1           0        8.138094   -1.583137    0.619814
     21          1           0        9.115873   -0.115403    0.615934
     22          1           0        8.387009   -0.692542   -0.882861
     23          1           0        1.043061   -1.264592   -1.108727
     24          6           0       -4.061462   -0.652882    0.840105
     25          1           0       -1.973287    2.320174    0.550045
     26          1           0        0.469610    2.493132    0.906763
     27          9           0       -3.727981    0.033931    1.925609
     28          9           0       -5.369795   -0.836101    0.821999
     29          9           0       -3.451435   -1.829998    0.871361
     30         16           0       -3.554721    0.289021   -0.690019
     31          8           0       -3.841595   -0.602477   -1.793282
     32          8           0       -4.173365    1.590845   -0.552706
     33          1           0       -1.403847   -1.420750   -1.472512
 ---------------------------------------------------------------------
 Rotational constants (GHZ):      1.0246635      0.0953005      0.0942311
 General basis read from cards:  (6D, 7F)
 There are   410 symmetry adapted cartesian basis functions of A   symmetry.
 There are   410 symmetry adapted basis functions of A   symmetry.
   410 basis functions,   716 primitive gaussians,   410 cartesian basis functions
    80 alpha electrons       80 beta electrons
       nuclear repulsion energy      1747.1916739247 Hartrees.
 NAtoms=   33 NActive=   33 NUniq=   33 SFac= 1.00D+00 NAtFMM=   60 NAOKFM=F Big=F
 Integral buffers will be    131072 words long.
 Raffenetti 1 integral format.
 Two-electron integral symmetry is turned on.
 One-electron integrals computed using PRISM.
 NBasis=   410 RedAO= T EigKep=  1.43D-06  NBF=   410
 NBsUse=   409 1.00D-06 EigRej=  7.98D-07 NBFU=   409
 ExpMin= 4.05D-02 ExpMax= 2.19D+04 ExpMxC= 3.30D+03 IAcc=3 IRadAn=         5 AccDes= 0.00D+00
 Harris functional with IExCor=  205 and IRadAn=       5 diagonalized for initial guess.
 HarFok:  IExCor=  205 AccDes= 0.00D+00 IRadAn=         5 IDoV= 1 UseB2=F ITyADJ=14
 ICtDFT=  3500011 ScaDFX=  1.000000  1.000000  1.000000  1.000000
 FoFCou: FMM=F IPFlag=           0 FMFlag=      100000 FMFlg1=           0
         NFxFlg=           0 DoJE=T BraDBF=F KetDBF=T FulRan=T
         wScrn=  0.000000 ICntrl=     500 IOpCl=  0 I1Cent=   200000004 NGrid=           0
         NMat0=    1 NMatS0=      1 NMatT0=    0 NMatD0=    1 NMtDS0=    0 NMtDT0=    0
 Petite list used in FoFCou.
 Requested convergence on RMS density matrix=1.00D-08 within 128 cycles.
 Requested convergence on MAX density matrix=1.00D-06.
 Requested convergence on             energy=1.00D-06.
 No special actions if energy rises.
 Initial convergence to 1.0D-05 achieved.  Increase integral accuracy.
 SCF Done:  E(RHF) =  -1453.40861806     A.U. after   18 cycles
            NFock= 18  Conv=0.41D-08     -V/T= 2.0021
 ExpMin= 4.05D-02 ExpMax= 2.19D+04 ExpMxC= 3.30D+03 IAcc=3 IRadAn=         5 AccDes= 0.00D+00
 HarFok:  IExCor=  205 AccDes= 0.00D+00 IRadAn=         5 IDoV=-2 UseB2=F ITyADJ=14
 ICtDFT= 12500011 ScaDFX=  1.000000  1.000000  1.000000  1.000000
 Range of M.O.s used for correlation:    25   409
 NBasis=   410 NAE=    80 NBE=    80 NFC=    24 NFV=     0
 NROrb=    385 NOA=    56 NOB=    56 NVA=   329 NVB=   329

 **** Warning!!: The largest alpha MO coefficient is  0.14012807D+03

 Fully direct method using O(OVN) memory.
 JobTyp=1 Pass  1:  I=   1 to  56 NPSUse=  4 ParTrn=T ParDer=T DoDerP=F.
 Spin components of T(2) and E(2):
     alpha-alpha T2 =       0.1310642168D+00 E2=     -0.4068166583D+00
     alpha-beta  T2 =       0.6662860103D+00 E2=     -0.2144262619D+01
     beta-beta   T2 =       0.1310642168D+00 E2=     -0.4068166583D+00
 ANorm=    0.1388673628D+01
 E2 =    -0.2957895935D+01 EUMP2 =    -0.14563665139905D+04

 **********************************************************************

            Population analysis using the SCF density.

 **********************************************************************

 Orbital symmetries:
       Occupied  (A) (A) (A) (A) (A) (A) (A) (A) (A) (A) (A) (A)
                 (A) (A) (A) (A) (A) (A) (A) (A) (A) (A) (A) (A)
                 (A) (A) (A) (A) (A) (A) (A) (A) (A) (A) (A) (A)
                 (A) (A) (A) (A) (A) (A) (A) (A) (A) (A) (A) (A)
                 (A) (A) (A) (A) (A) (A) (A) (A) (A) (A) (A) (A)
                 (A) (A) (A) (A) (A) (A) (A) (A) (A) (A) (A) (A)
                 (A) (A) (A) (A) (A) (A) (A) (A)
       Virtual   (A) (A) (A) (A) (A) (A) (A) (A) (A) (A) (A) (A)
                 (A) (A) (A) (A) (A) (A) (A) (A) (A) (A) (A) (A)
                 (A) (A) (A) (A) (A) (A) (A) (A) (A) (A) (A) (A)
                 (A) (A) (A) (A) (A) (A) (A) (A) (A) (A) (A) (A)
                 (A) (A) (A) (A) (A) (A) (A) (A) (A) (A) (A) (A)
                 (A) (A) (A) (A) (A) (A) (A) (A) (A) (A) (A) (A)
                 (A) (A) (A) (A) (A) (A) (A) (A) (A) (A) (A) (A)
                 (A) (A) (A) (A) (A) (A) (A) (A) (A) (A) (A) (A)
                 (A) (A) (A) (A) (A) (A) (A) (A) (A) (A) (A) (A)
                 (A) (A) (A) (A) (A) (A) (A) (A) (A) (A) (A) (A)
                 (A) (A) (A) (A) (A) (A) (A) (A) (A) (A) (A) (A)
                 (A) (A) (A) (A) (A) (A) (A) (A) (A) (A) (A) (A)
                 (A) (A) (A) (A) (A) (A) (A) (A) (A) (A) (A) (A)
                 (A) (A) (A) (A) (A) (A) (A) (A) (A) (A) (A) (A)
                 (A) (A) (A) (A) (A) (A) (A) (A) (A) (A) (A) (A)
                 (A) (A) (A) (A) (A) (A) (A) (A) (A) (A) (A) (A)
                 (A) (A) (A) (A) (A) (A) (A) (A) (A) (A) (A) (A)
                 (A) (A) (A) (A) (A) (A) (A) (A) (A) (A) (A) (A)
                 (A) (A) (A) (A) (A) (A) (A) (A) (A) (A) (A) (A)
                 (A) (A) (A) (A) (A) (A) (A) (A) (A) (A) (A) (A)
                 (A) (A) (A) (A) (A) (A) (A) (A) (A) (A) (A) (A)
                 (A) (A) (A) (A) (A) (A) (A) (A) (A) (A) (A) (A)
                 (A) (A) (A) (A) (A) (A) (A) (A) (A) (A) (A) (A)
                 (A) (A) (A) (A) (A) (A) (A) (A) (A) (A) (A) (A)
                 (A) (A) (A) (A) (A) (A) (A) (A) (A) (A) (A) (A)
                 (A) (A) (A) (A) (A) (A) (A) (A) (A) (A) (A) (A)
                 (A) (A) (A) (A) (A) (A) (A) (A) (A) (A) (A) (A)
                 (A) (A) (A) (A) (A)
 The electronic state is 1-A.
 Alpha  occ. eigenvalues --  -92.22092 -26.38410 -26.38371 -26.38161 -20.58495
 Alpha  occ. eigenvalues --  -20.58451 -20.55636 -15.63986 -15.61401 -11.55130
 Alpha  occ. eigenvalues --  -11.41492 -11.33669 -11.29034 -11.28862 -11.28615
 Alpha  occ. eigenvalues --  -11.27986 -11.27126 -11.25847 -11.24842 -11.23491
 Alpha  occ. eigenvalues --   -9.19562  -6.88144  -6.88089  -6.88041  -1.76930
 Alpha  occ. eigenvalues --   -1.67161  -1.67122  -1.48165  -1.43297  -1.37000
 Alpha  occ. eigenvalues --   -1.29645  -1.25350  -1.18923  -1.08673  -1.06750
 Alpha  occ. eigenvalues --   -1.06009  -1.02584  -0.96094  -0.93046  -0.88916
 Alpha  occ. eigenvalues --   -0.87812  -0.85660  -0.85605  -0.83910  -0.82844
 Alpha  occ. eigenvalues --   -0.80373  -0.77544  -0.75639  -0.74055  -0.73764
 Alpha  occ. eigenvalues --   -0.71857  -0.69491  -0.69241  -0.68321  -0.67605
 Alpha  occ. eigenvalues --   -0.67518  -0.67207  -0.66093  -0.65326  -0.64488
 Alpha  occ. eigenvalues --   -0.63676  -0.63509  -0.62114  -0.59670  -0.58735
 Alpha  occ. eigenvalues --   -0.57257  -0.54773  -0.53909  -0.52851  -0.52295
 Alpha  occ. eigenvalues --   -0.51797  -0.50742  -0.50126  -0.49578  -0.48037
 Alpha  occ. eigenvalues --   -0.47048  -0.45978  -0.42191  -0.37489  -0.34584
 Alpha virt. eigenvalues --    0.03896   0.06423   0.06934   0.07536   0.08056
 Alpha virt. eigenvalues --    0.08545   0.08745   0.09125   0.09690   0.10082
 Alpha virt. eigenvalues --    0.10189   0.10709   0.11353   0.11904   0.12386
 Alpha virt. eigenvalues --    0.12527   0.13242   0.13320   0.13835   0.14139
 Alpha virt. eigenvalues --    0.14823   0.15128   0.15746   0.16641   0.16983
 Alpha virt. eigenvalues --    0.17779   0.18294   0.18756   0.19592   0.19807
 Alpha virt. eigenvalues --    0.20834   0.21076   0.21306   0.21667   0.21968
 Alpha virt. eigenvalues --    0.22676   0.23452   0.24155   0.24308   0.25081
 Alpha virt. eigenvalues --    0.25419   0.25896   0.26201   0.26338   0.27572
 Alpha virt. eigenvalues --    0.27673   0.28048   0.28965   0.29629   0.29914
 Alpha virt. eigenvalues --    0.30913   0.31136   0.31480   0.32103   0.32485
 Alpha virt. eigenvalues --    0.32897   0.33275   0.33587   0.34131   0.35008
 Alpha virt. eigenvalues --    0.35207   0.36043   0.36386   0.36602   0.37340
 Alpha virt. eigenvalues --    0.37777   0.38142   0.38836   0.39077   0.39189
 Alpha virt. eigenvalues --    0.39872   0.40059   0.41074   0.41175   0.41433
 Alpha virt. eigenvalues --    0.41943   0.42164   0.42422   0.42984   0.43437
 Alpha virt. eigenvalues --    0.43702   0.44201   0.44504   0.44843   0.45510
 Alpha virt. eigenvalues --    0.45936   0.46425   0.46618   0.47215   0.47600
 Alpha virt. eigenvalues --    0.47734   0.48259   0.48367   0.49509   0.49629
 Alpha virt. eigenvalues --    0.50277   0.51087   0.51432   0.51786   0.53406
 Alpha virt. eigenvalues --    0.53923   0.54053   0.56151   0.56897   0.57969
 Alpha virt. eigenvalues --    0.58659   0.60510   0.61287   0.62147   0.62261
 Alpha virt. eigenvalues --    0.63334   0.64359   0.65752   0.73547   0.74920
 Alpha virt. eigenvalues --    0.75531   0.78505   0.79679   0.83410   0.84186
 Alpha virt. eigenvalues --    0.84599   0.88226   0.89060   0.89570   0.90535
 Alpha virt. eigenvalues --    0.90609   0.91610   0.92353   0.93725   0.94140
 Alpha virt. eigenvalues --    0.95931   0.96127   0.97925   0.99472   1.00296
 Alpha virt. eigenvalues --    1.01095   1.02370   1.03483   1.04491   1.04795
 Alpha virt. eigenvalues --    1.06331   1.08020   1.08430   1.09100   1.11078
 Alpha virt. eigenvalues --    1.12317   1.12372   1.15820   1.16395   1.16736
 Alpha virt. eigenvalues --    1.17346   1.18752   1.20238   1.20482   1.21226
 Alpha virt. eigenvalues --    1.22799   1.23572   1.24863   1.25638   1.26078
 Alpha virt. eigenvalues --    1.27457   1.28936   1.30304   1.31050   1.31666
 Alpha virt. eigenvalues --    1.31879   1.33996   1.34774   1.36148   1.36727
 Alpha virt. eigenvalues --    1.38003   1.38518   1.39491   1.42307   1.45407
 Alpha virt. eigenvalues --    1.47260   1.48623   1.48974   1.51353   1.52274
 Alpha virt. eigenvalues --    1.52315   1.53218   1.56616   1.57239   1.57618
 Alpha virt. eigenvalues --    1.58302   1.58718   1.59405   1.61347   1.62275
 Alpha virt. eigenvalues --    1.62631   1.64689   1.66305   1.66845   1.67461
 Alpha virt. eigenvalues --    1.68223   1.68941   1.70364   1.71157   1.72385
 Alpha virt. eigenvalues --    1.74260   1.75266   1.76210   1.77739   1.78511
 Alpha virt. eigenvalues --    1.80303   1.85198   1.87679   1.89955   1.90127
 Alpha virt. eigenvalues --    1.91442   1.91941   1.92404   1.95318   1.95572
 Alpha virt. eigenvalues --    1.97285   1.97576   1.98195   1.99606   2.00536
 Alpha virt. eigenvalues --    2.04598   2.05036   2.05848   2.07668   2.09291
 Alpha virt. eigenvalues --    2.09553   2.10061   2.10449   2.11035   2.11563
 Alpha virt. eigenvalues --    2.13074   2.14231   2.14732   2.15822   2.17817
 Alpha virt. eigenvalues --    2.18540   2.19359   2.21005   2.21908   2.22497
 Alpha virt. eigenvalues --    2.23365   2.24743   2.25772   2.27373   2.28553
 Alpha virt. eigenvalues --    2.30202   2.31096   2.31718   2.33025   2.34490
 Alpha virt. eigenvalues --    2.35251   2.36132   2.36731   2.37712   2.38581
 Alpha virt. eigenvalues --    2.40245   2.41993   2.42362   2.44471   2.45042
 Alpha virt. eigenvalues --    2.46147   2.49569   2.50353   2.51346   2.51882
 Alpha virt. eigenvalues --    2.52934   2.55316   2.57128   2.59646   2.60837
 Alpha virt. eigenvalues --    2.62999   2.63596   2.65026   2.65569   2.65957
 Alpha virt. eigenvalues --    2.68104   2.70177   2.71516   2.73709   2.74401
 Alpha virt. eigenvalues --    2.78343   2.86544   2.88937   2.94447   2.96295
 Alpha virt. eigenvalues --    2.99400   3.00232   3.01386   3.02647   3.04633
 Alpha virt. eigenvalues --    3.08752   3.10460   3.12079   3.13035   3.14230
 Alpha virt. eigenvalues --    3.16305   3.17964   3.21858   3.26035   3.28037
 Alpha virt. eigenvalues --    3.31426   3.39459   3.46334   3.56164   3.58323
 Alpha virt. eigenvalues --    3.59682   3.61647   3.68825   3.78354   4.36258
 Alpha virt. eigenvalues --    4.54113   4.64884   4.65682   4.67097   4.72350
 Alpha virt. eigenvalues --    4.77117   4.77856   4.80245   4.83356   4.84914
 Alpha virt. eigenvalues --    4.86643   4.87513   4.93605   4.96799   5.04354
 Alpha virt. eigenvalues --    5.16191   6.20249   6.24221   6.86396
          Condensed to atoms (all electrons):
               1          2          3          4          5          6
     1  C   19.788997   0.084894  -0.907399  -0.364727  -0.184293  -0.665417
     2  N    0.084894   7.643758   0.287434  -0.070014  -0.212337  -0.120518
     3  C   -0.907399   0.287434   6.698562   0.636846   0.244537  -0.528460
     4  O   -0.364727  -0.070014   0.636846   8.291666  -0.131645  -0.083103
     5  N   -0.184293  -0.212337   0.244537  -0.131645   7.482426   0.415924
     6  C   -0.665417  -0.120518  -0.528460  -0.083103   0.415924   6.577211
     7  C    0.018588   0.004383   0.017266   0.011272  -0.121123  -0.114047
     8  C   -0.007754   0.000204  -0.052822  -0.000565   0.005724  -0.038024
     9  C    0.597243  -0.301897   0.551233   0.330658   0.022533   0.192151
    10  C   -4.399370   0.066293   0.987719   0.119389   0.038059   0.131909
    11  C   -7.723106  -0.047782  -0.895601  -0.003895   0.025815  -0.043210
    12  C    3.073661   0.092079   0.506203   0.001314   0.015892   0.035506
    13  C   -2.776735   0.088530  -2.349359  -0.093608  -0.087010  -0.296064
    14  H   -0.039185   0.265499  -0.025513   0.002556   0.018505   0.004051
    15  H    0.008982   0.030253   0.033899   0.002470   0.262273  -0.068146
    16  H    0.007271   0.003595   0.064423  -0.000850  -0.073134   0.390139
    17  H   -0.006777   0.005735   0.028746  -0.008486  -0.038645   0.393790
    18  H    0.004054   0.000026   0.036578  -0.000273  -0.000881  -0.091810
    19  H   -0.003544   0.000217  -0.023659  -0.000274   0.001858  -0.033783
    20  H   -0.000169  -0.000049  -0.008942  -0.000077  -0.000770  -0.026255
    21  H   -0.000012   0.000011   0.001653   0.000013   0.000327   0.051984
    22  H    0.000268   0.000001   0.008392  -0.000041  -0.000620  -0.021196
    23  H   -0.005647  -0.006272   0.062317  -0.010732   0.001018   0.005717
    24  C    0.318801  -0.001509   0.010985   0.000101  -0.000326   0.000062
    25  H   -0.000136  -0.000187   0.001389  -0.000003  -0.000010   0.000010
    26  H    0.138105  -0.010051  -0.008873   0.000096   0.000394  -0.000300
    27  F   -0.047665   0.000040  -0.001241   0.000000   0.000002  -0.000006
    28  F   -0.005547   0.000006  -0.000014  -0.000000   0.000000   0.000000
    29  F   -0.035488   0.000029  -0.001427   0.000009   0.000003  -0.000009
    30  S   -0.988202   0.004145  -0.078180  -0.000506   0.003080  -0.001000
    31  O   -0.034228   0.000033  -0.002829  -0.000004   0.000004  -0.000018
    32  O   -0.051945  -0.000145  -0.002248   0.000003   0.000003  -0.000015
    33  H   -0.019972  -0.000234  -0.001027  -0.000019   0.000006  -0.000045
               7          8          9         10         11         12
     1  C    0.018588  -0.007754   0.597243  -4.399370  -7.723106   3.073661
     2  N    0.004383   0.000204  -0.301897   0.066293  -0.047782   0.092079
     3  C    0.017266  -0.052822   0.551233   0.987719  -0.895601   0.506203
     4  O    0.011272  -0.000565   0.330658   0.119389  -0.003895   0.001314
     5  N   -0.121123   0.005724   0.022533   0.038059   0.025815   0.015892
     6  C   -0.114047  -0.038024   0.192151   0.131909  -0.043210   0.035506
     7  C    5.682337   0.215158  -0.018699  -0.004409  -0.000090  -0.000542
     8  C    0.215158   5.405058   0.001120   0.000805  -0.000267   0.000101
     9  C   -0.018699   0.001120  20.000603   0.474316  -5.938543  -7.941077
    10  C   -0.004409   0.000805   0.474316  18.530402  -0.200471  -2.786328
    11  C   -0.000090  -0.000267  -5.938543  -0.200471  25.280935  -6.495773
    12  C   -0.000542   0.000101  -7.941077  -2.786328  -6.495773  29.722936
    13  C    0.014861  -0.002749  -1.940255  -6.413035   2.875684 -10.687888
    14  H   -0.001048  -0.000060   0.030099   0.012503   0.003235   0.039836
    15  H   -0.002642   0.002158   0.010578   0.001305  -0.000386  -0.000513
    16  H   -0.074751  -0.001167  -0.000122   0.000086   0.000038   0.000013
    17  H   -0.029586  -0.005809   0.000292   0.000243  -0.000139   0.000134
    18  H    0.427162  -0.044312  -0.000466  -0.000032   0.000016  -0.000008
    19  H    0.398443  -0.013929   0.000064   0.000021  -0.000018   0.000030
    20  H   -0.031844   0.423099  -0.000073  -0.000003  -0.000001   0.000001
    21  H   -0.087870   0.395891   0.000024   0.000001   0.000000  -0.000000
    22  H   -0.023239   0.391279  -0.000033  -0.000003   0.000000  -0.000000
    23  H   -0.000165   0.000022   0.294954  -0.019770   0.016264   0.013662
    24  C    0.000006  -0.000000   0.291240   0.824492  -0.678010   0.200517
    25  H   -0.000000  -0.000000  -0.010765  -0.026489   0.036959   0.284909
    26  H   -0.000014  -0.000001   0.011580   0.007627   0.021569   0.081227
    27  F    0.000000  -0.000000  -0.002281  -0.044485   0.073324  -0.129485
    28  F   -0.000000   0.000000  -0.005959  -0.039494   0.038210  -0.019980
    29  F   -0.000000  -0.000000   0.012506  -0.036653   0.034694  -0.100179
    30  S   -0.000025  -0.000003  -0.821701  -1.789163   0.206173   0.924052
    31  O    0.000000  -0.000000  -0.054384  -0.276302  -0.173830   0.146000
    32  O    0.000000  -0.000000   0.173385   0.443538   0.010315  -0.744183
    33  H    0.000001  -0.000000   0.000057   0.399630  -0.015186  -0.061277
              13         14         15         16         17         18
     1  C   -2.776735  -0.039185   0.008982   0.007271  -0.006777   0.004054
     2  N    0.088530   0.265499   0.030253   0.003595   0.005735   0.000026
     3  C   -2.349359  -0.025513   0.033899   0.064423   0.028746   0.036578
     4  O   -0.093608   0.002556   0.002470  -0.000850  -0.008486  -0.000273
     5  N   -0.087010   0.018505   0.262273  -0.073134  -0.038645  -0.000881
     6  C   -0.296064   0.004051  -0.068146   0.390139   0.393790  -0.091810
     7  C    0.014861  -0.001048  -0.002642  -0.074751  -0.029586   0.427162
     8  C   -0.002749  -0.000060   0.002158  -0.001167  -0.005809  -0.044312
     9  C   -1.940255   0.030099   0.010578  -0.000122   0.000292  -0.000466
    10  C   -6.413035   0.012503   0.001305   0.000086   0.000243  -0.000032
    11  C    2.875684   0.003235  -0.000386   0.000038  -0.000139   0.000016
    12  C  -10.687888   0.039836  -0.000513   0.000013   0.000134  -0.000008
    13  C   28.302763  -0.049788  -0.012972  -0.000058   0.000024   0.000441
    14  H   -0.049788   0.271950   0.001081   0.000003  -0.000003  -0.000004
    15  H   -0.012972   0.001081   0.305453   0.001475   0.002227   0.000378
    16  H   -0.000058   0.000003   0.001475   0.511126  -0.033317   0.003433
    17  H    0.000024  -0.000003   0.002227  -0.033317   0.463641  -0.003172
    18  H    0.000441  -0.000004   0.000378   0.003433  -0.003172   0.498482
    19  H   -0.000125   0.000003   0.001788  -0.003928   0.003111  -0.034405
    20  H    0.000010   0.000000  -0.000002   0.000077   0.001323  -0.003443
    21  H   -0.000009  -0.000000   0.000000  -0.000113  -0.000096  -0.002638
    22  H    0.000014  -0.000000   0.000006   0.001359   0.000289   0.003253
    23  H   -0.028531  -0.000078  -0.000001   0.000000  -0.000002  -0.000000
    24  C    0.051749  -0.000035  -0.000000  -0.000000   0.000000  -0.000000
    25  H    0.022493  -0.000007   0.000000  -0.000000  -0.000000   0.000000
    26  H    0.073736   0.005156   0.000003   0.000000  -0.000000  -0.000000
    27  F    0.065147   0.000000   0.000000   0.000000  -0.000000   0.000000
    28  F   -0.002653  -0.000000  -0.000000   0.000000  -0.000000   0.000000
    29  F    0.033940  -0.000000   0.000000   0.000000  -0.000000   0.000000
    30  S   -0.031419   0.000695  -0.000004   0.000000  -0.000002   0.000000
    31  O    0.168612   0.000000  -0.000000   0.000000  -0.000000   0.000000
    32  O    0.064928   0.000001  -0.000000   0.000000  -0.000000   0.000000
    33  H   -0.006036   0.000002  -0.000000   0.000000  -0.000000   0.000000
              19         20         21         22         23         24
     1  C   -0.003544  -0.000169  -0.000012   0.000268  -0.005647   0.318801
     2  N    0.000217  -0.000049   0.000011   0.000001  -0.006272  -0.001509
     3  C   -0.023659  -0.008942   0.001653   0.008392   0.062317   0.010985
     4  O   -0.000274  -0.000077   0.000013  -0.000041  -0.010732   0.000101
     5  N    0.001858  -0.000770   0.000327  -0.000620   0.001018  -0.000326
     6  C   -0.033783  -0.026255   0.051984  -0.021196   0.005717   0.000062
     7  C    0.398443  -0.031844  -0.087870  -0.023239  -0.000165   0.000006
     8  C   -0.013929   0.423099   0.395891   0.391279   0.000022  -0.000000
     9  C    0.000064  -0.000073   0.000024  -0.000033   0.294954   0.291240
    10  C    0.000021  -0.000003   0.000001  -0.000003  -0.019770   0.824492
    11  C   -0.000018  -0.000001   0.000000   0.000000   0.016264  -0.678010
    12  C    0.000030   0.000001  -0.000000  -0.000000   0.013662   0.200517
    13  C   -0.000125   0.000010  -0.000009   0.000014  -0.028531   0.051749
    14  H    0.000003   0.000000  -0.000000  -0.000000  -0.000078  -0.000035
    15  H    0.001788  -0.000002   0.000000   0.000006  -0.000001  -0.000000
    16  H   -0.003928   0.000077  -0.000113   0.001359   0.000000  -0.000000
    17  H    0.003111   0.001323  -0.000096   0.000289  -0.000002   0.000000
    18  H   -0.034405  -0.003443  -0.002638   0.003253  -0.000000  -0.000000
    19  H    0.528800   0.003531  -0.002746  -0.003429  -0.000000   0.000000
    20  H    0.003531   0.499477  -0.024658  -0.030378  -0.000000   0.000000
    21  H   -0.002746  -0.024658   0.492542  -0.025289   0.000000  -0.000000
    22  H   -0.003429  -0.030378  -0.025289   0.501864  -0.000000  -0.000000
    23  H   -0.000000  -0.000000   0.000000  -0.000000   0.357113  -0.000221
    24  C    0.000000   0.000000  -0.000000  -0.000000  -0.000221   5.732330
    25  H   -0.000000   0.000000  -0.000000   0.000000   0.000007   0.000375
    26  H   -0.000000  -0.000000   0.000000  -0.000000  -0.000076  -0.000696
    27  F   -0.000000  -0.000000   0.000000   0.000000   0.000001   0.059195
    28  F   -0.000000  -0.000000  -0.000000   0.000000  -0.000000   0.095337
    29  F   -0.000000  -0.000000   0.000000   0.000000  -0.000026   0.049949
    30  S   -0.000000  -0.000000   0.000000   0.000000   0.001653  -1.779918
    31  O   -0.000000  -0.000000  -0.000000   0.000000  -0.000043  -0.149430
    32  O   -0.000000  -0.000000   0.000000   0.000000   0.000016  -0.140343
    33  H   -0.000000  -0.000000  -0.000000   0.000000  -0.000596  -0.000766
              25         26         27         28         29         30
     1  C   -0.000136   0.138105  -0.047665  -0.005547  -0.035488  -0.988202
     2  N   -0.000187  -0.010051   0.000040   0.000006   0.000029   0.004145
     3  C    0.001389  -0.008873  -0.001241  -0.000014  -0.001427  -0.078180
     4  O   -0.000003   0.000096   0.000000  -0.000000   0.000009  -0.000506
     5  N   -0.000010   0.000394   0.000002   0.000000   0.000003   0.003080
     6  C    0.000010  -0.000300  -0.000006   0.000000  -0.000009  -0.001000
     7  C   -0.000000  -0.000014   0.000000  -0.000000  -0.000000  -0.000025
     8  C   -0.000000  -0.000001  -0.000000   0.000000  -0.000000  -0.000003
     9  C   -0.010765   0.011580  -0.002281  -0.005959   0.012506  -0.821701
    10  C   -0.026489   0.007627  -0.044485  -0.039494  -0.036653  -1.789163
    11  C    0.036959   0.021569   0.073324   0.038210   0.034694   0.206173
    12  C    0.284909   0.081227  -0.129485  -0.019980  -0.100179   0.924052
    13  C    0.022493   0.073736   0.065147  -0.002653   0.033940  -0.031419
    14  H   -0.000007   0.005156   0.000000  -0.000000  -0.000000   0.000695
    15  H    0.000000   0.000003   0.000000  -0.000000   0.000000  -0.000004
    16  H   -0.000000   0.000000   0.000000   0.000000   0.000000   0.000000
    17  H   -0.000000  -0.000000  -0.000000  -0.000000  -0.000000  -0.000002
    18  H    0.000000  -0.000000   0.000000   0.000000   0.000000   0.000000
    19  H   -0.000000  -0.000000  -0.000000  -0.000000  -0.000000  -0.000000
    20  H    0.000000  -0.000000  -0.000000  -0.000000  -0.000000  -0.000000
    21  H   -0.000000   0.000000   0.000000  -0.000000   0.000000   0.000000
    22  H    0.000000  -0.000000   0.000000   0.000000   0.000000   0.000000
    23  H    0.000007  -0.000076   0.000001  -0.000000  -0.000026   0.001653
    24  C    0.000375  -0.000696   0.059195   0.095337   0.049949  -1.779918
    25  H    0.377220  -0.001080   0.000162   0.000002   0.000024   0.016691
    26  H   -0.001080   0.437962  -0.000023  -0.000000   0.000002   0.009142
    27  F    0.000162  -0.000023   9.282479  -0.012186  -0.008110   0.099954
    28  F    0.000002  -0.000000  -0.012186   9.254276  -0.013135   0.071332
    29  F    0.000024   0.000002  -0.008110  -0.013135   9.280038   0.111207
    30  S    0.016691   0.009142   0.099954   0.071332   0.111207  17.587125
    31  O    0.000325   0.000030   0.012686   0.003969   0.016361   0.509591
    32  O    0.002090   0.000015   0.015281   0.004765   0.012743   0.395244
    33  H   -0.000076   0.000009   0.000024   0.000004   0.000325   0.028789
              31         32         33
     1  C   -0.034228  -0.051945  -0.019972
     2  N    0.000033  -0.000145  -0.000234
     3  C   -0.002829  -0.002248  -0.001027
     4  O   -0.000004   0.000003  -0.000019
     5  N    0.000004   0.000003   0.000006
     6  C   -0.000018  -0.000015  -0.000045
     7  C    0.000000   0.000000   0.000001
     8  C   -0.000000  -0.000000  -0.000000
     9  C   -0.054384   0.173385   0.000057
    10  C   -0.276302   0.443538   0.399630
    11  C   -0.173830   0.010315  -0.015186
    12  C    0.146000  -0.744183  -0.061277
    13  C    0.168612   0.064928  -0.006036
    14  H    0.000000   0.000001   0.000002
    15  H   -0.000000  -0.000000  -0.000000
    16  H    0.000000   0.000000   0.000000
    17  H   -0.000000  -0.000000  -0.000000
    18  H    0.000000   0.000000   0.000000
    19  H   -0.000000  -0.000000  -0.000000
    20  H   -0.000000  -0.000000  -0.000000
    21  H   -0.000000   0.000000  -0.000000
    22  H    0.000000   0.000000   0.000000
    23  H   -0.000043   0.000016  -0.000596
    24  C   -0.149430  -0.140343  -0.000766
    25  H    0.000325   0.002090  -0.000076
    26  H    0.000030   0.000015   0.000009
    27  F    0.012686   0.015281   0.000024
    28  F    0.003969   0.004765   0.000004
    29  F    0.016361   0.012743   0.000325
    30  S    0.509591   0.395244   0.028789
    31  O    8.550142  -0.097251   0.003431
    32  O   -0.097251   8.556720   0.000255
    33  H    0.003431   0.000255   0.376312
 Mulliken charges:
               1
     1  C    0.226457
     2  N   -0.806172
     3  C    0.709410
     4  O   -0.627569
     5  N   -0.687588
     6  C   -0.067027
     7  C   -0.279381
     8  C   -0.673158
     9  C    0.041619
    10  C   -0.002334
    11  C   -0.406924
    12  C   -0.170836
    13  C   -0.984639
    14  H    0.460548
    15  H    0.420335
    16  H    0.204402
    17  H    0.226483
    18  H    0.207622
    19  H    0.181976
    20  H    0.199148
    21  H    0.200984
    22  H    0.197501
    23  H    0.319417
    24  C    1.116113
    25  H    0.296097
    26  H    0.234463
    27  F   -0.362813
    28  F   -0.368933
    29  F   -0.356801
    30  S    1.521251
    31  O   -0.622866
    32  O   -0.643172
    33  H    0.296388
 Sum of Mulliken charges =  -0.00000
 Mulliken charges with hydrogens summed into heavy atoms:
               1
     1  C    0.226457
     2  N   -0.345624
     3  C    0.709410
     4  O   -0.627569
     5  N   -0.267253
     6  C    0.363858
     7  C    0.110216
     8  C   -0.075525
     9  C    0.361036
    10  C    0.294054
    11  C   -0.406924
    12  C    0.125261
    13  C   -0.750176
    24  C    1.116113
    27  F   -0.362813
    28  F   -0.368933
    29  F   -0.356801
    30  S    1.521251
    31  O   -0.622866
    32  O   -0.643172
 Electronic spatial extent (au):  <R**2>=          10962.5697
 Charge=             -0.0000 electrons
 Dipole moment (field-independent basis, Debye):
    X=              8.7429    Y=              3.3832    Z=              2.6813  Tot=              9.7506
 Quadrupole moment (field-independent basis, Debye-Ang):
   XX=           -124.0851   YY=           -122.7127   ZZ=           -129.6465
   XY=             15.6272   XZ=             -5.5676   YZ=              2.7995
 Traceless Quadrupole moment (field-independent basis, Debye-Ang):
   XX=              1.3964   YY=              2.7687   ZZ=             -4.1651
   XY=             15.6272   XZ=             -5.5676   YZ=              2.7995
 Octapole moment (field-independent basis, Debye-Ang**2):
  XXX=            207.6037  YYY=             -4.0684  ZZZ=             25.1146  XYY=             -5.3047
  XXY=             11.4634  XXZ=             51.5482  XZZ=            -10.7642  YZZ=             -5.0640
  YYZ=             17.5170  XYZ=             -1.0741
 Hexadecapole moment (field-independent basis, Debye-Ang**3):
 XXXX=         -12055.1686 YYYY=           -738.8444 ZZZZ=           -601.8352 XXXY=            281.5117
 XXXZ=           -192.2146 YYYX=            122.3163 YYYZ=             17.7698 ZZZX=           -114.2527
 ZZZY=            -18.4812 XXYY=          -2278.8244 XXZZ=          -2283.2122 YYZZ=           -219.0593
 XXYZ=            -22.5302 YYXZ=            -22.4931 ZZXY=             10.1767
 N-N= 1.747191673925D+03 E-N=-6.923472950487D+03  KE= 1.450298559552D+03
 1\1\GINC-R4503\SP\RMP2-FC\Gen\C11H13F3N2O3S1\ROOT\30-Nov-2019\0\\# MP2
 /Gen 6D SCF=Tight INT(grid=ultrafine) maxdisk=3489660928\\CP21.MP2_6-3
 1pGd\\0,1\C,0,-6.1044543489,1.2545902395,0.3631341035\N,0,-4.848973513
 7,0.6573868288,0.2837678461\C,0,-3.6261917011,1.2810695458,0.028464056
 \O,0,-3.5111289552,2.4588492034,-0.2250195425\N,0,-2.5662839242,0.4130
 66957,0.061240026\C,0,-1.2153797956,0.9403401283,-0.0899085938\C,0,-0.
 2162148296,-0.1958797023,-0.2497600858\C,0,1.2057893477,0.3300787647,-
 0.4177627534\C,0,-6.3008839983,2.6438345306,0.3640095699\C,0,-7.586126
 1431,3.1497409178,0.4727686925\C,0,-8.6682484411,2.2817056035,0.576681
 7331\C,0,-8.4916388752,0.9005330639,0.5781965004\C,0,-7.211237329,0.39
 56353252,0.4717054416\H,0,-4.8508404271,-0.3517187462,0.2778444281\H,0
 ,-2.6594795947,-0.4389022026,0.595204607\H,0,-0.9499449328,1.570506853
 3,0.767007523\H,0,-1.2096051222,1.5839919268,-0.9709875344\H,0,-0.5013
 216011,-0.8023170952,-1.1145218908\H,0,-0.2623103482,-0.852278182,0.62
 74062036\H,0,1.2856482106,0.9685251527,-1.3006389909\H,0,1.9185520921,
 -0.4876351675,-0.5329551588\H,0,1.5133618968,0.9207506868,0.4483649138
 \H,0,-5.456449568,3.3092109411,0.2786368211\C,0,-10.76703803,3.0768886
 995,-1.1256340199\H,0,-9.3473399474,0.242229394,0.6723739298\H,0,-7.05
 84916298,-0.6789044537,0.4784756485\F,0,-10.719811282,1.8813726111,-1.
 6998743749\F,0,-11.9938616485,3.5588062002,-1.2166817861\F,0,-9.926364
 8575,3.8888187982,-1.7523336083\S,0,-10.2971581173,2.9370590805,0.6757
 292013\O,0,-10.2531086353,4.2999536823,1.1603223623\O,0,-11.1929336704
 ,1.9392994818,1.2219731001\H,0,-7.7519602798,4.2209209328,0.4872016321
 \\Version=ES64L-G09RevE.01\State=1-A\HF=-1453.4086181\MP2=-1456.366514
 \RMSD=4.123e-09\PG=C01 [X(C11H13F3N2O3S1)]\\@


 KNOWING HOW CONTENTED, FREE, AND JOYFUL IS LIFE IN
 THE REALMS OF SCIENCE, ONE FERVENTLY WISHES THAT
 MANY WOULD ENTER HER PORTALS.
   --  DMITRI IVANOVICH MENDELEEV
 "FIRST PRINCIPLES OF CHEMISTRY", LONGMANS, GREEN,
 AND CO.  LONDON, 1891
 Job cpu time:       0 days  0 hours 18 minutes 16.3 seconds.
 File lengths (MBytes):  RWF=     92 Int=      0 D2E=      0 Chk=     11 Scr=      1
 Normal termination of Gaussian 09 at Sat Nov 30 15:06:34 2019.
pbs_rusage has been removed.
Please contact help@nci.org.au if you require this functionality.
