 Entering Gaussian System, Link 0=/apps/gaussian/g09e01/g09/g09
 Initial command:
 /apps/gaussian/g09e01/g09/l1.exe "/jobfs/local/3579048.r-man2/Gau-53067.inp" -scrdir="/jobfs/local/3579048.r-man2/"
 Entering Link 1 = /apps/gaussian/g09e01/g09/l1.exe PID=     53068.
  
 Copyright (c) 1988,1990,1992,1993,1995,1998,2003,2009,2015,
            Gaussian, Inc.  All Rights Reserved.
  
 This is part of the Gaussian(R) 09 program.  It is based on
 the Gaussian(R) 03 system (copyright 2003, Gaussian, Inc.),
 the Gaussian(R) 98 system (copyright 1998, Gaussian, Inc.),
 the Gaussian(R) 94 system (copyright 1995, Gaussian, Inc.),
 the Gaussian 92(TM) system (copyright 1992, Gaussian, Inc.),
 the Gaussian 90(TM) system (copyright 1990, Gaussian, Inc.),
 the Gaussian 88(TM) system (copyright 1988, Gaussian, Inc.),
 the Gaussian 86(TM) system (copyright 1986, Carnegie Mellon
 University), and the Gaussian 82(TM) system (copyright 1983,
 Carnegie Mellon University). Gaussian is a federally registered
 trademark of Gaussian, Inc.
  
 This software contains proprietary and confidential information,
 including trade secrets, belonging to Gaussian, Inc.
  
 This software is provided under written license and may be
 used, copied, transmitted, or stored only in accord with that
 written license.
  
 The following legend is applicable only to US Government
 contracts under FAR:
  
                    RESTRICTED RIGHTS LEGEND
  
 Use, reproduction and disclosure by the US Government is
 subject to restrictions as set forth in subparagraphs (a)
 and (c) of the Commercial Computer Software - Restricted
 Rights clause in FAR 52.227-19.
  
 Gaussian, Inc.
 340 Quinnipiac St., Bldg. 40, Wallingford CT 06492
  
  
 ---------------------------------------------------------------
 Warning -- This program may not be used in any manner that
 competes with the business of Gaussian, Inc. or will provide
 assistance to any competitor of Gaussian, Inc.  The licensee
 of this program is prohibited from giving any competitor of
 Gaussian, Inc. access to this program.  By using this program,
 the user acknowledges that Gaussian, Inc. is engaged in the
 business of creating and licensing software in the field of
 computational chemistry and represents and warrants to the
 licensee that it is not a competitor of Gaussian, Inc. and that
 it will not use this program in any manner prohibited above.
 ---------------------------------------------------------------
  

 Cite this work as:
 Gaussian 09, Revision E.01,
 M. J. Frisch, G. W. Trucks, H. B. Schlegel, G. E. Scuseria, 
 M. A. Robb, J. R. Cheeseman, G. Scalmani, V. Barone, B. Mennucci, 
 G. A. Petersson, H. Nakatsuji, M. Caricato, X. Li, H. P. Hratchian, 
 A. F. Izmaylov, J. Bloino, G. Zheng, J. L. Sonnenberg, M. Hada, 
 M. Ehara, K. Toyota, R. Fukuda, J. Hasegawa, M. Ishida, T. Nakajima, 
 Y. Honda, O. Kitao, H. Nakai, T. Vreven, J. A. Montgomery, Jr., 
 J. E. Peralta, F. Ogliaro, M. Bearpark, J. J. Heyd, E. Brothers, 
 K. N. Kudin, V. N. Staroverov, T. Keith, R. Kobayashi, J. Normand, 
 K. Raghavachari, A. Rendell, J. C. Burant, S. S. Iyengar, J. Tomasi, 
 M. Cossi, N. Rega, J. M. Millam, M. Klene, J. E. Knox, J. B. Cross, 
 V. Bakken, C. Adamo, J. Jaramillo, R. Gomperts, R. E. Stratmann, 
 O. Yazyev, A. J. Austin, R. Cammi, C. Pomelli, J. W. Ochterski, 
 R. L. Martin, K. Morokuma, V. G. Zakrzewski, G. A. Voth, 
 P. Salvador, J. J. Dannenberg, S. Dapprich, A. D. Daniels, 
 O. Farkas, J. B. Foresman, J. V. Ortiz, J. Cioslowski, 
 and D. J. Fox, Gaussian, Inc., Wallingford CT, 2013.
 
 ******************************************
 Gaussian 09:  ES64L-G09RevE.01 30-Nov-2015
                14-Nov-2019 
 ******************************************
 %chk=CP21.M062X_6-311pGd_opt_water_GD3.chk
 %mem=196608000
 %nproc=4
 Will use up to    4 processors via shared memory.
 ----------------------------------------------------------------------
 # M062X/6-311+G* SCF=Tight INT(grid=ultrafine) OPT IOP(2/17=4) Empiric
 alDispersion=GD3 SCRF=(SMD,Solvent=h2o) maxdisk=2684354560
 ----------------------------------------------------------------------
 1/14=-1,18=20,19=15,26=4,38=1/1,3;
 2/9=110,12=2,17=4,18=5,40=1/2;
 3/5=4,6=6,7=11,11=2,16=1,25=1,30=1,70=32201,71=1,72=1,74=-55,75=-5,124=31/1,2,3;
 4//1;
 5/5=2,32=2,38=5,53=1/2;
 6/7=2,8=2,9=2,10=2,28=1/1;
 7//1,2,3,16;
 1/14=-1,18=20,19=15,26=4/3(2);
 2/9=110,17=4/2;
 99//99;
 2/9=110,17=4/2;
 3/5=4,6=6,7=11,11=2,16=1,25=1,30=1,70=32205,71=1,72=1,74=-55,75=-5,124=31/1,2,3;
 4/5=5,16=3,69=1/1;
 5/5=2,32=2,38=5,53=1/2;
 7//1,2,3,16;
 1/14=-1,18=20,19=15,26=4/3(-5);
 2/9=110,17=4/2;
 6/7=2,8=2,9=2,10=2,19=2,28=1/1;
 99/9=1/99;
 ---------------------------------
 CP21.M062X_6-311pGd_opt_water_GD3
 ---------------------------------
 Symbolic Z-matrix:
 Charge =  0 Multiplicity = 1
 C                    -6.08538   1.29728   0.33621 
 N                    -4.83867   0.70741   0.21602 
 C                    -3.60131   1.32434   0.08757 
 O                    -3.45943   2.54671   0.05321 
 N                    -2.56523   0.4697    0.00572 
 C                    -1.20031   0.95676  -0.15415 
 C                    -0.22551  -0.20851  -0.17531 
 C                     1.20703   0.27805  -0.3553 
 C                    -6.30813   2.68533   0.32544 
 C                    -7.59586   3.17572   0.45308 
 C                    -8.66079   2.28844   0.59601 
 C                    -8.46345   0.90534   0.6027 
 C                    -7.1802    0.42107   0.47736 
 H                    -4.83735  -0.30562   0.23151 
 H                    -2.72238  -0.52901   0.02702 
 H                    -0.96069   1.63449   0.66965 
 H                    -1.12429   1.53037  -1.0826 
 H                    -0.49525  -0.89002  -0.9882 
 H                    -0.31692  -0.7713    0.75881 
 H                     1.32179   0.82118  -1.29684 
 H                     1.90781  -0.55872  -0.36465 
 H                     1.49835   0.94964   0.45636 
 H                    -5.48598   3.37375   0.22068 
 C                    -10.80384   3.03487  -1.10152 
 H                    -9.29752   0.22251   0.7127 
 H                    -7.00708  -0.64914   0.49032 
 F                    -10.76209   1.8375   -1.66273 
 F                    -12.03977   3.50448  -1.15319 
 F                    -9.99295   3.85457  -1.75038 
 S                    -10.28381   2.91569   0.68645 
 O                    -10.28767   4.29302   1.15791 
 O                    -11.18943   1.93541   1.26757 
 H                    -7.76511   4.24623   0.447 
 

 GradGradGradGradGradGradGradGradGradGradGradGradGradGradGradGradGradGrad
 Berny optimization.
 Initialization pass.
                           ----------------------------
                           !    Initial Parameters    !
                           ! (Angstroms and Degrees)  !
 --------------------------                            --------------------------
 ! Name  Definition              Value          Derivative Info.                !
 --------------------------------------------------------------------------------
 ! R1    R(1,2)                  1.3844         estimate D2E/DX2                !
 ! R2    R(1,9)                  1.4059         estimate D2E/DX2                !
 ! R3    R(1,13)                 1.4094         estimate D2E/DX2                !
 ! R4    R(2,3)                  1.3886         estimate D2E/DX2                !
 ! R5    R(2,14)                 1.0131         estimate D2E/DX2                !
 ! R6    R(3,4)                  1.2311         estimate D2E/DX2                !
 ! R7    R(3,5)                  1.3456         estimate D2E/DX2                !
 ! R8    R(5,6)                  1.458          estimate D2E/DX2                !
 ! R9    R(5,15)                 1.0112         estimate D2E/DX2                !
 ! R10   R(6,7)                  1.5194         estimate D2E/DX2                !
 ! R11   R(6,16)                 1.0933         estimate D2E/DX2                !
 ! R12   R(6,17)                 1.094          estimate D2E/DX2                !
 ! R13   R(7,8)                  1.5236         estimate D2E/DX2                !
 ! R14   R(7,18)                 1.0945         estimate D2E/DX2                !
 ! R15   R(7,19)                 1.0944         estimate D2E/DX2                !
 ! R16   R(8,20)                 1.093          estimate D2E/DX2                !
 ! R17   R(8,21)                 1.0915         estimate D2E/DX2                !
 ! R18   R(8,22)                 1.093          estimate D2E/DX2                !
 ! R19   R(9,10)                 1.3838         estimate D2E/DX2                !
 ! R20   R(9,23)                 1.0774         estimate D2E/DX2                !
 ! R21   R(10,11)                1.3935         estimate D2E/DX2                !
 ! R22   R(10,33)                1.0838         estimate D2E/DX2                !
 ! R23   R(11,12)                1.3971         estimate D2E/DX2                !
 ! R24   R(11,30)                1.7424         estimate D2E/DX2                !
 ! R25   R(12,13)                1.3773         estimate D2E/DX2                !
 ! R26   R(12,25)                1.0835         estimate D2E/DX2                !
 ! R27   R(13,26)                1.0842         estimate D2E/DX2                !
 ! R28   R(24,27)                1.323          estimate D2E/DX2                !
 ! R29   R(24,28)                1.3232         estimate D2E/DX2                !
 ! R30   R(24,29)                1.323          estimate D2E/DX2                !
 ! R31   R(24,30)                1.8659         estimate D2E/DX2                !
 ! R32   R(30,31)                1.4558         estimate D2E/DX2                !
 ! R33   R(30,32)                1.4556         estimate D2E/DX2                !
 ! A1    A(2,1,9)              124.242          estimate D2E/DX2                !
 ! A2    A(2,1,13)             116.3171         estimate D2E/DX2                !
 ! A3    A(9,1,13)             119.4409         estimate D2E/DX2                !
 ! A4    A(1,2,3)              128.4027         estimate D2E/DX2                !
 ! A5    A(1,2,14)             115.2056         estimate D2E/DX2                !
 ! A6    A(3,2,14)             116.3901         estimate D2E/DX2                !
 ! A7    A(2,3,4)              123.1222         estimate D2E/DX2                !
 ! A8    A(2,3,5)              114.1785         estimate D2E/DX2                !
 ! A9    A(4,3,5)              122.6992         estimate D2E/DX2                !
 ! A10   A(3,5,6)              121.0191         estimate D2E/DX2                !
 ! A11   A(3,5,15)             120.4209         estimate D2E/DX2                !
 ! A12   A(6,5,15)             118.5362         estimate D2E/DX2                !
 ! A13   A(5,6,7)              110.2392         estimate D2E/DX2                !
 ! A14   A(5,6,16)             109.246          estimate D2E/DX2                !
 ! A15   A(5,6,17)             109.467          estimate D2E/DX2                !
 ! A16   A(7,6,16)             110.1989         estimate D2E/DX2                !
 ! A17   A(7,6,17)             110.226          estimate D2E/DX2                !
 ! A18   A(16,6,17)            107.4106         estimate D2E/DX2                !
 ! A19   A(6,7,8)              111.0977         estimate D2E/DX2                !
 ! A20   A(6,7,18)             109.2541         estimate D2E/DX2                !
 ! A21   A(6,7,19)             109.2037         estimate D2E/DX2                !
 ! A22   A(8,7,18)             110.0487         estimate D2E/DX2                !
 ! A23   A(8,7,19)             110.0964         estimate D2E/DX2                !
 ! A24   A(18,7,19)            107.0463         estimate D2E/DX2                !
 ! A25   A(7,8,20)             111.0494         estimate D2E/DX2                !
 ! A26   A(7,8,21)             111.0913         estimate D2E/DX2                !
 ! A27   A(7,8,22)             111.0443         estimate D2E/DX2                !
 ! A28   A(20,8,21)            107.8281         estimate D2E/DX2                !
 ! A29   A(20,8,22)            107.8412         estimate D2E/DX2                !
 ! A30   A(21,8,22)            107.8357         estimate D2E/DX2                !
 ! A31   A(1,9,10)             119.776          estimate D2E/DX2                !
 ! A32   A(1,9,23)             120.7105         estimate D2E/DX2                !
 ! A33   A(10,9,23)            119.5133         estimate D2E/DX2                !
 ! A34   A(9,10,11)            119.6676         estimate D2E/DX2                !
 ! A35   A(9,10,33)            119.6569         estimate D2E/DX2                !
 ! A36   A(11,10,33)           120.6743         estimate D2E/DX2                !
 ! A37   A(10,11,12)           121.5265         estimate D2E/DX2                !
 ! A38   A(10,11,30)           119.2076         estimate D2E/DX2                !
 ! A39   A(12,11,30)           119.1907         estimate D2E/DX2                !
 ! A40   A(11,12,13)           118.6365         estimate D2E/DX2                !
 ! A41   A(11,12,25)           121.0388         estimate D2E/DX2                !
 ! A42   A(13,12,25)           120.3225         estimate D2E/DX2                !
 ! A43   A(1,13,12)            120.9497         estimate D2E/DX2                !
 ! A44   A(1,13,26)            119.3963         estimate D2E/DX2                !
 ! A45   A(12,13,26)           119.6538         estimate D2E/DX2                !
 ! A46   A(27,24,28)           109.5188         estimate D2E/DX2                !
 ! A47   A(27,24,29)           109.4716         estimate D2E/DX2                !
 ! A48   A(27,24,30)           109.8689         estimate D2E/DX2                !
 ! A49   A(28,24,29)           109.4786         estimate D2E/DX2                !
 ! A50   A(28,24,30)           108.6888         estimate D2E/DX2                !
 ! A51   A(29,24,30)           109.7982         estimate D2E/DX2                !
 ! A52   A(11,30,24)           103.4663         estimate D2E/DX2                !
 ! A53   A(11,30,31)           111.093          estimate D2E/DX2                !
 ! A54   A(11,30,32)           110.9666         estimate D2E/DX2                !
 ! A55   A(24,30,31)           104.4275         estimate D2E/DX2                !
 ! A56   A(24,30,32)           104.6062         estimate D2E/DX2                !
 ! A57   A(31,30,32)           120.412          estimate D2E/DX2                !
 ! D1    D(9,1,2,3)              1.1019         estimate D2E/DX2                !
 ! D2    D(9,1,2,14)          -179.3895         estimate D2E/DX2                !
 ! D3    D(13,1,2,3)          -178.8729         estimate D2E/DX2                !
 ! D4    D(13,1,2,14)            0.6357         estimate D2E/DX2                !
 ! D5    D(2,1,9,10)          -179.976          estimate D2E/DX2                !
 ! D6    D(2,1,9,23)            -0.097          estimate D2E/DX2                !
 ! D7    D(13,1,9,10)           -0.0019         estimate D2E/DX2                !
 ! D8    D(13,1,9,23)          179.8771         estimate D2E/DX2                !
 ! D9    D(2,1,13,12)         -179.9272         estimate D2E/DX2                !
 ! D10   D(2,1,13,26)            0.266          estimate D2E/DX2                !
 ! D11   D(9,1,13,12)            0.0967         estimate D2E/DX2                !
 ! D12   D(9,1,13,26)         -179.7101         estimate D2E/DX2                !
 ! D13   D(1,2,3,4)             -0.5996         estimate D2E/DX2                !
 ! D14   D(1,2,3,5)            179.2915         estimate D2E/DX2                !
 ! D15   D(14,2,3,4)           179.8967         estimate D2E/DX2                !
 ! D16   D(14,2,3,5)            -0.2122         estimate D2E/DX2                !
 ! D17   D(2,3,5,6)            179.0048         estimate D2E/DX2                !
 ! D18   D(2,3,5,15)             0.8023         estimate D2E/DX2                !
 ! D19   D(4,3,5,6)             -1.1036         estimate D2E/DX2                !
 ! D20   D(4,3,5,15)          -179.3061         estimate D2E/DX2                !
 ! D21   D(3,5,6,7)            178.2341         estimate D2E/DX2                !
 ! D22   D(3,5,6,16)            57.0014         estimate D2E/DX2                !
 ! D23   D(3,5,6,17)           -60.357          estimate D2E/DX2                !
 ! D24   D(15,5,6,7)            -3.5303         estimate D2E/DX2                !
 ! D25   D(15,5,6,16)         -124.763          estimate D2E/DX2                !
 ! D26   D(15,5,6,17)          117.8786         estimate D2E/DX2                !
 ! D27   D(5,6,7,8)            179.4507         estimate D2E/DX2                !
 ! D28   D(5,6,7,18)            57.8507         estimate D2E/DX2                !
 ! D29   D(5,6,7,19)           -58.9233         estimate D2E/DX2                !
 ! D30   D(16,6,7,8)           -59.8863         estimate D2E/DX2                !
 ! D31   D(16,6,7,18)          178.5136         estimate D2E/DX2                !
 ! D32   D(16,6,7,19)           61.7397         estimate D2E/DX2                !
 ! D33   D(17,6,7,8)            58.4944         estimate D2E/DX2                !
 ! D34   D(17,6,7,18)          -63.1056         estimate D2E/DX2                !
 ! D35   D(17,6,7,19)         -179.8795         estimate D2E/DX2                !
 ! D36   D(6,7,8,20)           -60.328          estimate D2E/DX2                !
 ! D37   D(6,7,8,21)           179.6691         estimate D2E/DX2                !
 ! D38   D(6,7,8,22)            59.6601         estimate D2E/DX2                !
 ! D39   D(18,7,8,20)           60.8066         estimate D2E/DX2                !
 ! D40   D(18,7,8,21)          -59.1964         estimate D2E/DX2                !
 ! D41   D(18,7,8,22)         -179.2054         estimate D2E/DX2                !
 ! D42   D(19,7,8,20)          178.5689         estimate D2E/DX2                !
 ! D43   D(19,7,8,21)           58.566          estimate D2E/DX2                !
 ! D44   D(19,7,8,22)          -61.443          estimate D2E/DX2                !
 ! D45   D(1,9,10,11)            0.2256         estimate D2E/DX2                !
 ! D46   D(1,9,10,33)          179.8492         estimate D2E/DX2                !
 ! D47   D(23,9,10,11)        -179.6549         estimate D2E/DX2                !
 ! D48   D(23,9,10,33)          -0.0313         estimate D2E/DX2                !
 ! D49   D(9,10,11,12)          -0.5533         estimate D2E/DX2                !
 ! D50   D(9,10,11,30)        -177.3727         estimate D2E/DX2                !
 ! D51   D(33,10,11,12)        179.827          estimate D2E/DX2                !
 ! D52   D(33,10,11,30)          3.0076         estimate D2E/DX2                !
 ! D53   D(10,11,12,13)          0.6402         estimate D2E/DX2                !
 ! D54   D(10,11,12,25)       -179.8968         estimate D2E/DX2                !
 ! D55   D(30,11,12,13)        177.4601         estimate D2E/DX2                !
 ! D56   D(30,11,12,25)         -3.0769         estimate D2E/DX2                !
 ! D57   D(10,11,30,24)         87.3258         estimate D2E/DX2                !
 ! D58   D(10,11,30,31)        -24.2026         estimate D2E/DX2                !
 ! D59   D(10,11,30,32)       -160.9926         estimate D2E/DX2                !
 ! D60   D(12,11,30,24)        -89.5687         estimate D2E/DX2                !
 ! D61   D(12,11,30,31)        158.9029         estimate D2E/DX2                !
 ! D62   D(12,11,30,32)         22.1129         estimate D2E/DX2                !
 ! D63   D(11,12,13,1)          -0.4072         estimate D2E/DX2                !
 ! D64   D(11,12,13,26)        179.3991         estimate D2E/DX2                !
 ! D65   D(25,12,13,1)        -179.8741         estimate D2E/DX2                !
 ! D66   D(25,12,13,26)         -0.0678         estimate D2E/DX2                !
 ! D67   D(27,24,30,11)         60.0679         estimate D2E/DX2                !
 ! D68   D(27,24,30,31)        176.4088         estimate D2E/DX2                !
 ! D69   D(27,24,30,32)        -56.2039         estimate D2E/DX2                !
 ! D70   D(28,24,30,11)        179.8881         estimate D2E/DX2                !
 ! D71   D(28,24,30,31)        -63.7709         estimate D2E/DX2                !
 ! D72   D(28,24,30,32)         63.6163         estimate D2E/DX2                !
 ! D73   D(29,24,30,11)        -60.3828         estimate D2E/DX2                !
 ! D74   D(29,24,30,31)         55.9581         estimate D2E/DX2                !
 ! D75   D(29,24,30,32)       -176.6546         estimate D2E/DX2                !
 --------------------------------------------------------------------------------
 Trust Radius=3.00D-01 FncErr=1.00D-07 GrdErr=1.00D-06
 Number of steps in this run=    175 maximum allowed number of steps=    198.
 GradGradGradGradGradGradGradGradGradGradGradGradGradGradGradGradGradGrad

                          Input orientation:                          
 ---------------------------------------------------------------------
 Center     Atomic      Atomic             Coordinates (Angstroms)
 Number     Number       Type             X           Y           Z
 ---------------------------------------------------------------------
      1          6           0       -6.085384    1.297281    0.336209
      2          7           0       -4.838672    0.707413    0.216021
      3          6           0       -3.601306    1.324335    0.087566
      4          8           0       -3.459427    2.546709    0.053214
      5          7           0       -2.565234    0.469704    0.005718
      6          6           0       -1.200314    0.956761   -0.154153
      7          6           0       -0.225510   -0.208514   -0.175309
      8          6           0        1.207032    0.278048   -0.355301
      9          6           0       -6.308130    2.685333    0.325443
     10          6           0       -7.595861    3.175720    0.453080
     11          6           0       -8.660792    2.288435    0.596014
     12          6           0       -8.463446    0.905341    0.602695
     13          6           0       -7.180198    0.421068    0.477357
     14          1           0       -4.837349   -0.305616    0.231513
     15          1           0       -2.722382   -0.529010    0.027021
     16          1           0       -0.960692    1.634490    0.669655
     17          1           0       -1.124294    1.530367   -1.082599
     18          1           0       -0.495249   -0.890018   -0.988202
     19          1           0       -0.316919   -0.771302    0.758807
     20          1           0        1.321788    0.821175   -1.296845
     21          1           0        1.907807   -0.558720   -0.364647
     22          1           0        1.498346    0.949644    0.456364
     23          1           0       -5.485978    3.373747    0.220681
     24          6           0      -10.803838    3.034874   -1.101521
     25          1           0       -9.297522    0.222508    0.712700
     26          1           0       -7.007079   -0.649142    0.490317
     27          9           0      -10.762092    1.837499   -1.662727
     28          9           0      -12.039773    3.504480   -1.153193
     29          9           0       -9.992953    3.854566   -1.750378
     30         16           0      -10.283806    2.915689    0.686454
     31          8           0      -10.287670    4.293023    1.157911
     32          8           0      -11.189426    1.935411    1.267568
     33          1           0       -7.765106    4.246231    0.446995
 ---------------------------------------------------------------------
                    Distance matrix (angstroms):
                    1          2          3          4          5
     1  C    0.000000
     2  N    1.384442   0.000000
     3  C    2.496638   1.388585   0.000000
     4  O    2.921781   2.304741   1.231059   0.000000
     5  N    3.631193   2.295485   1.345563   2.261811   0.000000
     6  C    4.921414   3.665631   2.440963   2.770294   1.458009
     7  C    6.071836   4.719462   3.716816   4.254608   2.442756
     8  C    7.395698   6.087799   4.940745   5.204762   3.794345
     9  C    1.405852   2.466465   3.039046   2.865037   4.361251
    10  C    2.413241   3.708211   4.417884   4.203050   5.729736
    11  C    2.771752   4.153628   5.175558   5.235984   6.388431
    12  C    2.424832   3.650710   4.907273   5.294925   5.944331
    13  C    1.409358   2.373402   3.711644   4.306087   4.639257
    14  H    2.034166   1.013148   2.050674   3.172730   2.411350
    15  H    3.839364   2.458281   2.052087   3.162905   1.011226
    16  H    5.146588   4.012977   2.721739   2.730535   2.090955
    17  H    5.165245   4.019984   2.747239   2.788524   2.094218
    18  H    6.147191   4.781972   3.963361   4.656393   2.668625
    19  H    6.142704   4.788263   3.953411   4.624113   2.676221
    20  H    7.599982   6.344522   5.138736   5.259291   4.114503
    21  H    8.235718   6.888777   5.839582   6.214942   4.604663
    22  H    7.592644   6.346198   5.126680   5.224238   4.116565
    23  H    2.164335   2.743787   2.787436   2.195210   4.124370
    24  C    5.229733   6.537293   7.497756   7.450644   8.699464
    25  H    3.408037   4.512557   5.835383   6.318242   6.773820
    26  H    2.159127   2.572444   3.956780   4.794825   4.606152
    27  F    5.114604   6.316145   7.389433   7.535008   8.476028
    28  F    6.522637   7.845647   8.803422   8.717515  10.015979
    29  F    5.114944   6.351214   7.115706   6.902927   8.349382
    30  S    4.513165   5.894682   6.895424   6.863620   8.125429
    31  O    5.225789   6.590549   7.393660   7.134064   8.693753
    32  O    5.227416   6.553305   7.703595   7.848644   8.838396
    33  H    3.395592   4.597891   5.099402   4.645677   6.441705
                    6          7          8          9         10
     6  C    0.000000
     7  C    1.519393   0.000000
     8  C    2.509268   1.523587   0.000000
     9  C    5.413664   6.754507   7.920612   0.000000
    10  C    6.796730   8.134493   9.302737   1.383843   0.000000
    11  C    7.615434   8.830836  10.115364   2.401198   1.393478
    12  C    7.302640   8.349224   9.738039   2.809026   2.435100
    13  C    6.036952   7.013560   8.429674   2.431148   2.785943
    14  H    3.869154   4.630765   6.100783   3.334336   4.447267
    15  H    2.134720   2.525475   4.029616   4.824795   6.136559
    16  H    1.093341   2.156645   2.754904   5.460572   6.815260
    17  H    1.093991   2.157474   2.744512   5.494423   6.851764
    18  H    2.145541   1.094533   2.159329   6.949704   8.308202
    19  H    2.144781   1.094377   2.159815   6.930422   8.285859
    20  H    2.772206   2.170768   1.093005   8.020134   9.387789
    21  H    3.464305   2.170147   1.091491   8.860120  10.243751
    22  H    2.766866   2.170719   1.093026   7.998176   9.362693
    23  H    4.934495   6.376670   7.396722   1.077415   2.131861
    24  C    9.871359  11.103083  12.345766   4.729672   3.567596
    25  H    8.176512   9.125554  10.558853   3.892549   3.418262
    26  H    6.059107   6.828388   8.309414   3.410929   3.870093
    27  F    9.720035  10.835964  12.140888   4.950698   4.036396
    28  F   11.179571  12.422535  13.657391   5.975708   4.736723
    29  F    9.394451  10.695438  11.839653   4.387945   3.325975
    30  S    9.330265  10.567525  11.835614   3.998673   2.710558
    31  O    9.768940  11.103529  12.269393   4.372002   2.998497
    32  O   10.137129  11.264357  12.611610   5.027626   3.887861
    33  H    7.367394   8.779380   9.843242   2.138681   1.083824
                   11         12         13         14         15
    11  C    0.000000
    12  C    1.397119   0.000000
    13  C    2.386063   1.377300   0.000000
    14  H    4.634725   3.840934   2.465249   0.000000
    15  H    6.597458   5.945467   4.580129   2.136541   0.000000
    16  H    7.728169   7.538399   6.339687   4.357115   2.863086
    17  H    7.758299   7.556059   6.351219   4.345630   2.833051
    18  H    8.904403   8.321444   6.968168   4.547864   2.474091
    19  H    8.888684   8.318739   6.971769   4.574844   2.525959
    20  H   10.265849   9.968256   8.694345   6.445192   4.464407
    21  H   10.987468  10.518656   9.179368   6.776179   4.646820
    22  H   10.247923   9.962965   8.694651   6.462760   4.492805
    23  H    3.376125   3.886423   3.413881   3.736114   4.786072
    24  C    2.833980   3.593981   4.738735   6.966695   8.904202
    25  H    2.164970   1.083533   2.139596   4.517035   6.653376
    26  H    3.372728   2.133085   1.084199   2.211948   4.311345
    27  F    3.117806   3.359290   4.406381   6.579032   8.549418
    28  F    3.994496   4.756972   5.981771   8.264935  10.221336
    29  F    3.119772   4.071152   4.966216   6.914857   8.673874
    30  S    1.742355   2.713342   3.987384   6.344105   8.335222
    31  O    2.642127   3.887473   5.011144   7.191084   9.042372
    32  O    2.640000   2.988990   4.357932   6.815019   8.905232
    33  H    2.158106   3.416646   3.869744   5.416410   6.957613
                   16         17         18         19         20
    16  H    0.000000
    17  H    1.762952   0.000000
    18  H    3.055858   2.502574   0.000000
    19  H    2.492033   3.056193   1.760096   0.000000
    20  H    3.120627   2.555811   2.514968   3.073605   0.000000
    21  H    3.756093   3.751450   2.504648   2.501349   1.765367
    22  H    2.561518   3.095786   3.073361   2.519586   1.766754
    23  H    4.868759   4.911301   6.674464   6.647570   7.427259
    24  C   10.098796   9.795789  11.031076  11.310317  12.327588
    25  H    8.455666   8.469667   9.033870   9.035542  10.824344
    26  H    6.465750   6.467726   6.681913   6.696659   8.644408
    27  F   10.077135   9.660125  10.644360  11.035004  12.132062
    28  F   11.382692  11.092780  12.353739  12.623920  13.629088
    29  F    9.610777   9.192439  10.644171  11.014550  11.723076
    30  S    9.410749   9.431082  10.635023  10.627228  11.958689
    31  O    9.710752   9.829527  11.285443  11.190288  12.363618
    32  O   10.250612  10.343801  11.288798  11.215905  12.819836
    33  H    7.291833   7.335936   9.016189   8.986009   9.866287
                   21         22         23         24         25
    21  H    0.000000
    22  H    1.765468   0.000000
    23  H    8.394937   7.396797   0.000000
    24  C   13.230375  12.574535   5.490236   0.000000
    25  H   11.284078  10.823364   4.969936   3.670121   0.000000
    26  H    8.956245   8.654450   4.309302   5.524609   2.460764
    27  F   12.959677  12.473859   5.809015   1.323028   3.224254
    28  F   14.548759  13.870779   6.697525   1.323153   4.666137
    29  F   12.768142  12.056460   4.942579   1.323044   4.443222
    30  S   12.720525  11.947274   4.842098   1.865876   2.868217
    31  O   13.213147  12.271125   4.977922   2.637120   4.212801
    32  O   13.432138  12.751836   5.974454   2.640091   2.611745
    33  H   10.831047   9.832554   2.450892   3.619279   4.313844
                   26         27         28         29         30
    26  H    0.000000
    27  F    4.991904   0.000000
    28  F    6.729169   2.161231   0.000000
    29  F    5.849747   2.160513   2.160708   0.000000
    30  S    4.845970   2.628669   2.610440   2.627591   0.000000
    31  O    5.969334   3.769705   3.005473   2.955884   1.455794
    32  O    4.977555   2.962909   3.007516   3.771299   1.455605
    33  H    4.953903   4.385754   4.624237   3.153594   2.858589
                   31         32         33
    31  O    0.000000
    32  O    2.526563   0.000000
    33  H    2.621244   4.211792   0.000000
 Stoichiometry    C11H13F3N2O3S
 Framework group  C1[X(C11H13F3N2O3S)]
 Deg. of freedom    93
 Full point group                 C1      NOp   1
 Largest Abelian subgroup         C1      NOp   1
 Largest concise Abelian subgroup C1      NOp   1
                         Standard orientation:                         
 ---------------------------------------------------------------------
 Center     Atomic      Atomic             Coordinates (Angstroms)
 Number     Number       Type             X           Y           Z
 ---------------------------------------------------------------------
      1          6           0        0.929086    0.550573   -0.134052
      2          7           0        2.280017    0.747981    0.095505
      3          6           0        3.330419   -0.132613   -0.126705
      4          8           0        3.172600   -1.268917   -0.573259
      5          7           0        4.541278    0.363683    0.186428
      6          6           0        5.746482   -0.442149    0.031812
      7          6           0        6.973522    0.368914    0.412739
      8          6           0        8.244255   -0.459631    0.271084
      9          6           0        0.377692   -0.641881   -0.634489
     10          6           0       -0.988945   -0.738329   -0.829481
     11          6           0       -1.806596    0.350172   -0.532167
     12          6           0       -1.281089    1.542354   -0.027700
     13          6           0        0.079745    1.635257    0.163225
     14          1           0        2.526052    1.657716    0.467417
     15          1           0        4.630143    1.298762    0.561007
     16          1           0        5.823921   -0.779398   -1.005329
     17          1           0        5.672114   -1.333807    0.661280
     18          1           0        6.867884    0.720608    1.443833
     19          1           0        7.030404    1.256615   -0.224765
     20          1           0        8.214697   -1.337969    0.920937
     21          1           0        9.126195    0.124888    0.539174
     22          1           0        8.373209   -0.807843   -0.756936
     23          1           0        1.008172   -1.483091   -0.870464
     24          6           0       -4.083971   -0.494090    0.928048
     25          1           0       -1.924434    2.383327    0.202334
     26          1           0        0.506265    2.556165    0.544664
     27          9           0       -3.760188    0.345776    1.897683
     28          9           0       -5.397191   -0.653739    0.901635
     29          9           0       -3.501769   -1.662391    1.143826
     30         16           0       -3.532010    0.192910   -0.716599
     31          8           0       -3.863415   -0.851164   -1.675460
     32          8           0       -4.168069    1.499484   -0.800728
     33          1           0       -1.411707   -1.657698   -1.217693
 ---------------------------------------------------------------------
 Rotational constants (GHZ):      1.0366541      0.0947411      0.0940127
 Standard basis: 6-311+G(d) (5D, 7F)
 There are   507 symmetry adapted cartesian basis functions of A   symmetry.
 There are   487 symmetry adapted basis functions of A   symmetry.
   487 basis functions,   799 primitive gaussians,   507 cartesian basis functions
    80 alpha electrons       80 beta electrons
       nuclear repulsion energy      1746.4803224473 Hartrees.
 NAtoms=   33 NActive=   33 NUniq=   33 SFac= 1.00D+00 NAtFMM=   60 NAOKFM=F Big=F
 Integral buffers will be    131072 words long.
 Raffenetti 2 integral format.
 Two-electron integral symmetry is turned on.
 Nuclear repulsion after empirical dispersion term =     1746.4787833852 Hartrees.
 ------------------------------------------------------------------------------
 Polarizable Continuum Model (PCM)
 =================================
 Model                : PCM (using non-symmetric T matrix).
 Atomic radii         : SMD-Coulomb.
 Polarization charges : Total charges.
 Charge compensation  : None.
 Solution method      : On-the-fly selection.
 Cavity type          : VdW (van der Waals Surface) (Alpha=1.000).
 Cavity algorithm     : GePol (No added spheres)
                        Default sphere list used, NSphG=   33.
                        Lebedev-Laikov grids with approx.  5.0 points / Ang**2.
                        Smoothing algorithm: York/Karplus (Gamma=1.0000).
                        Polarization charges: spherical gaussians, with
                                              point-specific exponents (IZeta= 3).
                        Self-potential: point-specific (ISelfS= 7).
                        Self-field    : sphere-specific E.n sum rule (ISelfD= 2).
 1st derivatives      : Analytical E(r).r(x)/FMM algorithm (CHGder, D1EAlg=3).
                        Cavity 1st derivative terms included.
 Solvent              : Water, Eps=  78.355300 Eps(inf)=   1.777849
 ------------------------------------------------------------------------------
 ------------------------------------------------------------------------------
 Atomic radii for non-electrostatic terms: SMD-CDS.
 ------------------------------------------------------------------------------
 Nuclear repulsion after PCM non-electrostatic terms =     1746.4897736733 Hartrees.
 One-electron integrals computed using PRISM.
 NBasis=   487 RedAO= T EigKep=  2.95D-06  NBF=   487
 NBsUse=   485 1.00D-06 EigRej=  9.84D-07 NBFU=   485
 ExpMin= 4.05D-02 ExpMax= 9.34D+04 ExpMxC= 3.17D+03 IAcc=3 IRadAn=         5 AccDes= 0.00D+00
 Harris functional with IExCor= 1009 and IRadAn=       5 diagonalized for initial guess.
 HarFok:  IExCor= 1009 AccDes= 0.00D+00 IRadAn=         5 IDoV= 1 UseB2=F ITyADJ=14
 ICtDFT=  3500011 ScaDFX=  1.000000  1.000000  1.000000  1.000000
 FoFCou: FMM=F IPFlag=           0 FMFlag=      100000 FMFlg1=           0
         NFxFlg=           0 DoJE=T BraDBF=F KetDBF=T FulRan=T
         wScrn=  0.000000 ICntrl=     500 IOpCl=  0 I1Cent=   200000004 NGrid=           0
         NMat0=    1 NMatS0=      1 NMatT0=    0 NMatD0=    1 NMtDS0=    0 NMtDT0=    0
 Petite list used in FoFCou.
 Requested convergence on RMS density matrix=1.00D-08 within 128 cycles.
 Requested convergence on MAX density matrix=1.00D-06.
 Requested convergence on             energy=1.00D-06.
 No special actions if energy rises.
 Inv3:  Mode=1 IEnd=    19005867.
 Iteration    1 A*A^-1 deviation from unit magnitude is 5.22D-15 for   2513.
 Iteration    1 A*A^-1 deviation from orthogonality  is 5.11D-15 for   2475    647.
 Iteration    1 A^-1*A deviation from unit magnitude is 5.22D-15 for   2513.
 Iteration    1 A^-1*A deviation from orthogonality  is 1.55D-09 for   2188   1623.
 Iteration    2 A*A^-1 deviation from unit magnitude is 3.77D-15 for    743.
 Iteration    2 A*A^-1 deviation from orthogonality  is 7.95D-15 for   2477    743.
 Iteration    2 A^-1*A deviation from unit magnitude is 1.11D-15 for    731.
 Iteration    2 A^-1*A deviation from orthogonality  is 1.02D-15 for   2505   2347.
 Error on total polarization charges =  0.05361
 SCF Done:  E(RM062X) =  -1459.76352300     A.U. after   15 cycles
            NFock= 15  Conv=0.42D-08     -V/T= 2.0026
 SMD-CDS (non-electrostatic) energy       (kcal/mol) =       6.90
 (included in total energy above)

 **********************************************************************

            Population analysis using the SCF density.

 **********************************************************************

 Orbital symmetries:
       Occupied  (A) (A) (A) (A) (A) (A) (A) (A) (A) (A) (A) (A)
                 (A) (A) (A) (A) (A) (A) (A) (A) (A) (A) (A) (A)
                 (A) (A) (A) (A) (A) (A) (A) (A) (A) (A) (A) (A)
                 (A) (A) (A) (A) (A) (A) (A) (A) (A) (A) (A) (A)
                 (A) (A) (A) (A) (A) (A) (A) (A) (A) (A) (A) (A)
                 (A) (A) (A) (A) (A) (A) (A) (A) (A) (A) (A) (A)
                 (A) (A) (A) (A) (A) (A) (A) (A)
       Virtual   (A) (A) (A) (A) (A) (A) (A) (A) (A) (A) (A) (A)
                 (A) (A) (A) (A) (A) (A) (A) (A) (A) (A) (A) (A)
                 (A) (A) (A) (A) (A) (A) (A) (A) (A) (A) (A) (A)
                 (A) (A) (A) (A) (A) (A) (A) (A) (A) (A) (A) (A)
                 (A) (A) (A) (A) (A) (A) (A) (A) (A) (A) (A) (A)
                 (A) (A) (A) (A) (A) (A) (A) (A) (A) (A) (A) (A)
                 (A) (A) (A) (A) (A) (A) (A) (A) (A) (A) (A) (A)
                 (A) (A) (A) (A) (A) (A) (A) (A) (A) (A) (A) (A)
                 (A) (A) (A) (A) (A) (A) (A) (A) (A) (A) (A) (A)
                 (A) (A) (A) (A) (A) (A) (A) (A) (A) (A) (A) (A)
                 (A) (A) (A) (A) (A) (A) (A) (A) (A) (A) (A) (A)
                 (A) (A) (A) (A) (A) (A) (A) (A) (A) (A) (A) (A)
                 (A) (A) (A) (A) (A) (A) (A) (A) (A) (A) (A) (A)
                 (A) (A) (A) (A) (A) (A) (A) (A) (A) (A) (A) (A)
                 (A) (A) (A) (A) (A) (A) (A) (A) (A) (A) (A) (A)
                 (A) (A) (A) (A) (A) (A) (A) (A) (A) (A) (A) (A)
                 (A) (A) (A) (A) (A) (A) (A) (A) (A) (A) (A) (A)
                 (A) (A) (A) (A) (A) (A) (A) (A) (A) (A) (A) (A)
                 (A) (A) (A) (A) (A) (A) (A) (A) (A) (A) (A) (A)
                 (A) (A) (A) (A) (A) (A) (A) (A) (A) (A) (A) (A)
                 (A) (A) (A) (A) (A) (A) (A) (A) (A) (A) (A) (A)
                 (A) (A) (A) (A) (A) (A) (A) (A) (A) (A) (A) (A)
                 (A) (A) (A) (A) (A) (A) (A) (A) (A) (A) (A) (A)
                 (A) (A) (A) (A) (A) (A) (A) (A) (A) (A) (A) (A)
                 (A) (A) (A) (A) (A) (A) (A) (A) (A) (A) (A) (A)
                 (A) (A) (A) (A) (A) (A) (A) (A) (A) (A) (A) (A)
                 (A) (A) (A) (A) (A) (A) (A) (A) (A) (A) (A) (A)
                 (A) (A) (A) (A) (A) (A) (A) (A) (A) (A) (A) (A)
                 (A) (A) (A) (A) (A) (A) (A) (A) (A) (A) (A) (A)
                 (A) (A) (A) (A) (A) (A) (A) (A) (A) (A) (A) (A)
                 (A) (A) (A) (A) (A) (A) (A) (A) (A) (A) (A) (A)
                 (A) (A) (A) (A) (A) (A) (A) (A) (A) (A) (A) (A)
                 (A) (A) (A) (A) (A) (A) (A) (A) (A) (A) (A) (A)
                 (A) (A) (A) (A) (A) (A) (A) (A) (A)
 The electronic state is 1-A.
 Alpha  occ. eigenvalues --  -90.13745 -25.31616 -25.31610 -25.31602 -19.65742
 Alpha  occ. eigenvalues --  -19.65726 -19.60368 -14.79714 -14.77402 -10.84167
 Alpha  occ. eigenvalues --  -10.68979 -10.62385 -10.59475 -10.57922 -10.57918
 Alpha  occ. eigenvalues --  -10.56753 -10.56269 -10.55868 -10.53095 -10.51767
 Alpha  occ. eigenvalues --   -8.48155  -6.40367  -6.40295  -6.40218  -1.51352
 Alpha  occ. eigenvalues --   -1.41900  -1.41890  -1.27616  -1.19260  -1.16892
 Alpha  occ. eigenvalues --   -1.07541  -1.03940  -0.99029  -0.90830  -0.88331
 Alpha  occ. eigenvalues --   -0.87564  -0.86315  -0.80611  -0.77731  -0.74362
 Alpha  occ. eigenvalues --   -0.73587  -0.73507  -0.73077  -0.69025  -0.68861
 Alpha  occ. eigenvalues --   -0.67189  -0.64284  -0.63612  -0.61855  -0.61141
 Alpha  occ. eigenvalues --   -0.60505  -0.58148  -0.57454  -0.57141  -0.56919
 Alpha  occ. eigenvalues --   -0.56323  -0.55027  -0.54960  -0.54249  -0.53404
 Alpha  occ. eigenvalues --   -0.52832  -0.52121  -0.50763  -0.49153  -0.48165
 Alpha  occ. eigenvalues --   -0.46864  -0.45625  -0.44544  -0.44395  -0.43332
 Alpha  occ. eigenvalues --   -0.42188  -0.42137  -0.40635  -0.40048  -0.39464
 Alpha  occ. eigenvalues --   -0.39188  -0.36521  -0.33765  -0.33334  -0.29156
 Alpha virt. eigenvalues --   -0.03283  -0.00123   0.00940   0.02056   0.02755
 Alpha virt. eigenvalues --    0.03027   0.03164   0.03621   0.04129   0.04343
 Alpha virt. eigenvalues --    0.04802   0.05124   0.05909   0.06354   0.07066
 Alpha virt. eigenvalues --    0.07155   0.07180   0.07425   0.07743   0.08545
 Alpha virt. eigenvalues --    0.08762   0.08930   0.09406   0.09590   0.09713
 Alpha virt. eigenvalues --    0.10078   0.10345   0.10883   0.11098   0.11786
 Alpha virt. eigenvalues --    0.12395   0.12941   0.13730   0.13973   0.14592
 Alpha virt. eigenvalues --    0.15055   0.15109   0.15557   0.15904   0.16647
 Alpha virt. eigenvalues --    0.17434   0.17981   0.18351   0.18908   0.19265
 Alpha virt. eigenvalues --    0.19773   0.20082   0.20513   0.20954   0.21408
 Alpha virt. eigenvalues --    0.21536   0.21666   0.21757   0.21863   0.22528
 Alpha virt. eigenvalues --    0.22820   0.23303   0.23514   0.23681   0.24088
 Alpha virt. eigenvalues --    0.24536   0.24808   0.25028   0.25419   0.25541
 Alpha virt. eigenvalues --    0.25912   0.26076   0.26740   0.27100   0.27558
 Alpha virt. eigenvalues --    0.27876   0.28052   0.29199   0.29510   0.30020
 Alpha virt. eigenvalues --    0.30150   0.30267   0.30739   0.30954   0.31091
 Alpha virt. eigenvalues --    0.31427   0.31784   0.32245   0.32609   0.32919
 Alpha virt. eigenvalues --    0.33624   0.33966   0.34268   0.35107   0.35399
 Alpha virt. eigenvalues --    0.35950   0.36214   0.36521   0.37298   0.37581
 Alpha virt. eigenvalues --    0.38426   0.38838   0.39162   0.39465   0.39743
 Alpha virt. eigenvalues --    0.41507   0.42109   0.42428   0.43207   0.44083
 Alpha virt. eigenvalues --    0.44573   0.44837   0.45352   0.46927   0.47205
 Alpha virt. eigenvalues --    0.47839   0.48342   0.48999   0.49624   0.50937
 Alpha virt. eigenvalues --    0.51354   0.52193   0.53216   0.54079   0.54331
 Alpha virt. eigenvalues --    0.55838   0.56269   0.57702   0.58150   0.58646
 Alpha virt. eigenvalues --    0.60168   0.60961   0.61145   0.62111   0.62741
 Alpha virt. eigenvalues --    0.63989   0.65376   0.65815   0.67012   0.68606
 Alpha virt. eigenvalues --    0.68795   0.69528   0.70259   0.70487   0.71190
 Alpha virt. eigenvalues --    0.71288   0.72034   0.72511   0.73497   0.73827
 Alpha virt. eigenvalues --    0.74544   0.75167   0.75962   0.76060   0.77630
 Alpha virt. eigenvalues --    0.77804   0.78798   0.79076   0.79773   0.81445
 Alpha virt. eigenvalues --    0.82125   0.82502   0.82990   0.85659   0.87001
 Alpha virt. eigenvalues --    0.87925   0.88444   0.89026   0.90627   0.90798
 Alpha virt. eigenvalues --    0.91731   0.93094   0.94049   0.94465   0.96036
 Alpha virt. eigenvalues --    0.96223   0.98945   0.99282   1.00236   1.01958
 Alpha virt. eigenvalues --    1.03992   1.04474   1.05131   1.05961   1.07937
 Alpha virt. eigenvalues --    1.09165   1.10838   1.12790   1.13023   1.13960
 Alpha virt. eigenvalues --    1.15606   1.17317   1.18400   1.18820   1.19587
 Alpha virt. eigenvalues --    1.21018   1.22025   1.23017   1.23700   1.24165
 Alpha virt. eigenvalues --    1.24373   1.25152   1.25921   1.26418   1.27260
 Alpha virt. eigenvalues --    1.29548   1.29734   1.31475   1.33268   1.34549
 Alpha virt. eigenvalues --    1.34834   1.37905   1.42973   1.43286   1.44914
 Alpha virt. eigenvalues --    1.46057   1.46440   1.46768   1.47218   1.49871
 Alpha virt. eigenvalues --    1.50929   1.51272   1.52913   1.53458   1.54063
 Alpha virt. eigenvalues --    1.54326   1.55996   1.56648   1.57727   1.59815
 Alpha virt. eigenvalues --    1.61034   1.62688   1.63577   1.65200   1.67846
 Alpha virt. eigenvalues --    1.69731   1.71259   1.73497   1.75765   1.76447
 Alpha virt. eigenvalues --    1.76746   1.78234   1.78438   1.81081   1.81514
 Alpha virt. eigenvalues --    1.81949   1.84305   1.85102   1.85959   1.86809
 Alpha virt. eigenvalues --    1.87368   1.89098   1.90157   1.90992   1.92820
 Alpha virt. eigenvalues --    1.95593   1.96664   1.97381   1.98523   2.00799
 Alpha virt. eigenvalues --    2.01365   2.02928   2.04832   2.07864   2.09195
 Alpha virt. eigenvalues --    2.09979   2.12460   2.12798   2.15439   2.20151
 Alpha virt. eigenvalues --    2.23074   2.25114   2.25780   2.31095   2.32759
 Alpha virt. eigenvalues --    2.35196   2.37497   2.37943   2.38168   2.46363
 Alpha virt. eigenvalues --    2.46725   2.49810   2.53117   2.55567   2.56463
 Alpha virt. eigenvalues --    2.57721   2.60492   2.63239   2.63893   2.65072
 Alpha virt. eigenvalues --    2.69928   2.72278   2.73381   2.78422   2.80995
 Alpha virt. eigenvalues --    2.81192   2.83464   2.85107   2.86154   2.86486
 Alpha virt. eigenvalues --    2.87668   2.89003   2.90706   2.92499   2.92677
 Alpha virt. eigenvalues --    2.95354   2.96026   2.96340   2.97354   2.99473
 Alpha virt. eigenvalues --    3.00337   3.01691   3.04191   3.07548   3.08751
 Alpha virt. eigenvalues --    3.10288   3.12313   3.13867   3.17572   3.17969
 Alpha virt. eigenvalues --    3.21815   3.24981   3.25350   3.28536   3.29468
 Alpha virt. eigenvalues --    3.30861   3.34377   3.37994   3.38857   3.40716
 Alpha virt. eigenvalues --    3.41389   3.43210   3.46593   3.53419   3.57643
 Alpha virt. eigenvalues --    3.62670   3.68452   3.69060   3.71194   3.73563
 Alpha virt. eigenvalues --    3.76848   3.80643   3.80731   3.81357   3.82657
 Alpha virt. eigenvalues --    3.82883   3.83899   3.83992   3.88218   3.95468
 Alpha virt. eigenvalues --    3.95579   3.97432   3.98686   4.02798   4.06162
 Alpha virt. eigenvalues --    4.06917   4.09285   4.18704   4.27716   4.27914
 Alpha virt. eigenvalues --    4.43474   4.54920   4.58846   4.79712   4.90077
 Alpha virt. eigenvalues --    4.97686   4.98332   5.14900   5.16183   5.16785
 Alpha virt. eigenvalues --    5.20043   5.20545   5.21528   5.26109   5.40687
 Alpha virt. eigenvalues --    5.41348   5.88664   6.41041   6.43405   6.47349
 Alpha virt. eigenvalues --    6.48505   6.49434   6.51350   6.53443   6.88392
 Alpha virt. eigenvalues --    6.88541   8.30788  17.56483  17.60799  17.76337
 Alpha virt. eigenvalues --   23.47624  23.54391  23.60124  23.74610  23.82353
 Alpha virt. eigenvalues --   23.89435  23.92726  23.98334  24.06640  24.13854
 Alpha virt. eigenvalues --   24.20701  35.59840  35.70900  49.96355  50.00492
 Alpha virt. eigenvalues --   50.13208  66.85956  66.86186  66.90992 189.56830
          Condensed to atoms (all electrons):
               1          2          3          4          5          6
     1  C   16.259957   0.062484  -0.476794  -0.191933  -0.329114  -0.501780
     2  N    0.062484   7.697841   0.433626  -0.086261  -0.478388  -0.424928
     3  C   -0.476794   0.433626   8.774207   0.606295   0.193065  -1.052675
     4  O   -0.191933  -0.086261   0.606295   8.249889  -0.195987  -0.128435
     5  N   -0.329114  -0.478388   0.193065  -0.195987   7.582403   0.558184
     6  C   -0.501780  -0.424928  -1.052675  -0.128435   0.558184   8.687010
     7  C   -0.027718   0.034433   0.238237   0.016242  -0.132616  -1.038158
     8  C   -0.019807  -0.014136  -0.301728  -0.003429   0.008066   0.454890
     9  C    3.228326  -0.239574   0.942770   0.270378   0.041481  -0.197232
    10  C   -0.401551   0.068266  -0.245986   0.031840   0.025214  -0.124095
    11  C   -6.450659  -0.018940  -1.420752  -0.007453   0.047388  -0.084213
    12  C   -1.515978   0.015275  -0.525759  -0.011946  -0.018965   0.006610
    13  C   -2.409460   0.049937  -1.478433  -0.033384  -0.127544  -0.134909
    14  H   -0.038724   0.244926  -0.051822   0.000367   0.059025   0.009675
    15  H   -0.020130   0.069655   0.029176  -0.001988   0.253355  -0.062112
    16  H    0.005294   0.006355   0.037709   0.000773  -0.054379   0.369166
    17  H    0.003530   0.006684   0.047445  -0.000265  -0.056604   0.357483
    18  H    0.000202  -0.001655  -0.003803  -0.000127   0.005829  -0.063272
    19  H    0.000832  -0.001074   0.004571  -0.000099   0.006944  -0.070353
    20  H   -0.000032  -0.000023   0.000024  -0.000041  -0.000032  -0.047042
    21  H    0.000140   0.000014   0.007836   0.000023  -0.001381   0.088751
    22  H   -0.000121  -0.000066  -0.003452  -0.000062  -0.000053  -0.050899
    23  H    0.103154  -0.023563   0.049536   0.002411   0.001528   0.006083
    24  C    0.375982  -0.002468   0.009537   0.000215  -0.000534  -0.000042
    25  H    0.017553  -0.002044   0.002561  -0.000010  -0.000055   0.000013
    26  H    0.035307  -0.016022  -0.005265  -0.000001  -0.000264  -0.000194
    27  F   -0.014867   0.000040  -0.000173  -0.000000   0.000003   0.000000
    28  F   -0.003631   0.000017   0.000003  -0.000000   0.000000   0.000000
    29  F   -0.035823   0.000052  -0.000944  -0.000003   0.000001  -0.000004
    30  S   -1.292083  -0.003310  -0.085925  -0.000499   0.004558  -0.000766
    31  O   -0.117707  -0.000589  -0.009657  -0.000027  -0.000012  -0.000074
    32  O    0.184998   0.000177   0.006501   0.000004   0.000022   0.000038
    33  H   -0.004112  -0.000985   0.007507  -0.000052   0.000045   0.000110
               7          8          9         10         11         12
     1  C   -0.027718  -0.019807   3.228326  -0.401551  -6.450659  -1.515978
     2  N    0.034433  -0.014136  -0.239574   0.068266  -0.018940   0.015275
     3  C    0.238237  -0.301728   0.942770  -0.245986  -1.420752  -0.525759
     4  O    0.016242  -0.003429   0.270378   0.031840  -0.007453  -0.011946
     5  N   -0.132616   0.008066   0.041481   0.025214   0.047388  -0.018965
     6  C   -1.038158   0.454890  -0.197232  -0.124095  -0.084213   0.006610
     7  C    6.518519  -0.250187  -0.008700   0.000656  -0.002238  -0.000427
     8  C   -0.250187   6.191487  -0.009794  -0.001998  -0.000697   0.000185
     9  C   -0.008700  -0.009794  19.473594   6.724154 -11.592627  -5.847449
    10  C    0.000656  -0.001998   6.724154  21.864969  -5.387468  -9.095746
    11  C   -0.002238  -0.000697 -11.592627  -5.387468  38.668510  -1.958571
    12  C   -0.000427   0.000185  -5.847449  -9.095746  -1.958571  20.668193
    13  C    0.016790  -0.001346  -6.518166  -6.107832  -2.584550   2.469464
    14  H   -0.002299   0.000016   0.041490   0.011650   0.023175  -0.004696
    15  H   -0.009333   0.002621   0.001520   0.000211  -0.001020  -0.000066
    16  H   -0.020286  -0.018321  -0.000763  -0.000059   0.000037   0.000078
    17  H   -0.018318  -0.016367  -0.000338   0.000197  -0.000006   0.000117
    18  H    0.455129  -0.045996   0.000007   0.000010   0.000010   0.000000
    19  H    0.455590  -0.049447   0.000030   0.000024   0.000006   0.000009
    20  H    0.015323   0.376877  -0.000009  -0.000000  -0.000000   0.000000
    21  H   -0.122247   0.376718   0.000040   0.000001   0.000000  -0.000001
    22  H    0.017653   0.381550  -0.000026  -0.000001  -0.000000   0.000000
    23  H   -0.000115   0.000044   0.306501  -0.145077   0.010365   0.006338
    24  C    0.000018  -0.000000   0.314706   1.110684  -1.471856   0.416990
    25  H    0.000001  -0.000000  -0.011631  -0.025757   0.021483   0.389071
    26  H   -0.000044   0.000002  -0.012815  -0.000677   0.060618  -0.009762
    27  F   -0.000000   0.000000   0.013445   0.038401   0.124992  -0.126133
    28  F   -0.000000   0.000000  -0.006539  -0.032011   0.094748  -0.018679
    29  F   -0.000000  -0.000000  -0.077076  -0.187292   0.168533   0.065025
    30  S   -0.000164  -0.000001  -0.392357  -2.060851  -2.819957   1.693263
    31  O    0.000001  -0.000000  -0.681780  -1.879448   0.430121   1.340183
    32  O   -0.000001   0.000000   0.465848   1.680127   0.175067  -1.650855
    33  H    0.000001   0.000000  -0.063608   0.427068  -0.012891  -0.038632
              13         14         15         16         17         18
     1  C   -2.409460  -0.038724  -0.020130   0.005294   0.003530   0.000202
     2  N    0.049937   0.244926   0.069655   0.006355   0.006684  -0.001655
     3  C   -1.478433  -0.051822   0.029176   0.037709   0.047445  -0.003803
     4  O   -0.033384   0.000367  -0.001988   0.000773  -0.000265  -0.000127
     5  N   -0.127544   0.059025   0.253355  -0.054379  -0.056604   0.005829
     6  C   -0.134909   0.009675  -0.062112   0.369166   0.357483  -0.063272
     7  C    0.016790  -0.002299  -0.009333  -0.020286  -0.018318   0.455129
     8  C   -0.001346   0.000016   0.002621  -0.018321  -0.016367  -0.045996
     9  C   -6.518166   0.041490   0.001520  -0.000763  -0.000338   0.000007
    10  C   -6.107832   0.011650   0.000211  -0.000059   0.000197   0.000010
    11  C   -2.584550   0.023175  -0.001020   0.000037  -0.000006   0.000010
    12  C    2.469464  -0.004696  -0.000066   0.000078   0.000117   0.000000
    13  C   22.207053  -0.013824   0.006089   0.000276   0.000687  -0.000073
    14  H   -0.013824   0.263232   0.001585   0.000052  -0.000005   0.000032
    15  H    0.006089   0.001585   0.278022   0.001626   0.002247  -0.000941
    16  H    0.000276   0.000052   0.001626   0.437725  -0.043442   0.005458
    17  H    0.000687  -0.000005   0.002247  -0.043442   0.436602  -0.008163
    18  H   -0.000073   0.000032  -0.000941   0.005458  -0.008163   0.436877
    19  H   -0.000004   0.000017  -0.001685  -0.008205   0.005525  -0.041158
    20  H    0.000003  -0.000000  -0.000022  -0.000360   0.003331  -0.008231
    21  H   -0.000010   0.000000  -0.000031  -0.000067  -0.000019  -0.003087
    22  H    0.000006  -0.000000  -0.000017   0.003305  -0.000501   0.005899
    23  H    0.004461  -0.000158  -0.000003  -0.000002  -0.000010  -0.000000
    24  C    0.127618  -0.000084   0.000002  -0.000000  -0.000000  -0.000000
    25  H   -0.081233  -0.000008   0.000000  -0.000000  -0.000000  -0.000000
    26  H    0.271776   0.004619  -0.000040   0.000000   0.000000  -0.000000
    27  F   -0.027449   0.000001  -0.000000   0.000000  -0.000000   0.000000
    28  F   -0.001971   0.000000  -0.000000  -0.000000   0.000000   0.000000
    29  F    0.024215   0.000000   0.000000   0.000000  -0.000000   0.000000
    30  S    1.085259   0.001145  -0.000051  -0.000001   0.000001   0.000000
    31  O    0.450129   0.000000   0.000000   0.000000  -0.000000  -0.000000
    32  O   -0.654940   0.000005  -0.000000  -0.000000  -0.000000   0.000000
    33  H   -0.009549   0.000004   0.000000  -0.000000  -0.000000   0.000000
              19         20         21         22         23         24
     1  C    0.000832  -0.000032   0.000140  -0.000121   0.103154   0.375982
     2  N   -0.001074  -0.000023   0.000014  -0.000066  -0.023563  -0.002468
     3  C    0.004571   0.000024   0.007836  -0.003452   0.049536   0.009537
     4  O   -0.000099  -0.000041   0.000023  -0.000062   0.002411   0.000215
     5  N    0.006944  -0.000032  -0.001381  -0.000053   0.001528  -0.000534
     6  C   -0.070353  -0.047042   0.088751  -0.050899   0.006083  -0.000042
     7  C    0.455590   0.015323  -0.122247   0.017653  -0.000115   0.000018
     8  C   -0.049447   0.376877   0.376718   0.381550   0.000044  -0.000000
     9  C    0.000030  -0.000009   0.000040  -0.000026   0.306501   0.314706
    10  C    0.000024  -0.000000   0.000001  -0.000001  -0.145077   1.110684
    11  C    0.000006  -0.000000   0.000000  -0.000000   0.010365  -1.471856
    12  C    0.000009   0.000000  -0.000001   0.000000   0.006338   0.416990
    13  C   -0.000004   0.000003  -0.000010   0.000006   0.004461   0.127618
    14  H    0.000017  -0.000000   0.000000  -0.000000  -0.000158  -0.000084
    15  H   -0.001685  -0.000022  -0.000031  -0.000017  -0.000003   0.000002
    16  H   -0.008205  -0.000360  -0.000067   0.003305  -0.000002  -0.000000
    17  H    0.005525   0.003331  -0.000019  -0.000501  -0.000010  -0.000000
    18  H   -0.041158  -0.008231  -0.003087   0.005899  -0.000000  -0.000000
    19  H    0.434997   0.005827  -0.003162  -0.008189   0.000000  -0.000000
    20  H    0.005827   0.445385  -0.024420  -0.036596  -0.000000   0.000000
    21  H   -0.003162  -0.024420   0.424562  -0.024317   0.000000  -0.000000
    22  H   -0.008189  -0.036596  -0.024317   0.446201  -0.000000   0.000000
    23  H    0.000000  -0.000000   0.000000  -0.000000   0.348075  -0.000711
    24  C   -0.000000   0.000000  -0.000000   0.000000  -0.000711   7.118080
    25  H   -0.000000  -0.000000  -0.000000   0.000000   0.000058  -0.000646
    26  H   -0.000000  -0.000000   0.000000  -0.000000  -0.000040  -0.000791
    27  F   -0.000000  -0.000000  -0.000000   0.000000  -0.000001   0.167092
    28  F    0.000000   0.000000  -0.000000   0.000000  -0.000000   0.227311
    29  F   -0.000000  -0.000000  -0.000000   0.000000   0.000030   0.136636
    30  S    0.000000  -0.000000   0.000000  -0.000000   0.004950  -2.457976
    31  O   -0.000000  -0.000000   0.000000  -0.000000   0.000345  -0.081793
    32  O    0.000000  -0.000000   0.000000  -0.000000  -0.000024  -0.026219
    33  H   -0.000000   0.000000  -0.000000   0.000000  -0.002538  -0.001372
              25         26         27         28         29         30
     1  C    0.017553   0.035307  -0.014867  -0.003631  -0.035823  -1.292083
     2  N   -0.002044  -0.016022   0.000040   0.000017   0.000052  -0.003310
     3  C    0.002561  -0.005265  -0.000173   0.000003  -0.000944  -0.085925
     4  O   -0.000010  -0.000001  -0.000000  -0.000000  -0.000003  -0.000499
     5  N   -0.000055  -0.000264   0.000003   0.000000   0.000001   0.004558
     6  C    0.000013  -0.000194   0.000000   0.000000  -0.000004  -0.000766
     7  C    0.000001  -0.000044  -0.000000  -0.000000  -0.000000  -0.000164
     8  C   -0.000000   0.000002   0.000000   0.000000  -0.000000  -0.000001
     9  C   -0.011631  -0.012815   0.013445  -0.006539  -0.077076  -0.392357
    10  C   -0.025757  -0.000677   0.038401  -0.032011  -0.187292  -2.060851
    11  C    0.021483   0.060618   0.124992   0.094748   0.168533  -2.819957
    12  C    0.389071  -0.009762  -0.126133  -0.018679   0.065025   1.693263
    13  C   -0.081233   0.271776  -0.027449  -0.001971   0.024215   1.085259
    14  H   -0.000008   0.004619   0.000001   0.000000   0.000000   0.001145
    15  H    0.000000  -0.000040  -0.000000  -0.000000   0.000000  -0.000051
    16  H   -0.000000   0.000000   0.000000  -0.000000   0.000000  -0.000001
    17  H   -0.000000   0.000000  -0.000000   0.000000  -0.000000   0.000001
    18  H   -0.000000  -0.000000   0.000000   0.000000   0.000000   0.000000
    19  H   -0.000000  -0.000000  -0.000000   0.000000  -0.000000   0.000000
    20  H   -0.000000  -0.000000  -0.000000   0.000000  -0.000000  -0.000000
    21  H   -0.000000   0.000000  -0.000000  -0.000000  -0.000000   0.000000
    22  H    0.000000  -0.000000   0.000000   0.000000   0.000000  -0.000000
    23  H    0.000058  -0.000040  -0.000001  -0.000000   0.000030   0.004950
    24  C   -0.000646  -0.000791   0.167092   0.227311   0.136636  -2.457976
    25  H    0.350991  -0.002982  -0.002601  -0.000131   0.000202   0.014866
    26  H   -0.002982   0.363488   0.000036  -0.000000  -0.000001   0.007732
    27  F   -0.002601   0.000036   8.919302  -0.040000  -0.036805   0.012358
    28  F   -0.000131  -0.000000  -0.040000   8.955678  -0.039970  -0.056369
    29  F    0.000202  -0.000001  -0.036805  -0.039970   8.924474   0.086491
    30  S    0.014866   0.007732   0.012358  -0.056369   0.086491  21.719585
    31  O    0.001188  -0.000080  -0.006682  -0.004640   0.015383   0.174198
    32  O   -0.005667   0.000597   0.013118  -0.005004  -0.005919  -0.451020
    33  H   -0.000069   0.000041   0.000169  -0.000127  -0.002777   0.019163
              31         32         33
     1  C   -0.117707   0.184998  -0.004112
     2  N   -0.000589   0.000177  -0.000985
     3  C   -0.009657   0.006501   0.007507
     4  O   -0.000027   0.000004  -0.000052
     5  N   -0.000012   0.000022   0.000045
     6  C   -0.000074   0.000038   0.000110
     7  C    0.000001  -0.000001   0.000001
     8  C   -0.000000   0.000000   0.000000
     9  C   -0.681780   0.465848  -0.063608
    10  C   -1.879448   1.680127   0.427068
    11  C    0.430121   0.175067  -0.012891
    12  C    1.340183  -1.650855  -0.038632
    13  C    0.450129  -0.654940  -0.009549
    14  H    0.000000   0.000005   0.000004
    15  H    0.000000  -0.000000   0.000000
    16  H    0.000000  -0.000000  -0.000000
    17  H   -0.000000  -0.000000  -0.000000
    18  H   -0.000000   0.000000   0.000000
    19  H   -0.000000   0.000000  -0.000000
    20  H   -0.000000  -0.000000   0.000000
    21  H    0.000000   0.000000  -0.000000
    22  H   -0.000000  -0.000000   0.000000
    23  H    0.000345  -0.000024  -0.002538
    24  C   -0.081793  -0.026219  -0.001372
    25  H    0.001188  -0.005667  -0.000069
    26  H   -0.000080   0.000597   0.000041
    27  F   -0.006682   0.013118   0.000169
    28  F   -0.004640  -0.005004  -0.000127
    29  F    0.015383  -0.005919  -0.002777
    30  S    0.174198  -0.451020   0.019163
    31  O    9.158564  -0.592381  -0.001625
    32  O   -0.592381   9.063190  -0.000126
    33  H   -0.001625  -0.000126   0.350636
 Mulliken charges:
               1
     1  C   -0.425735
     2  N   -0.375754
     3  C    0.272559
     4  O   -0.516436
     5  N   -0.391183
     6  C   -0.556831
     7  C   -0.135743
     8  C   -1.059202
     9  C   -0.163804
    10  C   -0.287624
    11  C   -0.011155
    12  C   -0.247138
    13  C   -0.529089
    14  H    0.450602
    15  H    0.451329
    16  H    0.278030
    17  H    0.280188
    18  H    0.267054
    19  H    0.269002
    20  H    0.270037
    21  H    0.280657
    22  H    0.269688
    23  H    0.328360
    24  C    0.039620
    25  H    0.334848
    26  H    0.304761
    27  F   -0.034245
    28  F   -0.068686
    29  F   -0.034429
    30  S    0.797761
    31  O   -0.193619
    32  O   -0.197539
    33  H    0.333715
 Sum of Mulliken charges =  -0.00000
 Mulliken charges with hydrogens summed into heavy atoms:
               1
     1  C   -0.425735
     2  N    0.074848
     3  C    0.272559
     4  O   -0.516436
     5  N    0.060146
     6  C    0.001387
     7  C    0.400313
     8  C   -0.238821
     9  C    0.164557
    10  C    0.046091
    11  C   -0.011155
    12  C    0.087710
    13  C   -0.224328
    24  C    0.039620
    27  F   -0.034245
    28  F   -0.068686
    29  F   -0.034429
    30  S    0.797761
    31  O   -0.193619
    32  O   -0.197539
 Electronic spatial extent (au):  <R**2>=          10994.5117
 Charge=              0.0000 electrons
 Dipole moment (field-independent basis, Debye):
    X=             11.9142    Y=              5.8249    Z=              5.1214  Tot=             14.2164
 Quadrupole moment (field-independent basis, Debye-Ang):
   XX=           -123.6037   YY=           -120.1209   ZZ=           -130.3972
   XY=             22.0189   XZ=             -3.2824   YZ=              2.6748
 Traceless Quadrupole moment (field-independent basis, Debye-Ang):
   XX=              1.1036   YY=              4.5864   ZZ=             -5.6899
   XY=             22.0189   XZ=             -3.2824   YZ=              2.6748
 Octapole moment (field-independent basis, Debye-Ang**2):
  XXX=            301.6048  YYY=             12.8630  ZZZ=             32.0932  XYY=             -0.8804
  XXY=             44.0891  XXZ=             95.5799  XZZ=             -3.8914  YZZ=             -2.0189
  YYZ=             22.1333  XYZ=              3.0934
 Hexadecapole moment (field-independent basis, Debye-Ang**3):
 XXXX=         -11939.0432 YYYY=           -701.6749 ZZZZ=           -605.5061 XXXY=            399.0759
 XXXZ=           -153.0161 YYYX=            126.2612 YYYZ=             19.7112 ZZZX=           -120.1750
 ZZZY=            -18.3154 XXYY=          -2298.2728 XXZZ=          -2278.2144 YYZZ=           -227.3578
 XXYZ=              1.5546 YYXZ=            -23.2046 ZZXY=             12.6962
 N-N= 1.746489773673D+03 E-N=-6.930707364626D+03  KE= 1.455926710040D+03
 D1PCM: PCM CHGder 1st derivatives, ID1Alg=3 FixD1E=F DoIter=F DoCFld=F I1PDM=0.
 Calling FoFJK, ICntrl=      2127 FMM=F ISym2X=0 I1Cent= 0 IOpClX= 0 NMat=1 NMatS=1 NMatT=0.
 ***** Axes restored to original set *****
 -------------------------------------------------------------------
 Center     Atomic                   Forces (Hartrees/Bohr)
 Number     Number              X              Y              Z
 -------------------------------------------------------------------
      1        6           0.000001015   -0.000007179   -0.000008825
      2        7          -0.000007996   -0.000002462    0.000007330
      3        6           0.000003560   -0.000001202   -0.000003712
      4        8           0.000003262    0.000000073    0.000013281
      5        7           0.000001754    0.000003308   -0.000003160
      6        6          -0.000001950    0.000001875    0.000005576
      7        6           0.000000419   -0.000001037   -0.000002061
      8        6           0.000002277    0.000004543    0.000002364
      9        6          -0.000004341    0.000000851    0.000007383
     10        6           0.000004378    0.000002745    0.000005869
     11        6          -0.000011670   -0.000014496    0.000008187
     12        6           0.000003029   -0.000004839   -0.000013261
     13        6           0.000000010   -0.000002171   -0.000009310
     14        1          -0.000001468   -0.000001021   -0.000018466
     15        1          -0.000000178    0.000000726   -0.000009800
     16        1          -0.000002080   -0.000004264    0.000007819
     17        1           0.000002998    0.000006958    0.000007653
     18        1           0.000002266    0.000008819   -0.000009044
     19        1          -0.000000847   -0.000004256   -0.000008446
     20        1           0.000002097    0.000009921    0.000007919
     21        1           0.000000288    0.000003637   -0.000001950
     22        1          -0.000000807   -0.000003771    0.000008281
     23        1          -0.000001793   -0.000002024    0.000013766
     24        6          -0.000013423    0.000021076   -0.000001028
     25        1          -0.000002016   -0.000004868   -0.000015624
     26        1          -0.000000427   -0.000003451   -0.000018536
     27        9           0.000004507    0.000008451   -0.000008271
     28        9           0.000018471    0.000002080    0.000004084
     29        9          -0.000002309    0.000008686    0.000010587
     30       16           0.000010541   -0.000002105   -0.000000787
     31        8          -0.000001240   -0.000007411    0.000012593
     32        8          -0.000007680   -0.000013813   -0.000008308
     33        1          -0.000000648   -0.000003380    0.000017897
 -------------------------------------------------------------------
 Cartesian Forces:  Max     0.000021076 RMS     0.000007605

 GradGradGradGradGradGradGradGradGradGradGradGradGradGradGradGradGradGrad
 Berny optimization.
 FormGI is forming the generalized inverse of G from B-inverse, IUseBI=4.
 GSVD:  received Info=                   1 from GESDD.
 Internal  Forces:  Max     0.000017626 RMS     0.000002548
 Search for a local minimum.
 Step number   1 out of a maximum of  175
 All quantities printed in internal units (Hartrees-Bohrs-Radians)
 Mixed Optimization -- En-DIIS/RFO-DIIS
 Second derivative matrix not updated -- first step.
 ITU=  0
     Eigenvalues ---    0.00230   0.00454   0.00509   0.00924   0.01133
     Eigenvalues ---    0.01534   0.01761   0.01843   0.01870   0.01898
     Eigenvalues ---    0.01969   0.02041   0.02126   0.02138   0.02160
     Eigenvalues ---    0.02204   0.02221   0.02248   0.02280   0.02412
     Eigenvalues ---    0.03780   0.04500   0.04959   0.05556   0.05569
     Eigenvalues ---    0.05573   0.08131   0.08750   0.08846   0.08950
     Eigenvalues ---    0.09159   0.09171   0.11396   0.12035   0.12635
     Eigenvalues ---    0.15995   0.15999   0.16000   0.16000   0.16000
     Eigenvalues ---    0.16000   0.16000   0.16000   0.16000   0.17860
     Eigenvalues ---    0.21546   0.21889   0.21916   0.22000   0.22000
     Eigenvalues ---    0.22001   0.22971   0.23990   0.24963   0.25000
     Eigenvalues ---    0.25000   0.25000   0.25000   0.25000   0.25000
     Eigenvalues ---    0.25000   0.30024   0.30425   0.31240   0.34294
     Eigenvalues ---    0.34312   0.34355   0.34429   0.34465   0.34468
     Eigenvalues ---    0.34641   0.35492   0.35536   0.35571   0.36308
     Eigenvalues ---    0.37215   0.41322   0.42447   0.45431   0.45449
     Eigenvalues ---    0.45615   0.45768   0.47282   0.47566   0.48299
     Eigenvalues ---    0.49138   0.55976   0.61153   0.61179   0.61183
     Eigenvalues ---    0.90647   0.93398   0.93480
 RFO step:  Lambda= 0.00000000D+00 EMin= 2.30000000D-03
 Linear search not attempted -- first point.
 Iteration  1 RMS(Cart)=  0.00017344 RMS(Int)=  0.00000001
 Iteration  2 RMS(Cart)=  0.00000002 RMS(Int)=  0.00000000
 Variable       Old X    -DE/DX   Delta X   Delta X   Delta X     New X
                                 (Linear)    (Quad)   (Total)
    R1        2.61622  -0.00000   0.00000  -0.00000  -0.00000   2.61621
    R2        2.65668   0.00000   0.00000   0.00001   0.00001   2.65668
    R3        2.66330  -0.00000   0.00000  -0.00000  -0.00000   2.66330
    R4        2.62405   0.00001   0.00000   0.00002   0.00002   2.62406
    R5        1.91457  -0.00000   0.00000  -0.00000  -0.00000   1.91457
    R6        2.32636   0.00000   0.00000   0.00000   0.00000   2.32637
    R7        2.54275  -0.00000   0.00000  -0.00000  -0.00000   2.54274
    R8        2.75524  -0.00000   0.00000  -0.00000  -0.00000   2.75523
    R9        1.91094  -0.00000   0.00000  -0.00000  -0.00000   1.91094
   R10        2.87124   0.00000   0.00000   0.00000   0.00000   2.87124
   R11        2.06612  -0.00000   0.00000  -0.00000  -0.00000   2.06611
   R12        2.06734  -0.00000   0.00000  -0.00000  -0.00000   2.06734
   R13        2.87916   0.00000   0.00000   0.00000   0.00000   2.87916
   R14        2.06837  -0.00000   0.00000  -0.00000  -0.00000   2.06837
   R15        2.06807  -0.00000   0.00000  -0.00000  -0.00000   2.06807
   R16        2.06548  -0.00000   0.00000  -0.00000  -0.00000   2.06548
   R17        2.06262  -0.00000   0.00000  -0.00000  -0.00000   2.06262
   R18        2.06552  -0.00000   0.00000  -0.00000  -0.00000   2.06552
   R19        2.61508  -0.00000   0.00000  -0.00000  -0.00000   2.61508
   R20        2.03602  -0.00000   0.00000  -0.00000  -0.00000   2.03602
   R21        2.63329   0.00001   0.00000   0.00002   0.00002   2.63331
   R22        2.04813   0.00000   0.00000   0.00000   0.00000   2.04813
   R23        2.64017  -0.00000   0.00000  -0.00000  -0.00000   2.64017
   R24        3.29257  -0.00000   0.00000  -0.00001  -0.00001   3.29256
   R25        2.60272  -0.00000   0.00000  -0.00000  -0.00000   2.60272
   R26        2.04758   0.00000   0.00000   0.00000   0.00000   2.04758
   R27        2.04884  -0.00000   0.00000  -0.00000  -0.00000   2.04884
   R28        2.50016   0.00000   0.00000   0.00001   0.00001   2.50017
   R29        2.50040  -0.00002   0.00000  -0.00003  -0.00003   2.50037
   R30        2.50019  -0.00001   0.00000  -0.00001  -0.00001   2.50018
   R31        3.52600   0.00000   0.00000   0.00001   0.00001   3.52600
   R32        2.75105   0.00000   0.00000   0.00000   0.00000   2.75105
   R33        2.75069   0.00001   0.00000   0.00001   0.00001   2.75070
    A1        2.16843   0.00001   0.00000   0.00003   0.00003   2.16846
    A2        2.03012  -0.00001   0.00000  -0.00002  -0.00002   2.03009
    A3        2.08464  -0.00000   0.00000  -0.00000  -0.00000   2.08464
    A4        2.24105   0.00001   0.00000   0.00004   0.00004   2.24109
    A5        2.01072  -0.00000   0.00000  -0.00002  -0.00002   2.01069
    A6        2.03139  -0.00000   0.00000  -0.00002  -0.00002   2.03137
    A7        2.14889   0.00000   0.00000   0.00002   0.00002   2.14891
    A8        1.99279  -0.00000   0.00000  -0.00001  -0.00001   1.99278
    A9        2.14151  -0.00000   0.00000  -0.00001  -0.00001   2.14150
   A10        2.11218   0.00000   0.00000   0.00001   0.00001   2.11220
   A11        2.10174  -0.00000   0.00000  -0.00001  -0.00001   2.10173
   A12        2.06885  -0.00000   0.00000  -0.00000  -0.00000   2.06884
   A13        1.92404  -0.00000   0.00000  -0.00000  -0.00000   1.92404
   A14        1.90670  -0.00000   0.00000  -0.00000  -0.00000   1.90670
   A15        1.91056   0.00000   0.00000   0.00001   0.00001   1.91057
   A16        1.92333   0.00000   0.00000   0.00000   0.00000   1.92334
   A17        1.92381  -0.00000   0.00000  -0.00001  -0.00001   1.92380
   A18        1.87467   0.00000   0.00000   0.00000   0.00000   1.87467
   A19        1.93902   0.00000   0.00000   0.00000   0.00000   1.93902
   A20        1.90684  -0.00000   0.00000  -0.00001  -0.00001   1.90684
   A21        1.90596   0.00000   0.00000   0.00000   0.00000   1.90597
   A22        1.92071  -0.00000   0.00000  -0.00000  -0.00000   1.92071
   A23        1.92154  -0.00000   0.00000  -0.00000  -0.00000   1.92154
   A24        1.86831   0.00000   0.00000   0.00001   0.00001   1.86832
   A25        1.93818  -0.00000   0.00000  -0.00000  -0.00000   1.93818
   A26        1.93891  -0.00000   0.00000  -0.00000  -0.00000   1.93891
   A27        1.93809   0.00000   0.00000   0.00000   0.00000   1.93809
   A28        1.88196   0.00000   0.00000   0.00000   0.00000   1.88196
   A29        1.88218   0.00000   0.00000   0.00000   0.00000   1.88219
   A30        1.88209  -0.00000   0.00000  -0.00000  -0.00000   1.88208
   A31        2.09049  -0.00000   0.00000   0.00000   0.00000   2.09049
   A32        2.10680   0.00000   0.00000   0.00000   0.00000   2.10680
   A33        2.08590  -0.00000   0.00000  -0.00000  -0.00000   2.08590
   A34        2.08859  -0.00000   0.00000  -0.00000  -0.00000   2.08859
   A35        2.08841   0.00000   0.00000   0.00000   0.00000   2.08841
   A36        2.10616   0.00000   0.00000   0.00000   0.00000   2.10617
   A37        2.12104   0.00000   0.00000   0.00000   0.00000   2.12104
   A38        2.08056  -0.00001   0.00000  -0.00002  -0.00002   2.08054
   A39        2.08027   0.00000   0.00000   0.00002   0.00002   2.08029
   A40        2.07060   0.00000   0.00000  -0.00000  -0.00000   2.07060
   A41        2.11253  -0.00000   0.00000  -0.00001  -0.00001   2.11252
   A42        2.10002   0.00000   0.00000   0.00001   0.00001   2.10003
   A43        2.11097   0.00000   0.00000   0.00000   0.00000   2.11097
   A44        2.08386  -0.00000   0.00000  -0.00000  -0.00000   2.08385
   A45        2.08835  -0.00000   0.00000  -0.00000  -0.00000   2.08835
   A46        1.91146   0.00000   0.00000   0.00000   0.00000   1.91147
   A47        1.91064  -0.00000   0.00000  -0.00000  -0.00000   1.91063
   A48        1.91757  -0.00000   0.00000  -0.00001  -0.00001   1.91756
   A49        1.91076  -0.00000   0.00000  -0.00000  -0.00000   1.91076
   A50        1.89698  -0.00000   0.00000  -0.00000  -0.00000   1.89697
   A51        1.91634   0.00000   0.00000   0.00002   0.00002   1.91636
   A52        1.80583   0.00001   0.00000   0.00002   0.00002   1.80585
   A53        1.93894  -0.00000   0.00000  -0.00000  -0.00000   1.93894
   A54        1.93673   0.00000   0.00000   0.00001   0.00001   1.93674
   A55        1.82260   0.00000   0.00000   0.00001   0.00001   1.82261
   A56        1.82572  -0.00001   0.00000  -0.00004  -0.00004   1.82569
   A57        2.10159   0.00000   0.00000   0.00001   0.00001   2.10159
    D1        0.01923  -0.00000   0.00000  -0.00001  -0.00001   0.01922
    D2       -3.13094   0.00000   0.00000   0.00012   0.00012  -3.13082
    D3       -3.12192   0.00000   0.00000   0.00005   0.00005  -3.12187
    D4        0.01109   0.00000   0.00000   0.00019   0.00019   0.01128
    D5       -3.14117   0.00000   0.00000   0.00005   0.00005  -3.14113
    D6       -0.00169   0.00000   0.00000   0.00005   0.00005  -0.00165
    D7       -0.00003  -0.00000   0.00000  -0.00002  -0.00002  -0.00005
    D8        3.13945  -0.00000   0.00000  -0.00002  -0.00002   3.13943
    D9       -3.14032  -0.00000   0.00000  -0.00003  -0.00003  -3.14035
   D10        0.00464  -0.00000   0.00000  -0.00003  -0.00003   0.00461
   D11        0.00169   0.00000   0.00000   0.00003   0.00003   0.00172
   D12       -3.13653   0.00000   0.00000   0.00003   0.00003  -3.13650
   D13       -0.01047   0.00000   0.00000   0.00008   0.00008  -0.01039
   D14        3.12923  -0.00000   0.00000  -0.00005  -0.00005   3.12917
   D15        3.13979  -0.00000   0.00000  -0.00006  -0.00006   3.13973
   D16       -0.00370  -0.00000   0.00000  -0.00019  -0.00019  -0.00389
   D17        3.12422   0.00000   0.00000   0.00009   0.00009   3.12431
   D18        0.01400   0.00000   0.00000   0.00001   0.00001   0.01401
   D19       -0.01926  -0.00000   0.00000  -0.00004  -0.00004  -0.01930
[...]
 .00000079,-0.00009976,0.00008662,0.00011880,-0.27208340,0.07706757,-0.
 03179408,0.00004034,-0.00009155,-0.00024069,-0.00020607,0.00011778,0.0
 0013098,-0.01764558,0.04091283,0.01178404,0.38874901,-0.00089912,0.000
 43747,0.00010343,0.00117398,-0.00020895,-0.00007892,-0.00070329,-0.000
 39949,0.00007700,0.00013940,0.00021913,-0.00001346,0.00025737,-0.00008
 518,-0.00002333,-0.00005144,-0.00002509,0.00000314,0.00000687,0.000019
 00,-0.00000162,0.00000262,-0.00000904,-0.00000002,0.00051778,-0.000513
 10,-0.00021717,-0.00087411,-0.00065007,0.00023708,0.00146115,-0.000764
 39,0.00207286,0.00003463,0.00088099,0.00031128,0.00063852,0.00003372,-
 0.00025941,0.00002233,0.00006429,-0.00000912,-0.00000188,0.00002828,-0
 .00000305,0.00001772,0.00000334,0.00000049,0.00002028,0.00000299,-0.00
 000419,-0.00000043,-0.00000158,-0.00000042,-0.00000042,-0.00000169,0.0
 0000082,0.00000037,0.00000039,-0.00000046,0.00000459,0.00000062,-0.000
 00052,0.00000051,0.00000056,0.00000039,0.00003250,-0.00003006,-0.00004
 053,0.07709549,-0.09562522,0.01160160,-0.00000844,0.00005748,0.0000533
 3,0.00007095,-0.00004105,-0.00004449,0.05478998,-0.04550830,-0.0111603
 8,-0.11788697,0.12422745,0.00232873,-0.00105603,-0.00028266,-0.0029717
 4,0.00054276,0.00019757,0.00176127,0.00100065,-0.00022217,-0.00034184,
 -0.00054481,0.00003875,-0.00063979,0.00021453,0.00005601,0.00012671,0.
 00006134,-0.00000322,-0.00001644,-0.00004823,0.00000462,-0.00000672,0.
 00002253,-0.00000080,-0.00123868,0.00133469,0.00074532,0.00175965,0.00
 159662,-0.00094862,-0.00408995,0.00129644,-0.00523464,0.00012780,-0.00
 234000,-0.00073954,-0.00180441,-0.00012587,0.00080437,-0.00006378,-0.0
 0016270,0.00001044,0.00000393,-0.00007061,0.00000532,-0.00004370,-0.00
 000738,-0.00000069,-0.00005095,-0.00000765,0.00001007,0.00000079,0.000
 00464,0.00000164,0.00000110,0.00000365,-0.00000190,-0.00000112,-0.0000
 0113,0.00000104,-0.00001141,-0.00000156,0.00000121,-0.00000086,-0.0000
 0103,-0.00000054,-0.00008522,0.00006923,0.00010012,-0.03649900,0.01331
 783,-0.07698679,0.00000570,-0.00003984,-0.00029151,-0.00016867,0.00009
 855,0.00010787,0.02298651,-0.02018500,0.00814913,0.00516662,-0.0025059
 8,0.06478015,-0.00012418,0.00069339,0.00008336,0.00044039,-0.00011259,
 -0.00002848,-0.00024861,-0.00016313,0.00004962,0.00003818,0.00008734,-
 0.00000852,0.00008778,-0.00002800,-0.00000886,-0.00001793,-0.00000679,
 -0.00000043,0.00000253,0.00000604,0.00000002,0.00000092,-0.00000279,-0
 .00000017,0.00068236,-0.00054792,-0.00036318,-0.00042345,-0.00019259,0
 .00009568,0.00092870,0.00038626,0.00088236,0.00040217,-0.00012013,-0.0
 0008334,-0.00020138,0.00001866,-0.00014119,0.00001288,0.00002196,0.000
 00920,0.00000004,0.00000965,0.00000115,0.00000630,0.00000086,0.0000001
 6,0.00000839,0.,-0.00000230,-0.00000030,-0.00000070,-0.00000002,-0.000
 00031,0.,-0.00000030,0.00000051,0.00000011,-0.00000035,0.00000116,0.00
 000055,-0.00000010,0.00000012,-0.00000017,0.00000006,0.00002541,-0.000
 02479,-0.00002144,-0.13901863,-0.07871184,0.07288084,-0.00001372,0.000
 07341,0.00008378,0.00003644,-0.00002698,-0.00000118,0.00122514,-0.0308
 4628,0.00074934,-0.07609454,-0.02371977,0.03505413,0.21325206,-0.00041
 352,0.00031709,0.00003047,0.00059333,-0.00009950,-0.00006034,-0.000362
 80,-0.00021529,0.00005431,0.00008618,0.00011581,-0.00001057,0.00013480
 ,-0.00003955,-0.00000682,-0.00002803,-0.00001476,-0.00000094,0.0000039
 6,0.00000972,-0.00000038,0.00000112,-0.00000454,0.00000040,0.00048353,
 -0.00014914,-0.00013468,-0.00002034,-0.00074213,0.00025170,0.00110817,
 0.00071398,0.00057234,0.00006383,0.00037324,-0.00019920,0.00019105,-0.
 00001077,-0.00001655,0.00001146,0.00003073,0.00000268,-0.00000198,0.00
 001328,-0.00000168,0.00000970,0.00000147,0.00000033,0.00001056,0.00000
 190,-0.00000290,-0.00000037,-0.00000079,0.00000004,-0.00000034,-0.0000
 0063,-0.00000018,0.00000043,0.00000013,-0.00000053,0.00000217,0.000000
 54,-0.00000023,0.00000036,0.00000010,0.00000033,0.00004476,-0.00004371
 ,-0.00003598,-0.08042699,-0.15238600,0.08313842,-0.00004419,0.00012024
 ,-0.00003298,0.00006026,-0.00002991,0.00001051,-0.03627876,-0.07388572
 ,0.01408465,-0.01080348,0.01455123,-0.00025563,0.13728659,0.21727755,0
 .00111239,-0.00057134,-0.00011359,-0.00150269,0.00027331,0.00012884,0.
 00091493,0.00051649,-0.00013651,-0.00021117,-0.00027689,0.00003077,-0.
 00034022,0.00011283,0.00003866,0.00006754,0.00003662,-0.00000253,-0.00
 000939,-0.00002542,0.00000370,-0.00000349,0.00001185,-0.00000089,-0.00
 080429,0.00031662,0.00019309,-0.00012527,0.00151763,-0.00057335,-0.002
 96809,-0.00155924,-0.00146375,0.00011838,-0.00099504,0.00001647,-0.000
 78661,-0.00001431,0.00018971,-0.00003423,-0.00008074,0.00000428,0.0000
 0250,-0.00003593,0.00000024,-0.00002281,-0.00000363,0.00000008,-0.0000
 2657,-0.00000551,0.00000613,0.00000011,0.00000309,0.00000068,0.0000010
 1,0.00000107,-0.00000026,-0.00000099,-0.00000072,0.00000089,-0.0000058
 2,-0.00000108,0.00000056,-0.00000035,-0.00000024,-0.00000026,-0.000097
 23,0.00008440,0.00006447,0.07510565,0.08408440,-0.15249727,0.00007303,
 -0.00015368,-0.00006158,-0.00011942,0.00006550,0.00000245,-0.00583766,
 -0.00359175,0.01791973,0.01968370,0.00090598,0.00677050,-0.11058349,-0
 .10602573,0.14931422,-0.01976717,0.00702152,0.00232863,0.02439431,-0.0
 0443800,-0.00275020,-0.01452125,-0.00830300,0.00137372,0.00261698,0.00
 456107,-0.00031604,0.00523903,-0.00175869,-0.00035641,-0.00102115,-0.0
 0049324,0.00009004,0.00013192,0.00038932,-0.00004111,0.00005329,-0.000
 18200,0.00000220,0.00969310,-0.01391140,0.00118870,-0.04531142,-0.0026
 0474,0.00398280,-0.14383373,0.02860779,-0.00734018,-0.01733794,0.03244
 506,0.00058618,0.01871517,0.00064004,-0.00001944,0.00054502,0.00134036
 ,-0.00008284,-0.00003231,0.00058186,-0.00003267,0.00037036,0.00005423,
 -0.00000104,0.00039985,0.00006848,-0.00008907,-0.00000558,-0.00003718,
 -0.00001335,-0.00000927,-0.00003029,0.00001801,0.00000796,0.00000840,-
 0.00000710,0.00009336,0.00001218,-0.00001064,0.00000771,0.00000957,0.0
 0000499,0.00023353,0.00009279,0.00003478,-0.04877306,0.00686184,-0.034
 88079,-0.00055622,-0.00220683,-0.00070691,0.00126435,-0.00086355,-0.00
 013324,0.00474150,0.00194334,0.00401328,-0.02550336,0.00979393,-0.0251
 2912,-0.00155542,-0.01305826,0.02601861,0.58137123,0.00571947,-0.00805
 422,-0.00057227,-0.00929822,0.00196045,0.00099868,0.00562020,0.0031269
 5,-0.00053061,-0.00115666,-0.00162922,0.00012262,-0.00207485,0.0007189
 4,0.00013224,0.00041464,0.00020800,-0.00003494,-0.00005304,-0.00015431
 ,0.00001604,-0.00002065,0.00007254,-0.00000116,-0.01018192,0.00307835,
 0.00045393,0.00186155,0.01714029,-0.00142901,0.02806027,-0.08278292,0.
 00389832,0.02893797,-0.01111300,-0.00187741,-0.00381313,-0.00624253,0.
 00044209,-0.00028386,-0.00050066,0.00003623,0.00001133,-0.00022198,0.0
 0001282,-0.00014530,-0.00002420,-0.00000272,-0.00015682,-0.00002893,0.
 00003705,0.00000220,0.00001374,0.00000373,0.00000328,0.00001198,-0.000
 00548,-0.00000384,-0.00000318,0.00000418,-0.00003608,-0.00000530,0.000
 00416,-0.00000414,-0.00000413,-0.00000328,-0.00084189,0.00072816,0.000
 23571,0.00607488,-0.02888218,0.00669011,0.00080039,-0.00308305,0.00036
 772,0.00069990,0.00021247,-0.00010245,-0.00720700,-0.01710810,-0.03299
 903,0.01143926,-0.00090970,0.00973734,-0.00519431,-0.00874215,0.022905
 09,0.15154678,0.92726098,0.00335523,-0.00127877,-0.00132250,-0.0044756
 5,0.00071618,-0.00070032,0.00257335,0.00150402,-0.00044568,-0.00049928
 ,-0.00081239,0.00000164,-0.00095491,0.00031500,0.00020104,0.00018536,0
 .00009092,0.00002260,-0.00002485,-0.00006773,0.00001223,-0.00001075,0.
 00003423,-0.00000048,-0.00064389,0.00198158,0.00728121,0.00551189,0.00
 085936,-0.00566689,0.00153117,0.00050564,-0.05785164,0.00024304,-0.004
 79272,-0.00523741,-0.00180643,0.00041485,0.00738966,-0.00007689,-0.000
 21728,0.00006880,0.00001037,-0.00009587,0.00004258,-0.00005568,-0.0000
 2221,-0.00001060,-0.00008337,-0.00000596,0.00000815,-0.00000090,0.0000
 0696,0.00000168,0.00000391,0.00000757,-0.00000570,-0.00000018,-0.00000
 091,0.00000056,-0.00001703,-0.00000181,0.00000202,-0.00000282,-0.00000
 298,-0.00000169,0.00005007,0.00008048,0.00116384,-0.04946898,0.0125529
 8,-0.17060545,-0.00024332,0.00067040,-0.00300380,-0.00020269,0.0001811
 7,0.00113058,0.00036763,0.00367338,0.00286125,0.01209531,-0.00450988,0
 .00867644,-0.00180841,-0.00163350,0.00064479,-0.08216815,0.00764319,0.
 51015914,0.00282470,-0.00037966,-0.00034184,-0.00342062,0.00059177,0.0
 0043325,0.00215760,0.00118028,-0.00016378,-0.00048622,-0.00064791,0.00
 005564,-0.00080281,0.00026609,0.00006404,0.00015552,0.00008221,-0.0000
 2235,-0.00002147,-0.00005883,0.00000665,-0.00000838,0.00002818,0.00000
 058,-0.00044002,0.00174978,-0.00074626,0.00073421,0.00052142,0.0006242
 7,0.00514490,0.02548838,0.00927571,-0.00443476,-0.00430789,0.00271035,
 -0.00211484,0.00203644,-0.00091680,-0.00007168,-0.00019720,0.00000251,
 0.00000630,-0.00008677,0.00000462,-0.00005485,-0.00000905,0.00000059,-
 0.00005822,-0.00001200,0.00001443,0.00000023,0.00000630,0.00000227,0.0
 0000178,0.00000467,-0.00000294,-0.00000113,-0.00000153,0.00000114,-0.0
 0001466,-0.00000180,0.00000165,-0.00000100,-0.00000155,-0.00000073,-0.
 00004580,0.00001771,0.00002011,0.00580435,-0.00626327,0.00225151,0.000
 38431,0.00019969,0.00032201,-0.00074372,0.00016155,-0.00015558,-0.0006
 4001,-0.00195745,-0.00374559,0.00201472,-0.00098179,0.00114228,0.00111
 291,0.00245530,-0.00317903,-0.07281846,0.00438765,-0.00264922,0.057258
 74,-0.00443705,0.00152676,0.00042955,0.00515054,-0.00074134,-0.0006222
 3,-0.00310885,-0.00177694,0.00027307,0.00068377,0.00096267,-0.00007059
 ,0.00114775,-0.00036657,-0.00006989,-0.00022841,-0.00011931,0.00002072
 ,0.00003137,0.00008614,-0.00001024,0.00001111,-0.00004112,0.00000072,0
 .00243141,-0.00069075,0.00042431,-0.00390833,-0.00342398,0.00050304,-0
 .00645037,-0.01805552,-0.00747911,0.00592787,0.00429898,-0.00236445,0.
 00264126,-0.00185948,0.00052290,0.00004997,0.00029418,-0.00000535,-0.0
 0000883,0.00012359,-0.00000683,0.00008198,0.00001224,0.00000021,0.0000
 8546,0.00001618,-0.00002042,-0.00000221,-0.00000689,-0.00000164,-0.000
 00257,-0.00000655,0.00000313,0.00000193,0.00000178,-0.00000230,0.00002
 065,0.00000299,-0.00000243,0.00000236,0.00000256,0.00000201,0.00028026
 ,-0.00019396,0.00003612,0.00670794,-0.01620146,0.01731655,-0.00029183,
 0.00055351,-0.00037226,0.00098377,-0.00024028,0.00013063,-0.00149351,-
 0.00492627,-0.01009738,-0.00637800,0.00438888,-0.00316855,0.00263306,0
 .00608762,-0.00654069,-0.00507876,-0.49461158,-0.14919337,0.00029783,0
 .54320579,-0.00013150,0.00049137,0.00022498,0.00038736,-0.00004271,0.0
 0000251,-0.00027463,-0.00014248,0.00002463,0.00009879,0.00006828,-0.00
 001522,0.00012054,-0.00003857,-0.00001290,-0.00002041,-0.00001583,-0.0
 0000074,0.00000396,0.00000767,-0.00000144,0.00000202,-0.00000531,0.000
 00074,0.00040862,-0.00013264,-0.00019734,-0.00079274,-0.00023369,0.000
 13765,-0.00372798,-0.00464429,0.00797759,0.00299771,0.00012863,0.00147
 366,-0.00072872,-0.00099568,-0.00070068,-0.00000088,0.00001469,-0.0000
 2449,-0.00000169,0.00001168,-0.00000611,0.00000701,0.00000352,0.000001
 67,0.00000798,0.00000077,-0.00000130,0.00000008,-0.00000010,-0.0000000
 9,-0.00000006,-0.00000125,0.00000078,-0.00000023,0.00000002,-0.0000000
 7,0.00000215,0.00000016,-0.00000034,0.00000062,0.00000070,0.00000056,0
 .00003697,-0.00004833,-0.00007180,0.00930992,-0.02806897,0.01539885,0.
 00009759,0.00004036,0.00025697,0.00026322,-0.00005942,-0.00026785,-0.0
 0327814,-0.00829820,-0.01507612,-0.00428415,0.00330493,-0.00270925,0.0
 0012312,0.00271402,-0.00376793,-0.00470729,-0.15283884,-0.13145007,-0.
 00219243,0.17363694,0.11319046,0.00427895,-0.00305594,-0.00044781,-0.0
 0570356,0.00113766,0.00073708,0.00360392,0.00185085,-0.00027835,-0.000
 93559,-0.00094988,0.00011554,-0.00136077,0.00048546,0.00008207,0.00027
 088,0.00014144,-0.00003592,-0.00003506,-0.00010277,0.00001054,-0.00001
 380,0.00004880,-0.00000016,-0.00440012,-0.00017763,-0.00084946,-0.0012
 5773,0.00989555,0.00239774,-0.01438824,-0.02756501,0.01524420,0.000574
 72,-0.00372097,0.00067765,-0.00261783,-0.00032174,-0.00072464,-0.00015
 591,-0.00031734,0.00001732,0.00000598,-0.00014546,0.00000568,-0.000095
 42,-0.00001449,0.00000196,-0.00009821,-0.00002152,0.00002355,0.0000011
 8,0.00000989,0.00000360,0.00000209,0.00000819,-0.00000482,-0.00000191,
 -0.00000245,0.00000196,-0.00002490,-0.00000288,0.00000291,-0.00000198,
 -0.00000275,-0.00000138,-0.00067386,0.00064774,-0.00027119,-0.00356460
 ,-0.00464525,-0.00884687,-0.00082244,-0.00019986,0.00059737,-0.0004209
 4,0.00026852,0.00000922,0.00076444,0.00236492,0.00160983,0.00647345,-0
 .00093561,0.00268491,-0.00060633,-0.00111990,0.00350443,-0.25715772,-0
 .20238087,0.11943926,0.00866415,0.00172292,0.00629582,0.26914339,0.001
 50274,-0.00043914,-0.00010677,-0.00137993,0.00042123,0.00012256,0.0008
 6777,0.00040749,-0.00009169,-0.00020121,-0.00022751,0.00001813,-0.0003
 0274,0.00011880,0.00001490,0.00006200,0.00002637,0.00000148,-0.0000069
 6,-0.00002366,0.00000284,-0.00000301,0.00001048,-0.00000072,-0.0004012
 7,0.00041326,0.00023317,-0.00064316,0.00105392,-0.00007697,0.00354660,
 0.00219657,-0.00022531,0.00038605,-0.00319035,-0.00042050,-0.00068726,
 0.00147490,0.00003904,-0.00004640,-0.00008237,0.00000299,0.00000029,-0
 .00003619,0.00000219,-0.00002194,-0.00000251,0.00000122,-0.00002449,-0
 .00000348,0.00000404,0.00000114,0.00000175,0.00000105,0.00000039,0.000
 00214,-0.00000171,-0.00000023,-0.00000046,-0.00000007,-0.00000586,-0.0
 0000049,0.00000065,-0.00000023,-0.00000065,0.00000003,-0.00012606,0.00
 010210,-0.00003956,-0.01554617,-0.00589840,-0.01209148,0.00107117,0.00
 161716,-0.00013540,-0.00024687,0.00006016,-0.00003440,0.00212103,0.006
 68099,0.00609321,0.00383480,-0.00015697,0.00123397,-0.00163389,-0.0033
 1065,0.00903520,-0.19331402,-0.28780736,0.13166936,-0.02636286,-0.0191
 4745,0.01524511,0.22719996,0.30531528,-0.00069637,-0.00001980,0.000130
 88,0.00073399,-0.00012270,0.00000489,-0.00047874,-0.00022541,0.0001011
 4,0.00019100,0.00010099,0.00000081,0.00019913,-0.00007269,-0.00002990,
 -0.00003783,-0.00002452,-0.00000692,0.00000563,0.00001527,-0.00000375,
 0.00000300,-0.00000842,0.00000033,0.00027417,0.00105868,-0.00087027,0.
 00222454,-0.00226816,0.00162436,0.00091531,0.00729461,0.00703956,-0.00
 034748,0.00113597,0.00008789,0.00046376,-0.00028364,-0.00021982,0.0000
 1581,0.00003252,0.00000149,-0.00000061,0.00001893,-0.00001011,0.000011
 38,0.00000529,0.00000139,0.00001381,0.00000204,-0.00000124,0.00000016,
 -0.00000114,-0.00000053,0.,-0.00000241,0.00000180,0.00000007,0.0000002
 4,0.,0.00000372,0.00000022,-0.00000046,0.00000071,0.00000092,0.0000004
 0,0.00015809,-0.00020497,-0.00026980,0.02746915,0.01639802,0.01475949,
 -0.00009262,-0.00008459,-0.00000848,0.00013255,-0.00005685,-0.00007553
 ,-0.00209552,-0.00308212,-0.00410046,-0.00604308,0.00009840,-0.0027193
 5,0.00278805,0.00747636,-0.01658182,0.11977101,0.13612729,-0.16006848,
 -0.00309529,-0.01272456,0.01566119,-0.14248961,-0.15048552,0.14529456,
 -0.00477668,0.00139616,0.00140638,0.00019562,0.00154405,-0.00006938,0.
 00047173,0.00021931,-0.00002250,-0.00009575,-0.00015781,0.00002074,-0.
 00017600,0.00000893,0.00001133,0.00003545,0.00003353,-0.00000475,-0.00
 000751,-0.00001371,0.00000184,-0.00000191,0.00000707,-0.00000018,-0.00
 007374,0.02864813,-0.00019363,-0.06556480,0.04344238,0.00163772,0.0081
 7970,-0.02289221,-0.00011330,-0.00426381,-0.00256218,0.00125660,-0.000
 85977,0.00014354,-0.00011898,-0.00039369,0.00008016,0.00000380,0.00001
 261,-0.00002541,-0.00000187,-0.00000925,-0.00000400,-0.00000065,-0.000
 00964,-0.00000453,0.00000338,0.00000001,0.00000111,0.00000034,0.000000
 20,0.00000082,-0.00000051,-0.00000021,-0.00000029,0.00000046,-0.000003
 22,-0.00000064,0.00000039,-0.00000030,-0.00000041,-0.00000046,0.001246
 42,-0.00052712,-0.00068431,-0.00039807,-0.00011033,-0.00017652,0.00048
 713,-0.00114779,0.00003575,0.00013268,0.00004706,-0.00007639,0.0000491
 3,0.00013660,0.00014696,0.00008994,-0.00001772,0.00001330,0.00004040,0
 .00001141,0.00005655,-0.00167461,-0.00272719,-0.00017319,-0.00008575,0
 .00049553,-0.00002265,0.00055378,0.00036060,0.00000209,0.06689991,0.00
 066364,0.00121882,0.00004573,0.00017566,-0.00029978,-0.00001545,-0.000
 26445,-0.00014201,0.00003099,0.00004645,0.00008470,-0.00000645,0.00009
 966,-0.00002222,-0.00000925,-0.00002053,-0.00001462,0.00000198,0.00000
 314,0.00000750,-0.00000074,0.00000071,-0.00000367,0.00000009,-0.000044
 42,-0.00437683,0.00020939,0.04357677,-0.34480416,0.00239509,0.00290986
 ,-0.01293416,0.00007140,-0.00310913,0.00008138,0.00038783,0.00021912,0
 .00061692,-0.00005095,0.00006856,0.00004046,-0.00001099,-0.00000297,0.
 00001116,-0.00000029,0.00000627,0.00000191,0.00000020,0.00000655,0.000
 00213,-0.00000177,-0.00000032,-0.00000070,-0.00000023,-0.00000021,-0.0
 0000067,0.00000039,0.00000017,0.00000028,-0.00000032,0.00000181,0.0000
 0019,-0.00000022,0.00000021,0.00000034,0.00000027,-0.00010112,0.000737
 52,-0.00007962,-0.00037151,-0.00014922,-0.00006054,0.00031131,-0.00045
 683,-0.00000069,0.00004425,-0.00005195,-0.00001159,0.00002328,0.000075
 99,0.00005118,0.00003139,0.00001405,-0.00001278,0.00011479,0.00006064,
 0.00001184,0.00030139,-0.00262415,-0.00027188,0.00179431,0.00084558,-0
 .00010256,-0.00009959,0.00042502,-0.00009825,-0.04638504,0.36165639,0.
 00146408,0.00022953,0.00816735,-0.00008150,-0.00014223,-0.00019583,-0.
 00002295,-0.00001365,0.00010686,0.00000380,0.00001683,0.00006973,0.000
 00710,0.00000109,-0.00003436,0.00000089,-0.00000222,0.00002072,0.00000
 082,0.00000114,-0.00000032,0.00000025,-0.00000059,-0.00000014,0.000792
 19,-0.00287414,0.00541490,0.00126420,0.00204746,-0.03895312,-0.0002762
 6,0.00295706,0.00252386,0.00125975,0.00018116,0.00567694,-0.00025321,-
 0.00006967,-0.00129616,0.00000084,-0.00001874,-0.00034007,-0.00000411,
 0.00000150,-0.00002219,0.00000106,0.00000240,0.00000030,0.00000001,-0.
 00000125,0.00000037,-0.00000005,-0.00000011,-0.00000006,-0.00000011,0.
 00000027,-0.00000035,0.00000010,0.00000008,-0.00000017,0.00000021,0.00
 000008,-0.00000010,-0.00000017,-0.00000014,-0.00000010,-0.00066154,-0.
 00009760,-0.00492504,-0.00068566,0.00001212,0.00071096,0.00000409,0.00
 015872,0.00068417,-0.00008932,-0.00001786,-0.00065069,0.00007936,-0.00
 005387,-0.00008142,-0.00025476,0.00010223,-0.00031891,0.00025087,0.000
 08225,-0.00013052,-0.00062739,0.00052864,-0.00329751,0.00027822,-0.000
 54761,-0.00004850,0.00048756,-0.00001103,0.00025674,-0.00293836,-0.002
 47184,0.02666267\\-0.00000102,0.00000717,0.00000883,0.00000801,0.00000
 247,-0.00000733,-0.00000356,0.00000119,0.00000371,-0.00000327,-0.00000
 007,-0.00001328,-0.00000176,-0.00000330,0.00000316,0.00000194,-0.00000
 188,-0.00000557,-0.00000042,0.00000104,0.00000206,-0.00000228,-0.00000
 454,-0.00000236,0.00000435,-0.00000086,-0.00000738,-0.00000437,-0.0000
 0273,-0.00000587,0.00001165,0.00001449,-0.00000820,-0.00000305,0.00000
 484,0.00001327,0.00000002,0.00000218,0.00000931,0.00000147,0.00000102,
 0.00001847,0.00000018,-0.00000072,0.00000980,0.00000208,0.00000426,-0.
 00000782,-0.00000300,-0.00000696,-0.00000765,-0.00000227,-0.00000882,0
 .00000904,0.00000085,0.00000426,0.00000845,-0.00000210,-0.00000992,-0.
 00000792,-0.00000029,-0.00000364,0.00000195,0.00000081,0.00000377,-0.0
 0000828,0.00000179,0.00000202,-0.00001377,0.00001342,-0.00002108,0.000
 00102,0.00000201,0.00000487,0.00001562,0.00000042,0.00000345,0.0000185
 4,-0.00000451,-0.00000846,0.00000827,-0.00001847,-0.00000208,-0.000004
 08,0.00000231,-0.00000868,-0.00001058,-0.00001052,0.00000213,0.0000008
 0,0.00000124,0.00000741,-0.00001259,0.00000767,0.00001380,0.00000831,0
 .00000065,0.00000338,-0.00001790\\\@


 WOE UNTO THEM THAT CALL EVIL GOOD, AND GOOD EVIL      
 Job cpu time:       0 days  6 hours 19 minutes 26.1 seconds.
 File lengths (MBytes):  RWF=    916 Int=      0 D2E=      0 Chk=     27 Scr=      1
 Normal termination of Gaussian 09 at Thu Nov 14 11:10:34 2019.
pbs_rusage has been removed.
Please contact help@nci.org.au if you require this functionality.
