 Entering Gaussian System, Link 0=/apps/gaussian/g09e01/g09/g09
 Initial command:
 /apps/gaussian/g09e01/g09/l1.exe "/jobfs/local/3579030.r-man2/Gau-8656.inp" -scrdir="/jobfs/local/3579030.r-man2/"
 Entering Link 1 = /apps/gaussian/g09e01/g09/l1.exe PID=      8657.
  
 Copyright (c) 1988,1990,1992,1993,1995,1998,2003,2009,2015,
            Gaussian, Inc.  All Rights Reserved.
  
 This is part of the Gaussian(R) 09 program.  It is based on
 the Gaussian(R) 03 system (copyright 2003, Gaussian, Inc.),
 the Gaussian(R) 98 system (copyright 1998, Gaussian, Inc.),
 the Gaussian(R) 94 system (copyright 1995, Gaussian, Inc.),
 the Gaussian 92(TM) system (copyright 1992, Gaussian, Inc.),
 the Gaussian 90(TM) system (copyright 1990, Gaussian, Inc.),
 the Gaussian 88(TM) system (copyright 1988, Gaussian, Inc.),
 the Gaussian 86(TM) system (copyright 1986, Carnegie Mellon
 University), and the Gaussian 82(TM) system (copyright 1983,
 Carnegie Mellon University). Gaussian is a federally registered
 trademark of Gaussian, Inc.
  
 This software contains proprietary and confidential information,
 including trade secrets, belonging to Gaussian, Inc.
  
 This software is provided under written license and may be
 used, copied, transmitted, or stored only in accord with that
 written license.
  
 The following legend is applicable only to US Government
 contracts under FAR:
  
                    RESTRICTED RIGHTS LEGEND
  
 Use, reproduction and disclosure by the US Government is
 subject to restrictions as set forth in subparagraphs (a)
 and (c) of the Commercial Computer Software - Restricted
 Rights clause in FAR 52.227-19.
  
 Gaussian, Inc.
 340 Quinnipiac St., Bldg. 40, Wallingford CT 06492
  
  
 ---------------------------------------------------------------
 Warning -- This program may not be used in any manner that
 competes with the business of Gaussian, Inc. or will provide
 assistance to any competitor of Gaussian, Inc.  The licensee
 of this program is prohibited from giving any competitor of
 Gaussian, Inc. access to this program.  By using this program,
 the user acknowledges that Gaussian, Inc. is engaged in the
 business of creating and licensing software in the field of
 computational chemistry and represents and warrants to the
 licensee that it is not a competitor of Gaussian, Inc. and that
 it will not use this program in any manner prohibited above.
 ---------------------------------------------------------------
  

 Cite this work as:
 Gaussian 09, Revision E.01,
 M. J. Frisch, G. W. Trucks, H. B. Schlegel, G. E. Scuseria, 
 M. A. Robb, J. R. Cheeseman, G. Scalmani, V. Barone, B. Mennucci, 
 G. A. Petersson, H. Nakatsuji, M. Caricato, X. Li, H. P. Hratchian, 
 A. F. Izmaylov, J. Bloino, G. Zheng, J. L. Sonnenberg, M. Hada, 
 M. Ehara, K. Toyota, R. Fukuda, J. Hasegawa, M. Ishida, T. Nakajima, 
 Y. Honda, O. Kitao, H. Nakai, T. Vreven, J. A. Montgomery, Jr., 
 J. E. Peralta, F. Ogliaro, M. Bearpark, J. J. Heyd, E. Brothers, 
 K. N. Kudin, V. N. Staroverov, T. Keith, R. Kobayashi, J. Normand, 
 K. Raghavachari, A. Rendell, J. C. Burant, S. S. Iyengar, J. Tomasi, 
 M. Cossi, N. Rega, J. M. Millam, M. Klene, J. E. Knox, J. B. Cross, 
 V. Bakken, C. Adamo, J. Jaramillo, R. Gomperts, R. E. Stratmann, 
 O. Yazyev, A. J. Austin, R. Cammi, C. Pomelli, J. W. Ochterski, 
 R. L. Martin, K. Morokuma, V. G. Zakrzewski, G. A. Voth, 
 P. Salvador, J. J. Dannenberg, S. Dapprich, A. D. Daniels, 
 O. Farkas, J. B. Foresman, J. V. Ortiz, J. Cioslowski, 
 and D. J. Fox, Gaussian, Inc., Wallingford CT, 2013.
 
 ******************************************
 Gaussian 09:  ES64L-G09RevE.01 30-Nov-2015
                14-Nov-2019 
 ******************************************
 %chk=CP21.M062X_6-311pGd_opt_Pentadecane_GD3.chk
 %mem=196608000
 %nproc=4
 Will use up to    4 processors via shared memory.
 ----------------------------------------------------------------------
 # M062X/6-311+G* SCF=Tight INT(grid=ultrafine) OPT IOP(2/17=4) Empiric
 alDispersion=GD3 SCRF=(SMD,Solvent=n-Pentadecane) maxdisk=2684354560
 ----------------------------------------------------------------------
 1/14=-1,18=20,19=15,26=4,38=1/1,3;
 2/9=110,12=2,17=4,18=5,40=1/2;
 3/5=4,6=6,7=11,11=2,16=1,25=1,30=1,70=32201,71=1,72=151,74=-55,75=-5,124=31/1,2,3;
 4//1;
 5/5=2,32=2,38=5,53=151/2;
 6/7=2,8=2,9=2,10=2,28=1/1;
 7//1,2,3,16;
 1/14=-1,18=20,19=15,26=4/3(2);
 2/9=110,17=4/2;
 99//99;
 2/9=110,17=4/2;
 3/5=4,6=6,7=11,11=2,16=1,25=1,30=1,70=32205,71=1,72=151,74=-55,75=-5,124=31/1,2,3;
 4/5=5,16=3,69=1/1;
 5/5=2,32=2,38=5,53=151/2;
 7//1,2,3,16;
 1/14=-1,18=20,19=15,26=4/3(-5);
 2/9=110,17=4/2;
 6/7=2,8=2,9=2,10=2,19=2,28=1/1;
 99/9=1/99;
 ---------------------------------------
 CP21.M062X_6-311pGd_opt_Pentadecane_GD3
 ---------------------------------------
 Symbolic Z-matrix:
 Charge =  0 Multiplicity = 1
 C                    -6.09315   1.28519   0.31277 
 N                    -4.84226   0.69244   0.20657 
 C                    -3.60865   1.31759   0.02044 
 O                    -3.48236   2.51151  -0.1619 
 N                    -2.5585    0.44987   0.03707 
 C                    -1.19386   0.9506   -0.06555 
 C                    -0.22005  -0.20444  -0.24584 
 C                     1.21657   0.29098  -0.36517 
 C                    -6.30324   2.67358   0.29211 
 C                    -7.5886    3.17234   0.42331 
 C                    -8.66106   2.29751   0.57178 
 C                    -8.47268   0.91636   0.59172 
 C                    -7.19254   0.41975   0.46291 
 H                    -4.84329  -0.31798   0.21732 
 H                    -2.68378  -0.47299   0.42839 
 H                    -0.934     1.53585   0.82375 
 H                    -1.14595   1.62723  -0.92076 
 H                    -0.49946  -0.77101  -1.1395 
 H                    -0.30343  -0.88924   0.6061 
 H                     1.3326    0.95756  -1.2234 
 H                     1.91134  -0.54076  -0.49447 
 H                     1.52094   0.84254   0.52795 
 H                    -5.46805   3.34585   0.17707 
 C                    -10.82409   3.02305  -1.09009 
 H                    -9.3169    0.24843   0.71664 
 H                    -7.0304   -0.65293   0.48638 
 F                    -10.78772   1.81341  -1.6337 
 F                    -12.06     3.49051  -1.14772 
 F                    -10.01897   3.82639  -1.77096 
 S                    -10.28895   2.93931   0.69595 
 O                    -10.25508   4.3189    1.13771 
 O                    -11.16827   1.957     1.2991 
 H                    -7.75755   4.24314   0.41845 
 

 GradGradGradGradGradGradGradGradGradGradGradGradGradGradGradGradGradGrad
 Berny optimization.
 Initialization pass.
                           ----------------------------
                           !    Initial Parameters    !
                           ! (Angstroms and Degrees)  !
 --------------------------                            --------------------------
 ! Name  Definition              Value          Derivative Info.                !
 --------------------------------------------------------------------------------
 ! R1    R(1,2)                  1.3883         estimate D2E/DX2                !
 ! R2    R(1,9)                  1.4043         estimate D2E/DX2                !
 ! R3    R(1,13)                 1.4072         estimate D2E/DX2                !
 ! R4    R(2,3)                  1.3954         estimate D2E/DX2                !
 ! R5    R(2,14)                 1.0105         estimate D2E/DX2                !
 ! R6    R(3,4)                  1.2143         estimate D2E/DX2                !
 ! R7    R(3,5)                  1.3624         estimate D2E/DX2                !
 ! R8    R(5,6)                  1.4572         estimate D2E/DX2                !
 ! R9    R(5,15)                 1.0102         estimate D2E/DX2                !
 ! R10   R(6,7)                  1.5215         estimate D2E/DX2                !
 ! R11   R(6,16)                 1.0959         estimate D2E/DX2                !
 ! R12   R(6,17)                 1.0916         estimate D2E/DX2                !
 ! R13   R(7,8)                  1.5243         estimate D2E/DX2                !
 ! R14   R(7,18)                 1.0944         estimate D2E/DX2                !
 ! R15   R(7,19)                 1.0962         estimate D2E/DX2                !
 ! R16   R(8,20)                 1.0929         estimate D2E/DX2                !
 ! R17   R(8,21)                 1.0914         estimate D2E/DX2                !
 ! R18   R(8,22)                 1.0929         estimate D2E/DX2                !
 ! R19   R(9,10)                 1.385          estimate D2E/DX2                !
 ! R20   R(9,23)                 1.0783         estimate D2E/DX2                !
 ! R21   R(10,11)                1.392          estimate D2E/DX2                !
 ! R22   R(10,33)                1.0841         estimate D2E/DX2                !
 ! R23   R(11,12)                1.3941         estimate D2E/DX2                !
 ! R24   R(11,30)                1.7542         estimate D2E/DX2                !
 ! R25   R(12,13)                1.3791         estimate D2E/DX2                !
 ! R26   R(12,25)                1.0837         estimate D2E/DX2                !
 ! R27   R(13,26)                1.0851         estimate D2E/DX2                !
 ! R28   R(24,27)                1.3267         estimate D2E/DX2                !
 ! R29   R(24,28)                1.3226         estimate D2E/DX2                !
 ! R30   R(24,29)                1.3256         estimate D2E/DX2                !
 ! R31   R(24,30)                1.8664         estimate D2E/DX2                !
 ! R32   R(30,31)                1.449          estimate D2E/DX2                !
 ! R33   R(30,32)                1.4498         estimate D2E/DX2                !
 ! A1    A(2,1,9)              123.7647         estimate D2E/DX2                !
 ! A2    A(2,1,13)             116.7124         estimate D2E/DX2                !
 ! A3    A(9,1,13)             119.5193         estimate D2E/DX2                !
 ! A4    A(1,2,3)              127.9853         estimate D2E/DX2                !
 ! A5    A(1,2,14)             115.1643         estimate D2E/DX2                !
 ! A6    A(3,2,14)             116.7619         estimate D2E/DX2                !
 ! A7    A(2,3,4)              123.5335         estimate D2E/DX2                !
 ! A8    A(2,3,5)              113.2331         estimate D2E/DX2                !
 ! A9    A(4,3,5)              123.2213         estimate D2E/DX2                !
 ! A10   A(3,5,6)              120.1415         estimate D2E/DX2                !
 ! A11   A(3,5,15)             119.4062         estimate D2E/DX2                !
 ! A12   A(6,5,15)             117.2145         estimate D2E/DX2                !
 ! A13   A(5,6,7)              110.295          estimate D2E/DX2                !
 ! A14   A(5,6,16)             110.3914         estimate D2E/DX2                !
 ! A15   A(5,6,17)             108.0154         estimate D2E/DX2                !
 ! A16   A(7,6,16)             110.4763         estimate D2E/DX2                !
 ! A17   A(7,6,17)             110.4657         estimate D2E/DX2                !
 ! A18   A(16,6,17)            107.1184         estimate D2E/DX2                !
 ! A19   A(6,7,8)              111.4541         estimate D2E/DX2                !
 ! A20   A(6,7,18)             109.049          estimate D2E/DX2                !
 ! A21   A(6,7,19)             109.4794         estimate D2E/DX2                !
 ! A22   A(8,7,18)             110.1785         estimate D2E/DX2                !
 ! A23   A(8,7,19)             109.6063         estimate D2E/DX2                !
 ! A24   A(18,7,19)            106.9648         estimate D2E/DX2                !
 ! A25   A(7,8,20)             111.0863         estimate D2E/DX2                !
 ! A26   A(7,8,21)             111.195          estimate D2E/DX2                !
 ! A27   A(7,8,22)             111.2544         estimate D2E/DX2                !
 ! A28   A(20,8,21)            107.7096         estimate D2E/DX2                !
 ! A29   A(20,8,22)            107.7192         estimate D2E/DX2                !
 ! A30   A(21,8,22)            107.7048         estimate D2E/DX2                !
 ! A31   A(1,9,10)             119.5696         estimate D2E/DX2                !
 ! A32   A(1,9,23)             120.1369         estimate D2E/DX2                !
 ! A33   A(10,9,23)            120.2933         estimate D2E/DX2                !
 ! A34   A(9,10,11)            119.9227         estimate D2E/DX2                !
 ! A35   A(9,10,33)            119.9958         estimate D2E/DX2                !
 ! A36   A(11,10,33)           120.0796         estimate D2E/DX2                !
 ! A37   A(10,11,12)           121.3369         estimate D2E/DX2                !
 ! A38   A(10,11,30)           119.5109         estimate D2E/DX2                !
 ! A39   A(12,11,30)           119.1338         estimate D2E/DX2                !
 ! A40   A(11,12,13)           118.7406         estimate D2E/DX2                !
 ! A41   A(11,12,25)           120.4643         estimate D2E/DX2                !
 ! A42   A(13,12,25)           120.7921         estimate D2E/DX2                !
 ! A43   A(1,13,12)            120.9106         estimate D2E/DX2                !
 ! A44   A(1,13,26)            119.5733         estimate D2E/DX2                !
 ! A45   A(12,13,26)           119.5139         estimate D2E/DX2                !
 ! A46   A(27,24,28)           109.2699         estimate D2E/DX2                !
 ! A47   A(27,24,29)           108.9931         estimate D2E/DX2                !
 ! A48   A(27,24,30)           110.0811         estimate D2E/DX2                !
 ! A49   A(28,24,29)           109.3285         estimate D2E/DX2                !
 ! A50   A(28,24,30)           108.995          estimate D2E/DX2                !
 ! A51   A(29,24,30)           110.1556         estimate D2E/DX2                !
 ! A52   A(11,30,24)           102.4014         estimate D2E/DX2                !
 ! A53   A(11,30,31)           110.3789         estimate D2E/DX2                !
 ! A54   A(11,30,32)           110.1444         estimate D2E/DX2                !
 ! A55   A(24,30,31)           104.8173         estimate D2E/DX2                !
 ! A56   A(24,30,32)           104.7505         estimate D2E/DX2                !
 ! A57   A(31,30,32)           122.1702         estimate D2E/DX2                !
 ! D1    D(9,1,2,3)             -2.3466         estimate D2E/DX2                !
 ! D2    D(9,1,2,14)          -178.7828         estimate D2E/DX2                !
 ! D3    D(13,1,2,3)           178.3515         estimate D2E/DX2                !
 ! D4    D(13,1,2,14)            1.9153         estimate D2E/DX2                !
 ! D5    D(2,1,9,10)          -179.1115         estimate D2E/DX2                !
 ! D6    D(2,1,9,23)             0.7478         estimate D2E/DX2                !
 ! D7    D(13,1,9,10)            0.1719         estimate D2E/DX2                !
 ! D8    D(13,1,9,23)         -179.9688         estimate D2E/DX2                !
 ! D9    D(2,1,13,12)          179.2485         estimate D2E/DX2                !
 ! D10   D(2,1,13,26)           -0.2155         estimate D2E/DX2                !
 ! D11   D(9,1,13,12)           -0.0846         estimate D2E/DX2                !
 ! D12   D(9,1,13,26)         -179.5486         estimate D2E/DX2                !
 ! D13   D(1,2,3,4)             -4.9003         estimate D2E/DX2                !
 ! D14   D(1,2,3,5)            176.3284         estimate D2E/DX2                !
 ! D15   D(14,2,3,4)           171.4871         estimate D2E/DX2                !
 ! D16   D(14,2,3,5)            -7.2842         estimate D2E/DX2                !
 ! D17   D(2,3,5,6)           -176.4282         estimate D2E/DX2                !
 ! D18   D(2,3,5,15)           -17.3133         estimate D2E/DX2                !
 ! D19   D(4,3,5,6)              4.7961         estimate D2E/DX2                !
 ! D20   D(4,3,5,15)           163.911          estimate D2E/DX2                !
 ! D21   D(3,5,6,7)           -171.0678         estimate D2E/DX2                !
 ! D22   D(3,5,6,16)            66.5626         estimate D2E/DX2                !
 ! D23   D(3,5,6,17)           -50.2521         estimate D2E/DX2                !
 ! D24   D(15,5,6,7)            29.372          estimate D2E/DX2                !
 ! D25   D(15,5,6,16)          -92.9976         estimate D2E/DX2                !
 ! D26   D(15,5,6,17)          150.1877         estimate D2E/DX2                !
 ! D27   D(5,6,7,8)            179.6372         estimate D2E/DX2                !
 ! D28   D(5,6,7,18)            57.7809         estimate D2E/DX2                !
 ! D29   D(5,6,7,19)           -58.9345         estimate D2E/DX2                !
 ! D30   D(16,6,7,8)           -58.0431         estimate D2E/DX2                !
 ! D31   D(16,6,7,18)         -179.8994         estimate D2E/DX2                !
 ! D32   D(16,6,7,19)           63.3852         estimate D2E/DX2                !
 ! D33   D(17,6,7,8)            60.2984         estimate D2E/DX2                !
 ! D34   D(17,6,7,18)          -61.5579         estimate D2E/DX2                !
 ! D35   D(17,6,7,19)         -178.2733         estimate D2E/DX2                !
 ! D36   D(6,7,8,20)           -60.044          estimate D2E/DX2                !
 ! D37   D(6,7,8,21)          -179.9911         estimate D2E/DX2                !
 ! D38   D(6,7,8,22)            59.9549         estimate D2E/DX2                !
 ! D39   D(18,7,8,20)           61.1561         estimate D2E/DX2                !
 ! D40   D(18,7,8,21)          -58.791          estimate D2E/DX2                !
 ! D41   D(18,7,8,22)         -178.8449         estimate D2E/DX2                !
 ! D42   D(19,7,8,20)          178.6016         estimate D2E/DX2                !
 ! D43   D(19,7,8,21)           58.6545         estimate D2E/DX2                !
 ! D44   D(19,7,8,22)          -61.3995         estimate D2E/DX2                !
 ! D45   D(1,9,10,11)           -0.1218         estimate D2E/DX2                !
 ! D46   D(1,9,10,33)          179.3773         estimate D2E/DX2                !
 ! D47   D(23,9,10,11)        -179.9809         estimate D2E/DX2                !
 ! D48   D(23,9,10,33)          -0.4818         estimate D2E/DX2                !
 ! D49   D(9,10,11,12)          -0.0173         estimate D2E/DX2                !
 ! D50   D(9,10,11,30)        -178.4459         estimate D2E/DX2                !
 ! D51   D(33,10,11,12)       -179.5161         estimate D2E/DX2                !
 ! D52   D(33,10,11,30)          2.0553         estimate D2E/DX2                !
 ! D53   D(10,11,12,13)          0.1048         estimate D2E/DX2                !
 ! D54   D(10,11,12,25)        179.4716         estimate D2E/DX2                !
 ! D55   D(30,11,12,13)        178.5392         estimate D2E/DX2                !
 ! D56   D(30,11,12,25)         -2.094          estimate D2E/DX2                !
 ! D57   D(10,11,30,24)         88.979          estimate D2E/DX2                !
 ! D58   D(10,11,30,31)        -22.1835         estimate D2E/DX2                !
 ! D59   D(10,11,30,32)       -160.0226         estimate D2E/DX2                !
 ! D60   D(12,11,30,24)        -89.4844         estimate D2E/DX2                !
 ! D61   D(12,11,30,31)        159.3531         estimate D2E/DX2                !
 ! D62   D(12,11,30,32)         21.514          estimate D2E/DX2                !
 ! D63   D(11,12,13,1)          -0.0526         estimate D2E/DX2                !
 ! D64   D(11,12,13,26)        179.4117         estimate D2E/DX2                !
 ! D65   D(25,12,13,1)        -179.4172         estimate D2E/DX2                !
 ! D66   D(25,12,13,26)          0.0471         estimate D2E/DX2                !
 ! D67   D(27,24,30,11)         59.7749         estimate D2E/DX2                !
 ! D68   D(27,24,30,31)        175.0509         estimate D2E/DX2                !
 ! D69   D(27,24,30,32)        -55.2192         estimate D2E/DX2                !
 ! D70   D(28,24,30,11)        179.6067         estimate D2E/DX2                !
 ! D71   D(28,24,30,31)        -65.1173         estimate D2E/DX2                !
 ! D72   D(28,24,30,32)         64.6126         estimate D2E/DX2                !
 ! D73   D(29,24,30,11)        -60.4443         estimate D2E/DX2                !
 ! D74   D(29,24,30,31)         54.8317         estimate D2E/DX2                !
 ! D75   D(29,24,30,32)       -175.4384         estimate D2E/DX2                !
 --------------------------------------------------------------------------------
 Trust Radius=3.00D-01 FncErr=1.00D-07 GrdErr=1.00D-06
 Number of steps in this run=    175 maximum allowed number of steps=    198.
 GradGradGradGradGradGradGradGradGradGradGradGradGradGradGradGradGradGrad

                          Input orientation:                          
 ---------------------------------------------------------------------
 Center     Atomic      Atomic             Coordinates (Angstroms)
 Number     Number       Type             X           Y           Z
 ---------------------------------------------------------------------
      1          6           0       -6.093150    1.285192    0.312769
      2          7           0       -4.842264    0.692437    0.206570
      3          6           0       -3.608654    1.317585    0.020435
      4          8           0       -3.482362    2.511505   -0.161902
      5          7           0       -2.558503    0.449869    0.037075
      6          6           0       -1.193859    0.950603   -0.065546
      7          6           0       -0.220055   -0.204436   -0.245839
      8          6           0        1.216567    0.290982   -0.365170
      9          6           0       -6.303241    2.673578    0.292112
     10          6           0       -7.588598    3.172335    0.423310
     11          6           0       -8.661064    2.297505    0.571785
     12          6           0       -8.472684    0.916361    0.591716
     13          6           0       -7.192536    0.419753    0.462909
     14          1           0       -4.843289   -0.317977    0.217318
     15          1           0       -2.683776   -0.472988    0.428394
     16          1           0       -0.933995    1.535853    0.823752
     17          1           0       -1.145954    1.627231   -0.920761
     18          1           0       -0.499457   -0.771009   -1.139501
     19          1           0       -0.303434   -0.889242    0.606096
     20          1           0        1.332595    0.957560   -1.223398
     21          1           0        1.911342   -0.540762   -0.494472
     22          1           0        1.520936    0.842540    0.527949
     23          1           0       -5.468049    3.345850    0.177070
     24          6           0      -10.824093    3.023050   -1.090089
     25          1           0       -9.316896    0.248431    0.716644
     26          1           0       -7.030401   -0.652933    0.486375
     27          9           0      -10.787724    1.813406   -1.633704
     28          9           0      -12.060001    3.490505   -1.147716
     29          9           0      -10.018972    3.826395   -1.770958
     30         16           0      -10.288951    2.939310    0.695950
     31          8           0      -10.255085    4.318899    1.137712
     32          8           0      -11.168275    1.957001    1.299099
     33          1           0       -7.757550    4.243142    0.418446
 ---------------------------------------------------------------------
                    Distance matrix (angstroms):
                    1          2          3          4          5
     1  C    0.000000
     2  N    1.388292   0.000000
     3  C    2.501846   1.395439   0.000000
     4  O    2.923247   2.300894   1.214348   0.000000
     5  N    3.642459   2.302853   1.362360   2.267919   0.000000
     6  C    4.925254   3.667636   2.444034   2.771813   1.457230
     7  C    6.084758   4.730102   3.724252   4.245707   2.444687
     8  C    7.408105   6.098973   4.948268   5.201151   3.799763
     9  C    1.404343   2.463065   3.028750   2.861775   4.362682
    10  C    2.410372   3.706646   4.409350   4.200041   5.732614
    11  C    2.772372   4.158469   5.176010   5.234792   6.398510
    12  C    2.424052   3.657654   4.913871   5.292989   5.958421
    13  C    1.407187   2.379884   3.721035   4.304789   4.653655
    14  H    2.035047   1.010472   2.058677   3.162578   2.417089
    15  H    3.837760   2.463025   2.056206   3.145376   1.010192
    16  H    5.190454   4.045593   2.801206   2.901307   2.106477
    17  H    5.110121   3.975855   2.654547   2.610864   2.073385
    18  H    6.134040   4.776353   3.921068   4.541841   2.667309
    19  H    6.191528   4.823101   4.017158   4.718102   2.683717
    20  H    7.590049   6.343814   5.108099   5.169655   4.121552
    21  H    8.249706   6.900973   5.847131   6.206366   4.609057
    22  H    7.629978   6.373078   5.176479   5.319242   4.127587
    23  H    2.157656   2.726367   2.756037   2.180363   4.107525
    24  C    5.231633   6.549455   7.496962   7.417831   8.729934
    25  H    3.410355   4.525445   5.849088   6.319425   6.795459
    26  H    2.159839   2.583845   3.975977   4.798178   4.627733
    27  F    5.109480   6.323898   7.383838   7.484775   8.507104
    28  F    6.526847   7.858690   8.804058   8.689428  10.046276
    29  F    5.119737   6.366366   7.113044   6.858955   8.386210
    30  S    4.526332   5.912219   6.907437   6.873760   8.148084
    31  O    5.215900   6.581557   7.377753   7.129196   8.684364
    32  O    5.213546   6.543024   7.693615   7.843166   8.831326
    33  H    3.395713   4.599053   5.092213   4.648935   6.447050
                    6          7          8          9         10
     6  C    0.000000
     7  C    1.521484   0.000000
     8  C    2.516947   1.524323   0.000000
     9  C    5.403920   6.751112   7.915573   0.000000
    10  C    6.787324   8.133005   9.298109   1.384960   0.000000
    11  C    7.614427   8.841881  10.122826   2.403950   1.391961
    12  C    7.308520   8.370398   9.756449   2.807856   2.428866
    13  C    6.045263   7.036152   8.450758   2.428938   2.781212
    14  H    3.873970   4.647762   6.118167   3.329633   4.445384
    15  H    2.119067   2.568391   4.052908   4.797914   6.111112
    16  H    1.095854   2.163872   2.754661   5.514151   6.864559
    17  H    1.091564   2.160512   2.770513   5.400326   6.760292
    18  H    2.144649   1.094396   2.161516   6.899174   8.261250
    19  H    2.151509   1.096223   2.155618   6.984981   8.342868
    20  H    2.779143   2.171769   1.092861   7.971668   9.338339
    21  H    3.471371   2.172047   1.091435   8.856075  10.241010
    22  H    2.781012   2.173927   1.092940   8.039034   9.403325
    23  H    4.905586   6.350183   7.369554   1.078300   2.141839
    24  C    9.903845  11.116431  12.367990   4.740328   3.575065
    25  H    8.190763   9.158820  10.588955   3.891488   3.409146
    26  H    6.077925   6.864262   8.344374   3.410597   3.866295
    27  F    9.759396  10.847741  12.166756   4.955729   4.038862
    28  F   11.211389  12.435847  13.679056   5.990055   4.750031
    29  F    9.437226  10.704782  11.862239   4.403624   3.339060
    30  S    9.341068  10.590221  11.853968   4.014920   2.724067
    31  O    9.741615  11.093989  12.250778   4.363392   2.989169
    32  O   10.117513  11.265974  12.606733   5.019568   3.880480
    33  H    7.359151   8.777019   9.837093   2.143480   1.084065
                   11         12         13         14         15
    11  C    0.000000
    12  C    1.394075   0.000000
    13  C    2.386290   1.379126   0.000000
    14  H    4.641315   3.851788   2.474576   0.000000
    15  H    6.589701   5.955536   4.596422   2.175333   0.000000
    16  H    7.768603   7.567657   6.367513   4.368869   2.693229
    17  H    7.691154   7.514911   6.319312   4.330051   2.931900
    18  H    8.885724   8.331666   6.984478   4.573299   2.705247
    19  H    8.944636   8.366424   7.013822   4.592142   2.422989
    20  H   10.241648   9.971952   8.706936   6.468709   4.572322
    21  H   10.998565  10.541869   9.204334   6.795683   4.687365
    22  H   10.285523   9.994096   8.723966   6.476623   4.406828
    23  H    3.383811   3.886153   3.408461   3.716931   4.732744
    24  C    2.822576   3.577113   4.730450   6.974367   8.988483
    25  H    2.156341   1.083712   2.146308   4.536883   6.678459
    26  H    3.372157   2.134001   1.085124   2.228912   4.350734
    27  F    3.101809   3.334156   4.389013   6.580683   8.669130
    28  F    3.991579   4.745597   5.976273   8.273379  10.300825
    29  F    3.109640   4.054816   4.958237   6.922193   8.782195
    30  S    1.754237   2.720665   3.998782   6.363509   8.339907
    31  O    2.635756   3.879734   5.003789   7.185770   8.988328
    32  O    2.632686   2.974817   4.343828   6.808174   8.868466
    33  H    2.150664   3.407186   3.865168   5.416381   6.927133
                   16         17         18         19         20
    16  H    0.000000
    17  H    1.759716   0.000000
    18  H    3.060195   2.493463   0.000000
    19  H    2.515168   3.061661   1.760543   0.000000
    20  H    3.108485   2.585199   2.520200   3.071534   0.000000
    21  H    3.761115   3.772131   2.506198   2.497583   1.763873
    22  H    2.568048   3.134773   3.076674   2.516645   1.765196
    23  H    4.924624   4.779058   6.585498   6.692781   7.342615
    24  C   10.182759   9.779743  10.999792  11.351975  12.331630
    25  H    8.481860   8.446685   9.068172   9.085649  10.847962
    26  H    6.486198   6.465748   6.731317   6.732181   8.686582
    27  F   10.159335   9.669886  10.619410  11.056281  12.157424
    28  F   11.467142  11.074282  12.320988  12.667869  13.630230
    29  F    9.721929   9.180937  10.590374  11.057997  11.721268
    30  S    9.460509   9.377084  10.628713  10.694692  11.944521
    31  O    9.732760   9.718985  11.236776  11.244675  12.294217
    32  O   10.253965  10.270514  11.278851  11.252827  12.791936
    33  H    7.352182   7.235307   8.958170   9.052095   9.804154
                   21         22         23         24         25
    21  H    0.000000
    22  H    1.763884   0.000000
    23  H    8.367325   7.432065   0.000000
    24  C   13.238082  12.640112   5.513357   0.000000
    25  H   11.320908  10.855744   4.969786   3.637917   0.000000
    26  H    8.996077   8.681217   4.304286   5.512730   2.468510
    27  F   12.965579  12.534690   5.824623   1.326679   3.183806
    28  F   14.555970  13.937770   6.725312   1.322613   4.638050
    29  F   12.768472  12.139104   4.973595   1.325581   4.413945
    30  S   12.742651  11.995754   4.865759   1.866367   2.861146
    31  O   13.202359  12.293558   4.978491   2.639336   4.198358
    32  O   13.436223  12.761378   5.973310   2.638777   2.585744
    33  H   10.826201   9.882631   2.470873   3.628773   4.298628
                   26         27         28         29         30
    26  H    0.000000
    27  F    4.969411   0.000000
    28  F    6.718275   2.160448   0.000000
    29  F    5.838792   2.159154   2.160336   0.000000
    30  S    4.854512   2.635095   2.615251   2.635421   0.000000
    31  O    5.961707   3.773851   3.027728   2.959505   1.448988
    32  O    4.959262   2.960874   3.022204   3.773696   1.449804
    33  H    4.950244   4.392823   4.640088   3.175090   2.860941
                   31         32         33
    31  O    0.000000
    32  O    2.537426   0.000000
    33  H    2.600147   4.199410   0.000000
 Stoichiometry    C11H13F3N2O3S
 Framework group  C1[X(C11H13F3N2O3S)]
 Deg. of freedom    93
 Full point group                 C1      NOp   1
 Largest Abelian subgroup         C1      NOp   1
 Largest concise Abelian subgroup C1      NOp   1
                         Standard orientation:                         
 ---------------------------------------------------------------------
 Center     Atomic      Atomic             Coordinates (Angstroms)
 Number     Number       Type             X           Y           Z
 ---------------------------------------------------------------------
      1          6           0        0.926411    0.560526   -0.101343
      2          7           0        2.282484    0.758166    0.120827
      3          6           0        3.326991   -0.143886   -0.085465
      4          8           0        3.159669   -1.297769   -0.424873
      5          7           0        4.555716    0.391868    0.157906
      6          6           0        5.758123   -0.394685   -0.085137
      7          6           0        6.980494    0.327039    0.462439
      8          6           0        8.253889   -0.477915    0.229903
      9          6           0        0.387073   -0.620955   -0.635568
     10          6           0       -0.979537   -0.717793   -0.838334
     11          6           0       -1.807694    0.351800   -0.510184
     12          6           0       -1.291178    1.531439    0.023769
     13          6           0        0.069878    1.628559    0.223975
     14          1           0        2.525598    1.650401    0.528094
     15          1           0        4.660323    1.395906    0.196046
     16          1           0        5.876435   -0.590051   -1.156925
     17          1           0        5.633998   -1.361619    0.405927
     18          1           0        6.838675    0.508497    1.532328
     19          1           0        7.072144    1.307653   -0.018915
     20          1           0        8.198270   -1.452441    0.721383
     21          1           0        9.127854    0.043457    0.624348
     22          1           0        8.423557   -0.651965   -0.835667
     23          1           0        1.034189   -1.445750   -0.887930
     24          6           0       -4.095836   -0.508126    0.901152
     25          1           0       -1.948011    2.358610    0.266238
     26          1           0        0.486463    2.544606    0.629942
     27          9           0       -3.772990    0.316131    1.889307
     28          9           0       -5.408493   -0.668388    0.877680
     29          9           0       -3.514320   -1.680864    1.110176
     30         16           0       -3.541288    0.202478   -0.733120
     31          8           0       -3.837880   -0.829768   -1.705781
     32          8           0       -4.152241    1.515998   -0.790854
     33          1           0       -1.402125   -1.622801   -1.259731
 ---------------------------------------------------------------------
 Rotational constants (GHZ):      1.0407565      0.0946121      0.0938122
 Standard basis: 6-311+G(d) (5D, 7F)
 There are   507 symmetry adapted cartesian basis functions of A   symmetry.
 There are   487 symmetry adapted basis functions of A   symmetry.
   487 basis functions,   799 primitive gaussians,   507 cartesian basis functions
    80 alpha electrons       80 beta electrons
       nuclear repulsion energy      1745.9448660497 Hartrees.
 NAtoms=   33 NActive=   33 NUniq=   33 SFac= 1.00D+00 NAtFMM=   60 NAOKFM=F Big=F
 Integral buffers will be    131072 words long.
 Raffenetti 2 integral format.
 Two-electron integral symmetry is turned on.
 Nuclear repulsion after empirical dispersion term =     1745.9433267398 Hartrees.
 ------------------------------------------------------------------------------
 Polarizable Continuum Model (PCM)
 =================================
 Model                : PCM (using non-symmetric T matrix).
 Atomic radii         : SMD-Coulomb.
 Polarization charges : Total charges.
 Charge compensation  : None.
 Solution method      : On-the-fly selection.
 Cavity type          : VdW (van der Waals Surface) (Alpha=1.000).
 Cavity algorithm     : GePol (No added spheres)
                        Default sphere list used, NSphG=   33.
                        Lebedev-Laikov grids with approx.  5.0 points / Ang**2.
                        Smoothing algorithm: York/Karplus (Gamma=1.0000).
                        Polarization charges: spherical gaussians, with
                                              point-specific exponents (IZeta= 3).
                        Self-potential: point-specific (ISelfS= 7).
                        Self-field    : sphere-specific E.n sum rule (ISelfD= 2).
 1st derivatives      : Analytical E(r).r(x)/FMM algorithm (CHGder, D1EAlg=3).
                        Cavity 1st derivative terms included.
 Solvent              : n-Pentadecane, Eps=   2.033300 Eps(inf)=   2.049192
 ------------------------------------------------------------------------------
 ------------------------------------------------------------------------------
 Atomic radii for non-electrostatic terms: SMD-CDS.
 ------------------------------------------------------------------------------
 Nuclear repulsion after PCM non-electrostatic terms =     1745.9362396235 Hartrees.
 One-electron integrals computed using PRISM.
 NBasis=   487 RedAO= T EigKep=  1.00D-06  NBF=   487
 NBsUse=   486 1.00D-06 EigRej=  5.30D-07 NBFU=   486
 ExpMin= 4.05D-02 ExpMax= 9.34D+04 ExpMxC= 3.17D+03 IAcc=3 IRadAn=         5 AccDes= 0.00D+00
 Harris functional with IExCor= 1009 and IRadAn=       5 diagonalized for initial guess.
 HarFok:  IExCor= 1009 AccDes= 0.00D+00 IRadAn=         5 IDoV= 1 UseB2=F ITyADJ=14
 ICtDFT=  3500011 ScaDFX=  1.000000  1.000000  1.000000  1.000000
 FoFCou: FMM=F IPFlag=           0 FMFlag=      100000 FMFlg1=           0
         NFxFlg=           0 DoJE=T BraDBF=F KetDBF=T FulRan=T
         wScrn=  0.000000 ICntrl=     500 IOpCl=  0 I1Cent=   200000004 NGrid=           0
         NMat0=    1 NMatS0=      1 NMatT0=    0 NMatD0=    1 NMtDS0=    0 NMtDT0=    0
 Petite list used in FoFCou.
 Requested convergence on RMS density matrix=1.00D-08 within 128 cycles.
 Requested convergence on MAX density matrix=1.00D-06.
 Requested convergence on             energy=1.00D-06.
 No special actions if energy rises.
 Inv3:  Mode=1 IEnd=    22391472.
 Iteration    1 A*A^-1 deviation from unit magnitude is 4.33D-15 for   2715.
 Iteration    1 A*A^-1 deviation from orthogonality  is 2.53D-15 for   2715   2251.
 Iteration    1 A^-1*A deviation from unit magnitude is 4.77D-15 for   2715.
 Iteration    1 A^-1*A deviation from orthogonality  is 9.50D-15 for   1419   1394.
 Error on total polarization charges =  0.01910
 SCF Done:  E(RM062X) =  -1459.75292541     A.U. after   16 cycles
            NFock= 16  Conv=0.28D-08     -V/T= 2.0026
 SMD-CDS (non-electrostatic) energy       (kcal/mol) =      -4.45
 (included in total energy above)

 **********************************************************************

            Population analysis using the SCF density.

 **********************************************************************

 Orbital symmetries:
       Occupied  (A) (A) (A) (A) (A) (A) (A) (A) (A) (A) (A) (A)
                 (A) (A) (A) (A) (A) (A) (A) (A) (A) (A) (A) (A)
                 (A) (A) (A) (A) (A) (A) (A) (A) (A) (A) (A) (A)
                 (A) (A) (A) (A) (A) (A) (A) (A) (A) (A) (A) (A)
                 (A) (A) (A) (A) (A) (A) (A) (A) (A) (A) (A) (A)
                 (A) (A) (A) (A) (A) (A) (A) (A) (A) (A) (A) (A)
                 (A) (A) (A) (A) (A) (A) (A) (A)
       Virtual   (A) (A) (A) (A) (A) (A) (A) (A) (A) (A) (A) (A)
                 (A) (A) (A) (A) (A) (A) (A) (A) (A) (A) (A) (A)
                 (A) (A) (A) (A) (A) (A) (A) (A) (A) (A) (A) (A)
                 (A) (A) (A) (A) (A) (A) (A) (A) (A) (A) (A) (A)
                 (A) (A) (A) (A) (A) (A) (A) (A) (A) (A) (A) (A)
                 (A) (A) (A) (A) (A) (A) (A) (A) (A) (A) (A) (A)
                 (A) (A) (A) (A) (A) (A) (A) (A) (A) (A) (A) (A)
                 (A) (A) (A) (A) (A) (A) (A) (A) (A) (A) (A) (A)
                 (A) (A) (A) (A) (A) (A) (A) (A) (A) (A) (A) (A)
                 (A) (A) (A) (A) (A) (A) (A) (A) (A) (A) (A) (A)
                 (A) (A) (A) (A) (A) (A) (A) (A) (A) (A) (A) (A)
                 (A) (A) (A) (A) (A) (A) (A) (A) (A) (A) (A) (A)
                 (A) (A) (A) (A) (A) (A) (A) (A) (A) (A) (A) (A)
                 (A) (A) (A) (A) (A) (A) (A) (A) (A) (A) (A) (A)
                 (A) (A) (A) (A) (A) (A) (A) (A) (A) (A) (A) (A)
                 (A) (A) (A) (A) (A) (A) (A) (A) (A) (A) (A) (A)
                 (A) (A) (A) (A) (A) (A) (A) (A) (A) (A) (A) (A)
                 (A) (A) (A) (A) (A) (A) (A) (A) (A) (A) (A) (A)
                 (A) (A) (A) (A) (A) (A) (A) (A) (A) (A) (A) (A)
                 (A) (A) (A) (A) (A) (A) (A) (A) (A) (A) (A) (A)
                 (A) (A) (A) (A) (A) (A) (A) (A) (A) (A) (A) (A)
                 (A) (A) (A) (A) (A) (A) (A) (A) (A) (A) (A) (A)
                 (A) (A) (A) (A) (A) (A) (A) (A) (A) (A) (A) (A)
                 (A) (A) (A) (A) (A) (A) (A) (A) (A) (A) (A) (A)
                 (A) (A) (A) (A) (A) (A) (A) (A) (A) (A) (A) (A)
                 (A) (A) (A) (A) (A) (A) (A) (A) (A) (A) (A) (A)
                 (A) (A) (A) (A) (A) (A) (A) (A) (A) (A) (A) (A)
                 (A) (A) (A) (A) (A) (A) (A) (A) (A) (A) (A) (A)
                 (A) (A) (A) (A) (A) (A) (A) (A) (A) (A) (A) (A)
                 (A) (A) (A) (A) (A) (A) (A) (A) (A) (A) (A) (A)
                 (A) (A) (A) (A) (A) (A) (A) (A) (A) (A) (A) (A)
                 (A) (A) (A) (A) (A) (A) (A) (A) (A) (A) (A) (A)
                 (A) (A) (A) (A) (A) (A) (A) (A) (A) (A) (A) (A)
                 (A) (A) (A) (A) (A) (A) (A) (A) (A) (A)
 The electronic state is 1-A.
 Alpha  occ. eigenvalues --  -90.12407 -25.30840 -25.30808 -25.30747 -19.64257
 Alpha  occ. eigenvalues --  -19.64245 -19.60374 -14.80564 -14.78184 -10.83134
 Alpha  occ. eigenvalues --  -10.69168 -10.62752 -10.59232 -10.58265 -10.58001
 Alpha  occ. eigenvalues --  -10.57768 -10.57108 -10.56140 -10.54595 -10.53093
 Alpha  occ. eigenvalues --   -8.46801  -6.38998  -6.38951  -6.38883  -1.50493
 Alpha  occ. eigenvalues --   -1.41036  -1.41013  -1.26335  -1.19775  -1.15638
 Alpha  occ. eigenvalues --   -1.08202  -1.04616  -0.99143  -0.90628  -0.88871
 Alpha  occ. eigenvalues --   -0.87901  -0.86074  -0.80508  -0.77882  -0.74370
 Alpha  occ. eigenvalues --   -0.73670  -0.72638  -0.72442  -0.69867  -0.69179
 Alpha  occ. eigenvalues --   -0.67317  -0.65151  -0.63675  -0.61349  -0.60340
 Alpha  occ. eigenvalues --   -0.59773  -0.57238  -0.56954  -0.56374  -0.56324
 Alpha  occ. eigenvalues --   -0.55976  -0.55203  -0.54252  -0.54174  -0.53738
 Alpha  occ. eigenvalues --   -0.53581  -0.52550  -0.51127  -0.49248  -0.48949
 Alpha  occ. eigenvalues --   -0.47787  -0.46279  -0.43902  -0.43466  -0.42930
 Alpha  occ. eigenvalues --   -0.42806  -0.41488  -0.41005  -0.40640  -0.40214
 Alpha  occ. eigenvalues --   -0.38172  -0.36314  -0.34026  -0.33612  -0.29743
 Alpha virt. eigenvalues --   -0.02964  -0.00702  -0.00496   0.01524   0.01881
 Alpha virt. eigenvalues --    0.02735   0.02937   0.03223   0.03691   0.04229
 Alpha virt. eigenvalues --    0.04491   0.04744   0.05574   0.06054   0.06546
 Alpha virt. eigenvalues --    0.06679   0.07115   0.07313   0.07720   0.08032
 Alpha virt. eigenvalues --    0.08227   0.08812   0.08910   0.09449   0.09797
 Alpha virt. eigenvalues --    0.10310   0.10757   0.10971   0.11033   0.11698
 Alpha virt. eigenvalues --    0.11998   0.12501   0.13443   0.13699   0.14156
 Alpha virt. eigenvalues --    0.14361   0.14657   0.14933   0.15471   0.16055
 Alpha virt. eigenvalues --    0.16539   0.17548   0.17764   0.18424   0.18602
 Alpha virt. eigenvalues --    0.19103   0.19406   0.19853   0.20469   0.20564
 Alpha virt. eigenvalues --    0.20780   0.21113   0.21470   0.21762   0.21837
 Alpha virt. eigenvalues --    0.22510   0.22685   0.23254   0.23661   0.23833
 Alpha virt. eigenvalues --    0.23886   0.24167   0.24450   0.24940   0.25338
 Alpha virt. eigenvalues --    0.25679   0.26128   0.26317   0.26761   0.26887
 Alpha virt. eigenvalues --    0.27095   0.27678   0.28270   0.29020   0.29111
 Alpha virt. eigenvalues --    0.29273   0.29697   0.30263   0.30571   0.30995
 Alpha virt. eigenvalues --    0.31467   0.31688   0.32329   0.32527   0.32813
 Alpha virt. eigenvalues --    0.33483   0.33549   0.33803   0.34166   0.35384
 Alpha virt. eigenvalues --    0.35740   0.35931   0.36374   0.37035   0.37406
 Alpha virt. eigenvalues --    0.37924   0.38476   0.38723   0.39559   0.40047
 Alpha virt. eigenvalues --    0.40546   0.40925   0.41586   0.42961   0.43531
 Alpha virt. eigenvalues --    0.43693   0.44330   0.44640   0.45521   0.46176
 Alpha virt. eigenvalues --    0.46801   0.47183   0.48280   0.48420   0.49504
 Alpha virt. eigenvalues --    0.49914   0.50768   0.52382   0.52524   0.54103
 Alpha virt. eigenvalues --    0.54542   0.56275   0.56283   0.57707   0.58387
 Alpha virt. eigenvalues --    0.59024   0.59966   0.60403   0.60823   0.61640
 Alpha virt. eigenvalues --    0.62712   0.63191   0.64699   0.65387   0.66497
 Alpha virt. eigenvalues --    0.67320   0.67916   0.69207   0.70277   0.71042
 Alpha virt. eigenvalues --    0.71207   0.71482   0.71708   0.72169   0.72594
 Alpha virt. eigenvalues --    0.73191   0.73601   0.75040   0.75539   0.75913
 Alpha virt. eigenvalues --    0.76880   0.77064   0.77536   0.78364   0.79390
 Alpha virt. eigenvalues --    0.80320   0.81193   0.82275   0.83208   0.84716
 Alpha virt. eigenvalues --    0.86357   0.86791   0.87425   0.87993   0.90926
 Alpha virt. eigenvalues --    0.91295   0.91339   0.92663   0.93850   0.94065
 Alpha virt. eigenvalues --    0.94401   0.95319   0.98588   0.99676   1.01115
 Alpha virt. eigenvalues --    1.02160   1.03430   1.04691   1.05103   1.05646
 Alpha virt. eigenvalues --    1.06912   1.08663   1.09588   1.11753   1.13106
 Alpha virt. eigenvalues --    1.13991   1.16001   1.17462   1.18219   1.19947
 Alpha virt. eigenvalues --    1.20965   1.22044   1.22866   1.23495   1.23876
 Alpha virt. eigenvalues --    1.24954   1.26062   1.26294   1.26537   1.26900
 Alpha virt. eigenvalues --    1.27289   1.29409   1.30905   1.32690   1.33873
 Alpha virt. eigenvalues --    1.34905   1.35142   1.38215   1.42874   1.44202
 Alpha virt. eigenvalues --    1.44933   1.45421   1.46708   1.47399   1.48060
 Alpha virt. eigenvalues --    1.48780   1.51899   1.51991   1.52946   1.53574
 Alpha virt. eigenvalues --    1.53776   1.54543   1.55035   1.56941   1.57896
 Alpha virt. eigenvalues --    1.58753   1.60665   1.61261   1.63013   1.65510
 Alpha virt. eigenvalues --    1.67342   1.69710   1.71694   1.72073   1.75360
 Alpha virt. eigenvalues --    1.75742   1.76812   1.77874   1.78154   1.79046
 Alpha virt. eigenvalues --    1.80717   1.81632   1.83686   1.84217   1.86133
 Alpha virt. eigenvalues --    1.86322   1.86555   1.88932   1.89646   1.91154
 Alpha virt. eigenvalues --    1.93372   1.95378   1.95491   1.97270   1.98461
 Alpha virt. eigenvalues --    2.00936   2.01937   2.02834   2.05698   2.06396
 Alpha virt. eigenvalues --    2.09619   2.10258   2.12021   2.13530   2.13819
 Alpha virt. eigenvalues --    2.19798   2.22167   2.24135   2.26467   2.31180
 Alpha virt. eigenvalues --    2.32447   2.35202   2.37092   2.37639   2.37727
 Alpha virt. eigenvalues --    2.44979   2.45912   2.49098   2.52676   2.54429
 Alpha virt. eigenvalues --    2.55267   2.56716   2.59455   2.62259   2.62871
 Alpha virt. eigenvalues --    2.64505   2.67926   2.71607   2.72942   2.76279
 Alpha virt. eigenvalues --    2.80886   2.81322   2.82683   2.83888   2.85854
 Alpha virt. eigenvalues --    2.87625   2.88038   2.89903   2.92006   2.92742
 Alpha virt. eigenvalues --    2.93412   2.95037   2.95310   2.97273   2.97815
 Alpha virt. eigenvalues --    3.00013   3.01220   3.02826   3.03684   3.05890
 Alpha virt. eigenvalues --    3.10334   3.10599   3.11661   3.12388   3.17011
 Alpha virt. eigenvalues --    3.19309   3.20477   3.24767   3.25156   3.28167
 Alpha virt. eigenvalues --    3.28777   3.30795   3.34517   3.37478   3.39823
 Alpha virt. eigenvalues --    3.40903   3.42824   3.43350   3.46856   3.55153
 Alpha virt. eigenvalues --    3.57387   3.64681   3.66334   3.69137   3.70274
 Alpha virt. eigenvalues --    3.73138   3.77674   3.78587   3.81402   3.81544
 Alpha virt. eigenvalues --    3.82276   3.83417   3.84643   3.84801   3.88965
 Alpha virt. eigenvalues --    3.96014   3.96041   3.97784   3.99474   4.01540
 Alpha virt. eigenvalues --    4.05466   4.05898   4.08828   4.19511   4.28150
 Alpha virt. eigenvalues --    4.28200   4.44232   4.53677   4.57932   4.79594
 Alpha virt. eigenvalues --    4.88404   4.98571   4.98862   5.16752   5.17515
 Alpha virt. eigenvalues --    5.18055   5.19479   5.21763   5.22390   5.28561
 Alpha virt. eigenvalues --    5.41631   5.42773   5.90170   6.41719   6.44399
 Alpha virt. eigenvalues --    6.48129   6.49393   6.50165   6.52201   6.54256
 Alpha virt. eigenvalues --    6.88593   6.89210   8.32776  17.57890  17.61869
 Alpha virt. eigenvalues --   17.78969  23.47115  23.55154  23.58166  23.73298
 Alpha virt. eigenvalues --   23.80479  23.89462  23.93252  23.98120  24.07093
 Alpha virt. eigenvalues --   24.13205  24.20565  35.58249  35.68533  49.98004
 Alpha virt. eigenvalues --   50.02323  50.13859  66.86790  66.86997  66.91852
 Alpha virt. eigenvalues --  189.58851
          Condensed to atoms (all electrons):
               1          2          3          4          5          6
     1  C   25.044939   0.120876  -0.177285  -0.448077  -0.384612  -0.644927
     2  N    0.120876   7.920695   0.320091  -0.057752  -0.684450  -0.491427
     3  C   -0.177285   0.320091   8.856875   0.672382   0.042637  -1.191955
     4  O   -0.448077  -0.057752   0.672382   8.058796  -0.179599  -0.085084
     5  N   -0.384612  -0.684450   0.042637  -0.179599   7.844978   0.697334
     6  C   -0.644927  -0.491427  -1.191955  -0.085084   0.697334   8.528119
     7  C    0.003714   0.037174   0.279982   0.012977  -0.163284  -0.932158
     8  C   -0.013124  -0.012373  -0.233928  -0.001145   0.005998   0.385741
     9  C    3.078219  -0.296953   0.548310   0.462079   0.130193   0.079838
    10  C   -5.494621   0.045479   0.647740   0.104086   0.118288   0.115237
    11  C  -15.074871   0.021959  -1.414354  -0.028084   0.037757  -0.058055
    12  C    5.025362   0.034531   0.228607  -0.004001   0.007469   0.013572
    13  C   -4.350365   0.138532  -2.861308  -0.144094  -0.345456  -0.441607
    14  H    0.026343   0.220412  -0.014071  -0.001703   0.077125   0.026386
    15  H   -0.027397   0.088467   0.032892  -0.002602   0.231822  -0.064159
    16  H    0.011565   0.005463   0.058660  -0.003837  -0.085495   0.385998
    17  H    0.003552   0.012142   0.051579   0.000603  -0.047136   0.344287
    18  H    0.005713  -0.001374   0.030370  -0.000112   0.003063  -0.091015
    19  H   -0.005075  -0.000366  -0.023102  -0.000208   0.003877  -0.051483
    20  H   -0.000419  -0.000057  -0.010071  -0.000072   0.000207  -0.048671
    21  H    0.000051  -0.000006   0.003636   0.000023  -0.001427   0.075852
    22  H    0.000346  -0.000000   0.010539  -0.000037   0.000125  -0.043005
    23  H    0.004448  -0.024683   0.067738   0.002109   0.003291   0.007530
    24  C    0.494238  -0.002677   0.017188   0.000171  -0.000515   0.000117
    25  H    0.006715  -0.002791   0.001397  -0.000012  -0.000081  -0.000003
    26  H    0.188103  -0.021013   0.007877  -0.000020  -0.000290   0.000160
    27  F   -0.045726   0.000063  -0.000633   0.000001   0.000002  -0.000003
    28  F   -0.003072   0.000017   0.000015  -0.000000   0.000000   0.000000
    29  F   -0.036468   0.000042  -0.000942  -0.000003   0.000001  -0.000005
    30  S   -0.972492  -0.004306  -0.118096   0.000155   0.004905  -0.001891
    31  O   -0.021261  -0.000350  -0.003902  -0.000105   0.000000  -0.000009
    32  O   -0.096154   0.000236  -0.000010   0.000026   0.000010  -0.000014
    33  H    0.005066  -0.001162   0.004636  -0.000017   0.000024   0.000008
               7          8          9         10         11         12
     1  C    0.003714  -0.013124   3.078219  -5.494621 -15.074871   5.025362
     2  N    0.037174  -0.012373  -0.296953   0.045479   0.021959   0.034531
     3  C    0.279982  -0.233928   0.548310   0.647740  -1.414354   0.228607
     4  O    0.012977  -0.001145   0.462079   0.104086  -0.028084  -0.004001
     5  N   -0.163284   0.005998   0.130193   0.118288   0.037757   0.007469
     6  C   -0.932158   0.385741   0.079838   0.115237  -0.058055   0.013572
     7  C    6.348962  -0.203456  -0.001541  -0.001306  -0.001579  -0.000664
     8  C   -0.203456   6.077152  -0.003107   0.000098  -0.000355  -0.000269
     9  C   -0.001541  -0.003107  36.868735   3.791195 -15.736644 -20.415273
    10  C   -0.001306   0.000098   3.791195  32.787867  -0.653245 -14.542624
    11  C   -0.001579  -0.000355 -15.736644  -0.653245  58.485615 -16.547061
    12  C   -0.000664  -0.000269 -20.415273 -14.542624 -16.547061  55.262425
    13  C    0.012548  -0.004246  -1.820518  -9.347873   0.980833  -6.645276
    14  H   -0.003153   0.000177   0.100251   0.043850  -0.003728   0.023893
    15  H    0.000240   0.005887   0.015272   0.002769  -0.001771   0.000102
    16  H   -0.056955  -0.005796  -0.002049  -0.000747   0.000103  -0.000071
    17  H    0.000269  -0.023536  -0.004882  -0.001347  -0.000245   0.000214
    18  H    0.450209  -0.055142  -0.000297  -0.000016   0.000048  -0.000036
    19  H    0.449385  -0.031551   0.000653   0.000090  -0.000034   0.000036
    20  H    0.010912   0.393446  -0.000016   0.000002  -0.000002   0.000001
    21  H   -0.117541   0.389918   0.000031   0.000001   0.000000  -0.000000
    22  H    0.015545   0.362735   0.000026   0.000002   0.000002  -0.000001
    23  H   -0.000311   0.000050   0.222854   0.025024   0.052252   0.067524
    24  C    0.000018   0.000000   0.570705   1.511241  -1.556498   0.242613
    25  H   -0.000000  -0.000000  -0.001998  -0.016511   0.087637   0.331877
    26  H   -0.000011   0.000002   0.000968   0.012801  -0.017935   0.070379
    27  F   -0.000000  -0.000000   0.043444   0.074248   0.217232  -0.298979
    28  F   -0.000000   0.000000  -0.005394  -0.025720   0.100107  -0.019365
    29  F   -0.000000  -0.000000  -0.116125  -0.244938   0.203793   0.109158
    30  S   -0.000187  -0.000005  -0.814416  -3.046201  -4.698084   4.382920
    31  O    0.000000  -0.000000  -1.467541  -2.693274   0.719573   2.738756
    32  O   -0.000000  -0.000000   0.918318   2.446721   1.078412  -3.630951
    33  H    0.000000   0.000000   0.016443   0.421084  -0.061536  -0.087724
              13         14         15         16         17         18
     1  C   -4.350365   0.026343  -0.027397   0.011565   0.003552   0.005713
     2  N    0.138532   0.220412   0.088467   0.005463   0.012142  -0.001374
     3  C   -2.861308  -0.014071   0.032892   0.058660   0.051579   0.030370
     4  O   -0.144094  -0.001703  -0.002602  -0.003837   0.000603  -0.000112
     5  N   -0.345456   0.077125   0.231822  -0.085495  -0.047136   0.003063
     6  C   -0.441607   0.026386  -0.064159   0.385998   0.344287  -0.091015
     7  C    0.012548  -0.003153   0.000240  -0.056955   0.000269   0.450209
     8  C   -0.004246   0.000177   0.005887  -0.005796  -0.023536  -0.055142
     9  C   -1.820518   0.100251   0.015272  -0.002049  -0.004882  -0.000297
    10  C   -9.347873   0.043850   0.002769  -0.000747  -0.001347  -0.000016
    11  C    0.980833  -0.003728  -0.001771   0.000103  -0.000245   0.000048
    12  C   -6.645276   0.023893   0.000102  -0.000071   0.000214  -0.000036
    13  C   31.419466  -0.226457  -0.011876   0.001673   0.002664   0.000390
    14  H   -0.226457   0.343879   0.002003   0.000197  -0.000040   0.000008
    15  H   -0.011876   0.002003   0.363179   0.001919   0.002311  -0.001284
    16  H    0.001673   0.000197   0.001919   0.456755  -0.038671   0.006125
    17  H    0.002664  -0.000040   0.002311  -0.038671   0.426010  -0.007730
    18  H    0.000390   0.000008  -0.001284   0.006125  -0.007730   0.445412
    19  H   -0.000676   0.000054   0.003485  -0.009330   0.005007  -0.044281
    20  H   -0.000004   0.000000  -0.000022  -0.000783   0.003414  -0.008557
    21  H   -0.000009   0.000000  -0.000025  -0.000088  -0.000186  -0.003307
    22  H    0.000007  -0.000000   0.000026   0.003310  -0.000186   0.005971
    23  H   -0.104874   0.000140  -0.000011  -0.000002  -0.000025   0.000000
    24  C   -0.016263  -0.000117   0.000002  -0.000000   0.000000  -0.000000
    25  H   -0.097683  -0.000030   0.000000   0.000000  -0.000000  -0.000000
    26  H    0.067727   0.009326   0.000032  -0.000000  -0.000000  -0.000000
    27  F    0.002347  -0.000000  -0.000000   0.000000  -0.000000   0.000000
    28  F   -0.002129  -0.000000  -0.000000   0.000000   0.000000   0.000000
    29  F    0.023007   0.000000   0.000000   0.000000  -0.000000   0.000000
    30  S    0.744698   0.001536  -0.000068  -0.000000  -0.000004   0.000001
    31  O    0.261974   0.000008   0.000000  -0.000000  -0.000000   0.000000
    32  O   -0.465910  -0.000011  -0.000000   0.000000   0.000000   0.000000
    33  H   -0.000190   0.000008   0.000000   0.000000  -0.000000   0.000000
              19         20         21         22         23         24
     1  C   -0.005075  -0.000419   0.000051   0.000346   0.004448   0.494238
     2  N   -0.000366  -0.000057  -0.000006  -0.000000  -0.024683  -0.002677
     3  C   -0.023102  -0.010071   0.003636   0.010539   0.067738   0.017188
     4  O   -0.000208  -0.000072   0.000023  -0.000037   0.002109   0.000171
     5  N    0.003877   0.000207  -0.001427   0.000125   0.003291  -0.000515
     6  C   -0.051483  -0.048671   0.075852  -0.043005   0.007530   0.000117
     7  C    0.449385   0.010912  -0.117541   0.015545  -0.000311   0.000018
     8  C   -0.031551   0.393446   0.389918   0.362735   0.000050   0.000000
     9  C    0.000653  -0.000016   0.000031   0.000026   0.222854   0.570705
    10  C    0.000090   0.000002   0.000001   0.000002   0.025024   1.511241
    11  C   -0.000034  -0.000002   0.000000   0.000002   0.052252  -1.556498
    12  C    0.000036   0.000001  -0.000000  -0.000001   0.067524   0.242613
    13  C   -0.000676  -0.000004  -0.000009   0.000007  -0.104874  -0.016263
    14  H    0.000054   0.000000   0.000000  -0.000000   0.000140  -0.000117
    15  H    0.003485  -0.000022  -0.000025   0.000026  -0.000011   0.000002
    16  H   -0.009330  -0.000783  -0.000088   0.003310  -0.000002  -0.000000
    17  H    0.005007   0.003414  -0.000186  -0.000186  -0.000025   0.000000
    18  H   -0.044281  -0.008557  -0.003307   0.005971   0.000000  -0.000000
    19  H    0.464593   0.006384  -0.003323  -0.008324  -0.000000  -0.000000
    20  H    0.006384   0.447278  -0.023860  -0.035631  -0.000000   0.000000
    21  H   -0.003323  -0.023860   0.431387  -0.025344   0.000000  -0.000000
    22  H   -0.008324  -0.035631  -0.025344   0.448963  -0.000000  -0.000000
    23  H   -0.000000  -0.000000   0.000000  -0.000000   0.357921  -0.000885
    24  C   -0.000000   0.000000  -0.000000  -0.000000  -0.000885   7.296755
    25  H   -0.000000  -0.000000  -0.000000   0.000000   0.000057  -0.001873
    26  H   -0.000000  -0.000000   0.000000  -0.000000  -0.000023  -0.000861
    27  F   -0.000000  -0.000000  -0.000000  -0.000000  -0.000007   0.146288
    28  F    0.000000   0.000000  -0.000000   0.000000  -0.000000   0.256932
    29  F   -0.000000  -0.000000   0.000000   0.000000   0.000022   0.100595
    30  S   -0.000000  -0.000000   0.000000   0.000000   0.004860  -2.957012
    31  O    0.000000   0.000000   0.000000   0.000000   0.000782  -0.170308
    32  O   -0.000000  -0.000000   0.000000  -0.000000  -0.000139   0.029756
    33  H   -0.000000  -0.000000   0.000000   0.000000  -0.002808  -0.001993
              25         26         27         28         29         30
     1  C    0.006715   0.188103  -0.045726  -0.003072  -0.036468  -0.972492
     2  N   -0.002791  -0.021013   0.000063   0.000017   0.000042  -0.004306
     3  C    0.001397   0.007877  -0.000633   0.000015  -0.000942  -0.118096
     4  O   -0.000012  -0.000020   0.000001  -0.000000  -0.000003   0.000155
     5  N   -0.000081  -0.000290   0.000002   0.000000   0.000001   0.004905
     6  C   -0.000003   0.000160  -0.000003   0.000000  -0.000005  -0.001891
     7  C   -0.000000  -0.000011  -0.000000  -0.000000  -0.000000  -0.000187
     8  C   -0.000000   0.000002  -0.000000   0.000000  -0.000000  -0.000005
     9  C   -0.001998   0.000968   0.043444  -0.005394  -0.116125  -0.814416
    10  C   -0.016511   0.012801   0.074248  -0.025720  -0.244938  -3.046201
    11  C    0.087637  -0.017935   0.217232   0.100107   0.203793  -4.698084
    12  C    0.331877   0.070379  -0.298979  -0.019365   0.109158   4.382920
    13  C   -0.097683   0.067727   0.002347  -0.002129   0.023007   0.744698
    14  H   -0.000030   0.009326  -0.000000  -0.000000   0.000000   0.001536
    15  H    0.000000   0.000032  -0.000000  -0.000000   0.000000  -0.000068
    16  H    0.000000  -0.000000   0.000000   0.000000   0.000000  -0.000000
    17  H   -0.000000  -0.000000  -0.000000   0.000000  -0.000000  -0.000004
    18  H   -0.000000  -0.000000   0.000000   0.000000   0.000000   0.000001
    19  H   -0.000000  -0.000000  -0.000000   0.000000  -0.000000  -0.000000
    20  H   -0.000000  -0.000000  -0.000000   0.000000  -0.000000  -0.000000
    21  H   -0.000000   0.000000  -0.000000  -0.000000   0.000000   0.000000
    22  H    0.000000  -0.000000  -0.000000   0.000000   0.000000   0.000000
    23  H    0.000057  -0.000023  -0.000007  -0.000000   0.000022   0.004860
    24  C   -0.001873  -0.000861   0.146288   0.256932   0.100595  -2.957012
    25  H    0.373498  -0.003798  -0.002361  -0.000149   0.000235   0.017025
    26  H   -0.003798   0.414743  -0.000005  -0.000001   0.000001   0.011573
    27  F   -0.002361  -0.000005   8.935801  -0.040716  -0.036417   0.035774
    28  F   -0.000149  -0.000001  -0.040716   8.954485  -0.041831  -0.097741
    29  F    0.000235   0.000001  -0.036417  -0.041831   8.935851   0.132730
    30  S    0.017025   0.011573   0.035774  -0.097741   0.132730  23.227048
    31  O    0.000700   0.000012  -0.008317  -0.006840   0.018761   0.160943
    32  O   -0.004416   0.000247   0.017926  -0.001719  -0.009233  -0.783664
    33  H   -0.000105   0.000054   0.000258  -0.000157  -0.002709   0.032795
              31         32         33
     1  C   -0.021261  -0.096154   0.005066
     2  N   -0.000350   0.000236  -0.001162
     3  C   -0.003902  -0.000010   0.004636
     4  O   -0.000105   0.000026  -0.000017
     5  N    0.000000   0.000010   0.000024
     6  C   -0.000009  -0.000014   0.000008
     7  C    0.000000  -0.000000   0.000000
     8  C   -0.000000  -0.000000   0.000000
     9  C   -1.467541   0.918318   0.016443
    10  C   -2.693274   2.446721   0.421084
    11  C    0.719573   1.078412  -0.061536
    12  C    2.738756  -3.630951  -0.087724
    13  C    0.261974  -0.465910  -0.000190
    14  H    0.000008  -0.000011   0.000008
    15  H    0.000000  -0.000000   0.000000
    16  H   -0.000000   0.000000   0.000000
    17  H   -0.000000   0.000000  -0.000000
    18  H    0.000000   0.000000   0.000000
    19  H    0.000000  -0.000000  -0.000000
    20  H    0.000000  -0.000000  -0.000000
    21  H    0.000000   0.000000   0.000000
    22  H    0.000000  -0.000000   0.000000
    23  H    0.000782  -0.000139  -0.002808
    24  C   -0.170308   0.029756  -0.001993
    25  H    0.000700  -0.004416  -0.000105
    26  H    0.000012   0.000247   0.000054
    27  F   -0.008317   0.017926   0.000258
    28  F   -0.006840  -0.001719  -0.000157
    29  F    0.018761  -0.009233  -0.002709
    30  S    0.160943  -0.783664   0.032795
    31  O    9.293835  -0.743628  -0.006909
    32  O   -0.743628   9.332518   0.001606
    33  H   -0.006909   0.001606   0.369508
 Mulliken charges:
               1
     1  C   -0.223303
     2  N   -0.364439
     3  C    0.166505
     4  O   -0.356845
     5  N   -0.316762
     6  C   -0.514705
     7  C   -0.139788
     8  C   -1.033172
     9  C   -0.160775
    10  C   -0.079399
    11  C   -0.131241
    12  C   -0.347145
    13  C   -0.769047
    14  H    0.373716
    15  H    0.358806
    16  H    0.272056
    17  H    0.271936
    18  H    0.265839
    19  H    0.244189
    20  H    0.266521
    21  H    0.274217
    22  H    0.264933
    23  H    0.317166
    24  C    0.042383
    25  H    0.312667
    26  H    0.259954
    27  F   -0.040221
    28  F   -0.066722
    29  F   -0.035525
    30  S    0.737208
    31  O   -0.072900
    32  O   -0.089926
    33  H    0.313820
 Sum of Mulliken charges =  -0.00000
 Mulliken charges with hydrogens summed into heavy atoms:
               1
     1  C   -0.223303
     2  N    0.009276
     3  C    0.166505
     4  O   -0.356845
     5  N    0.042044
     6  C    0.029287
     7  C    0.370240
     8  C   -0.227501
     9  C    0.156391
    10  C    0.234421
    11  C   -0.131241
    12  C   -0.034478
    13  C   -0.509093
    24  C    0.042383
    27  F   -0.040221
    28  F   -0.066722
    29  F   -0.035525
    30  S    0.737208
    31  O   -0.072900
    32  O   -0.089926
 Electronic spatial extent (au):  <R**2>=          11009.3347
 Charge=             -0.0000 electrons
 Dipole moment (field-independent basis, Debye):
    X=              9.8719    Y=              4.1222    Z=              2.8602  Tot=             11.0737
 Quadrupole moment (field-independent basis, Debye-Ang):
   XX=           -120.8091   YY=           -120.8023   ZZ=           -129.8011
   XY=             16.1889   XZ=             -5.7399   YZ=              2.3759
 Traceless Quadrupole moment (field-independent basis, Debye-Ang):
   XX=              2.9950   YY=              3.0018   ZZ=             -5.9969
   XY=             16.1889   XZ=             -5.7399   YZ=              2.3759
 Octapole moment (field-independent basis, Debye-Ang**2):
  XXX=            244.6565  YYY=              5.1839  ZZZ=             26.0035  XYY=             -2.7804
  XXY=             25.4246  XXZ=             57.3950  XZZ=             -9.6275  YZZ=             -4.4675
  YYZ=             17.7333  XYZ=             -0.0975
 Hexadecapole moment (field-independent basis, Debye-Ang**3):
 XXXX=         -11908.7713 YYYY=           -710.7374 ZZZZ=           -597.2243 XXXY=            280.5309
 XXXZ=           -190.3523 YYYX=            108.1617 YYYZ=             16.6866 ZZZX=           -114.4353
 ZZZY=            -18.3644 XXYY=          -2281.9539 XXZZ=          -2282.2221 YYZZ=           -226.2324
 XXYZ=            -15.3066 YYXZ=            -27.9385 ZZXY=              6.0110
 N-N= 1.745936239624D+03 E-N=-6.929536427349D+03  KE= 1.455958976889D+03
 D1PCM: PCM CHGder 1st derivatives, ID1Alg=3 FixD1E=F DoIter=F DoCFld=F I1PDM=0.
 Calling FoFJK, ICntrl=      2127 FMM=F ISym2X=0 I1Cent= 0 IOpClX= 0 NMat=1 NMatS=1 NMatT=0.
 ***** Axes restored to original set *****
 -------------------------------------------------------------------
 Center     Atomic                   Forces (Hartrees/Bohr)
 Number     Number              X              Y              Z
 -------------------------------------------------------------------
      1        6           0.000000209    0.000000925    0.000001380
      2        7          -0.000001387    0.000001677   -0.000003417
      3        6           0.000003959   -0.000001308    0.000002441
      4        8          -0.000000305   -0.000004860    0.000004374
      5        7           0.000000204   -0.000000792   -0.000001164
      6        6           0.000002404   -0.000001604    0.000000197
      7        6          -0.000003489   -0.000003492   -0.000000730
      8        6          -0.000001587   -0.000006766    0.000001662
      9        6           0.000001596   -0.000001812    0.000001751
     10        6           0.000000544    0.000002578    0.000001091
     11        6           0.000000980    0.000006519    0.000001876
     12        6          -0.000001256    0.000000698   -0.000005284
     13        6          -0.000001893   -0.000002073   -0.000004503
     14        1          -0.000002391   -0.000002735   -0.000005186
     15        1          -0.000003916   -0.000002022   -0.000003437
     16        1          -0.000002370   -0.000006419    0.000004688
     17        1           0.000000415   -0.000002575    0.000002856
     18        1          -0.000001196   -0.000002592   -0.000002810
     19        1          -0.000002018   -0.000007992   -0.000002819
     20        1           0.000000473   -0.000002615    0.000003188
     21        1          -0.000001701   -0.000005666   -0.000000319
     22        1          -0.000000811   -0.000007623    0.000003461
     23        1           0.000002383    0.000000517    0.000005181
     24        6           0.000001909    0.000009503    0.000002402
     25        1          -0.000001491    0.000002629   -0.000006375
     26        1          -0.000002174    0.000000520   -0.000006840
     27        9           0.000002130    0.000007100   -0.000003437
     28        9          -0.000000499    0.000010707    0.000000921
     29        9           0.000007069    0.000012305    0.000001245
     30       16           0.000005528    0.000001717   -0.000003747
     31        8          -0.000000042    0.000004586    0.000006263
     32        8          -0.000004264    0.000001239   -0.000001008
     33        1           0.000002988   -0.000000273    0.000006100
 -------------------------------------------------------------------
 Cartesian Forces:  Max     0.000012305 RMS     0.000003838

 GradGradGradGradGradGradGradGradGradGradGradGradGradGradGradGradGradGrad
 Berny optimization.
 FormGI is forming the generalized inverse of G from B-inverse, IUseBI=4.
 GSVD:  received Info=                   1 from GESDD.
 Internal  Forces:  Max     0.000004390 RMS     0.000001137
 Search for a local minimum.
 Step number   1 out of a maximum of  175
 All quantities printed in internal units (Hartrees-Bohrs-Radians)
 Mixed Optimization -- En-DIIS/RFO-DIIS
 Second derivative matrix not updated -- first step.
 ITU=  0
     Eigenvalues ---    0.00230   0.00444   0.00482   0.00935   0.00976
     Eigenvalues ---    0.01670   0.01712   0.01752   0.01805   0.01847
     Eigenvalues ---    0.01972   0.01973   0.02058   0.02146   0.02174
     Eigenvalues ---    0.02190   0.02211   0.02228   0.02248   0.02281
     Eigenvalues ---    0.03730   0.04461   0.04938   0.05520   0.05535
     Eigenvalues ---    0.05551   0.08180   0.08677   0.08853   0.09097
     Eigenvalues ---    0.09197   0.09276   0.11084   0.12076   0.12651
     Eigenvalues ---    0.15322   0.15987   0.15999   0.15999   0.15999
     Eigenvalues ---    0.16000   0.16000   0.16000   0.16000   0.17598
     Eigenvalues ---    0.21516   0.21894   0.21904   0.22000   0.22005
     Eigenvalues ---    0.22150   0.22976   0.23997   0.24991   0.24995
     Eigenvalues ---    0.24998   0.25000   0.25000   0.25000   0.25000
     Eigenvalues ---    0.25000   0.29954   0.30081   0.30224   0.34103
     Eigenvalues ---    0.34145   0.34310   0.34475   0.34484   0.34633
     Eigenvalues ---    0.34647   0.35382   0.35508   0.35550   0.36200
     Eigenvalues ---    0.37313   0.41597   0.42592   0.45681   0.45894
     Eigenvalues ---    0.45940   0.45945   0.46385   0.47340   0.47617
     Eigenvalues ---    0.48851   0.52473   0.60297   0.60562   0.61285
     Eigenvalues ---    0.96027   0.96393   0.97932
 RFO step:  Lambda= 0.00000000D+00 EMin= 2.30000000D-03
 Linear search not attempted -- first point.
 Iteration  1 RMS(Cart)=  0.00005759 RMS(Int)=  0.00000000
 Iteration  2 RMS(Cart)=  0.00000000 RMS(Int)=  0.00000000
 Variable       Old X    -DE/DX   Delta X   Delta X   Delta X     New X
                                 (Linear)    (Quad)   (Total)
    R1        2.62349  -0.00000   0.00000  -0.00000  -0.00000   2.62349
    R2        2.65382  -0.00000   0.00000  -0.00000  -0.00000   2.65382
    R3        2.65920   0.00000   0.00000   0.00000   0.00000   2.65920
    R4        2.63700   0.00000   0.00000   0.00000   0.00000   2.63700
    R5        1.90952   0.00000   0.00000   0.00000   0.00000   1.90952
    R6        2.29479  -0.00000   0.00000  -0.00000  -0.00000   2.29478
    R7        2.57449  -0.00000   0.00000  -0.00001  -0.00001   2.57448
    R8        2.75377  -0.00000   0.00000  -0.00000  -0.00000   2.75376
    R9        1.90899  -0.00000   0.00000  -0.00000  -0.00000   1.90898
   R10        2.87519   0.00000   0.00000   0.00000   0.00000   2.87519
   R11        2.07086   0.00000   0.00000   0.00000   0.00000   2.07087
   R12        2.06276  -0.00000   0.00000  -0.00000  -0.00000   2.06276
   R13        2.88055  -0.00000   0.00000  -0.00000  -0.00000   2.88055
   R14        2.06811   0.00000   0.00000   0.00000   0.00000   2.06811
   R15        2.07156   0.00000   0.00000   0.00000   0.00000   2.07156
   R16        2.06521   0.00000   0.00000   0.00000   0.00000   2.06521
   R17        2.06251  -0.00000   0.00000  -0.00000  -0.00000   2.06251
   R18        2.06536   0.00000   0.00000   0.00000   0.00000   2.06536
   R19        2.61720   0.00000   0.00000   0.00000   0.00000   2.61720
   R20        2.03769   0.00000   0.00000   0.00000   0.00000   2.03769
   R21        2.63042  -0.00000   0.00000  -0.00000  -0.00000   2.63042
   R22        2.04859  -0.00000   0.00000  -0.00001  -0.00001   2.04858
   R23        2.63442   0.00000   0.00000   0.00001   0.00001   2.63443
   R24        3.31503   0.00000   0.00000   0.00000   0.00000   3.31503
   R25        2.60617   0.00000   0.00000   0.00000   0.00000   2.60617
   R26        2.04792  -0.00000   0.00000  -0.00000  -0.00000   2.04792
   R27        2.05059   0.00000   0.00000   0.00000   0.00000   2.05059
   R28        2.50706   0.00000   0.00000   0.00001   0.00001   2.50707
   R29        2.49938   0.00000   0.00000   0.00001   0.00001   2.49938
   R30        2.50499   0.00000   0.00000   0.00001   0.00001   2.50499
   R31        3.52692  -0.00000   0.00000  -0.00000  -0.00000   3.52692
   R32        2.73819   0.00000   0.00000   0.00000   0.00000   2.73819
   R33        2.73973   0.00000   0.00000   0.00000   0.00000   2.73974
    A1        2.16010  -0.00000   0.00000  -0.00001  -0.00001   2.16009
    A2        2.03701   0.00000   0.00000   0.00001   0.00001   2.03702
    A3        2.08600   0.00000   0.00000   0.00000   0.00000   2.08601
    A4        2.23376  -0.00000   0.00000  -0.00001  -0.00001   2.23376
    A5        2.01000   0.00000   0.00000   0.00000   0.00000   2.01000
    A6        2.03788   0.00000   0.00000   0.00000   0.00000   2.03788
    A7        2.15607  -0.00000   0.00000  -0.00001  -0.00001   2.15606
    A8        1.97629   0.00000   0.00000   0.00001   0.00001   1.97630
    A9        2.15062   0.00000   0.00000   0.00000   0.00000   2.15062
   A10        2.09686   0.00000   0.00000   0.00000   0.00000   2.09687
   A11        2.08403  -0.00000   0.00000  -0.00002  -0.00002   2.08401
   A12        2.04578   0.00000   0.00000   0.00001   0.00001   2.04579
   A13        1.92501  -0.00000   0.00000  -0.00001  -0.00001   1.92500
   A14        1.92669  -0.00000   0.00000  -0.00001  -0.00001   1.92668
   A15        1.88522   0.00000   0.00000  -0.00000  -0.00000   1.88522
   A16        1.92818   0.00000   0.00000   0.00001   0.00001   1.92819
   A17        1.92799  -0.00000   0.00000   0.00000   0.00000   1.92799
   A18        1.86957   0.00000   0.00000   0.00001   0.00001   1.86958
   A19        1.94524  -0.00000   0.00000  -0.00001  -0.00001   1.94524
   A20        1.90326   0.00000   0.00000   0.00001   0.00001   1.90327
   A21        1.91078   0.00000   0.00000   0.00001   0.00001   1.91079
   A22        1.92298   0.00000   0.00000  -0.00000  -0.00000   1.92298
   A23        1.91299  -0.00000   0.00000  -0.00000  -0.00000   1.91299
   A24        1.86689  -0.00000   0.00000  -0.00001  -0.00001   1.86688
   A25        1.93882  -0.00000   0.00000  -0.00000  -0.00000   1.93882
   A26        1.94072   0.00000   0.00000   0.00000   0.00000   1.94072
   A27        1.94176   0.00000   0.00000   0.00000   0.00000   1.94176
   A28        1.87989   0.00000   0.00000   0.00000   0.00000   1.87989
   A29        1.88005  -0.00000   0.00000  -0.00000  -0.00000   1.88005
   A30        1.87980  -0.00000   0.00000   0.00000   0.00000   1.87981
   A31        2.08688   0.00000   0.00000   0.00000   0.00000   2.08689
   A32        2.09678  -0.00000   0.00000  -0.00000  -0.00000   2.09678
   A33        2.09951  -0.00000   0.00000  -0.00000  -0.00000   2.09951
   A34        2.09305   0.00000   0.00000  -0.00000  -0.00000   2.09305
   A35        2.09432  -0.00000   0.00000  -0.00000  -0.00000   2.09432
   A36        2.09578   0.00000   0.00000   0.00000   0.00000   2.09578
   A37        2.11773  -0.00000   0.00000  -0.00000  -0.00000   2.11772
   A38        2.08586   0.00000   0.00000   0.00001   0.00001   2.08587
   A39        2.07928  -0.00000   0.00000  -0.00001  -0.00001   2.07927
   A40        2.07241   0.00000   0.00000   0.00001   0.00001   2.07242
   A41        2.10250  -0.00000   0.00000  -0.00000  -0.00000   2.10249
   A42        2.10822  -0.00000   0.00000  -0.00000  -0.00000   2.10822
   A43        2.11029  -0.00000   0.00000  -0.00001  -0.00001   2.11028
   A44        2.08695   0.00000   0.00000   0.00000   0.00000   2.08695
   A45        2.08591   0.00000   0.00000   0.00000   0.00000   2.08592
   A46        1.90712   0.00000   0.00000   0.00000   0.00000   1.90712
   A47        1.90229   0.00000   0.00000   0.00000   0.00000   1.90229
   A48        1.92128  -0.00000   0.00000  -0.00001  -0.00001   1.92127
   A49        1.90814   0.00000   0.00000   0.00001   0.00001   1.90815
   A50        1.90232  -0.00000   0.00000   0.00000   0.00000   1.90232
   A51        1.92258  -0.00000   0.00000  -0.00000  -0.00000   1.92258
   A52        1.78724  -0.00000   0.00000  -0.00000  -0.00000   1.78724
   A53        1.92648   0.00000   0.00000   0.00001   0.00001   1.92649
   A54        1.92238   0.00000   0.00000   0.00001   0.00001   1.92239
   A55        1.82941   0.00000   0.00000   0.00000   0.00000   1.82941
   A56        1.82824  -0.00000   0.00000  -0.00000  -0.00000   1.82824
   A57        2.13227  -0.00000   0.00000  -0.00002  -0.00002   2.13226
    D1       -0.04096   0.00000   0.00000   0.00001   0.00001  -0.04095
    D2       -3.12035   0.00000   0.00000   0.00002   0.00002  -3.12033
    D3        3.11282  -0.00000   0.00000  -0.00002  -0.00002   3.11280
    D4        0.03343  -0.00000   0.00000  -0.00001  -0.00001   0.03341
    D5       -3.12609  -0.00000   0.00000  -0.00002  -0.00002  -3.12610
    D6        0.01305  -0.00000   0.00000  -0.00002  -0.00002   0.01303
    D7        0.00300   0.00000   0.00000   0.00001   0.00001   0.00301
    D8       -3.14105   0.00000   0.00000   0.00001   0.00001  -3.14104
    D9        3.12848   0.00000   0.00000   0.00002   0.00002   3.12850
   D10       -0.00376   0.00000   0.00000   0.00002   0.00002  -0.00374
   D11       -0.00148  -0.00000   0.00000  -0.00001  -0.00001  -0.00148
   D12       -3.13371  -0.00000   0.00000  -0.00001  -0.00001  -3.13372
   D13       -0.08553  -0.00000   0.00000  -0.00004  -0.00004  -0.08556
   D14        3.07751  -0.00000   0.00000  -0.00001  -0.00001   3.07750
   D15        2.99302  -0.00000   0.00000  -0.00004  -0.00004   2.99297
   D16       -0.12713  -0.00000   0.00000  -0.00002  -0.00002  -0.12715
   D17       -3.07925  -0.00000   0.00000  -0.00003  -0.00003  -3.07928
   D18       -0.30217  -0.00000   0.00000  -0.00004  -0.00004  -0.30221
   D19        0.08371  -0.00000   0.00000  -0.00001  -0.00001   0.08370
   D20        2.86079  -0.00000   0.00000  -0.00002  -0.00002   2.86077
   D21       -2.98570  -0.00000   0.00000  -0.00003  -0.00003  -2.98573
   D22        1.16174  -0.00000   0.00000  -0.00003  -0.00003   1.16170
[...]
 23,0.01113121,0.39598879,-0.00085165,0.00035767,0.00008546,0.00114876,
 -0.00012648,-0.00005852,-0.00086504,-0.00032826,0.00008598,0.00021952,
 0.00020786,-0.00003032,0.00035533,-0.00012111,-0.00005877,-0.00011678,
 -0.00005452,0.00002055,0.00001081,0.00002660,-0.00000045,0.00000182,-0
 .00001624,0.00000137,0.00039364,-0.00034905,-0.00018259,-0.00063142,-0
 .00056662,0.00012366,0.00103750,-0.00046087,0.00202711,0.00006728,0.00
 055875,0.00027946,0.00045635,0.00014572,-0.00018136,-0.00000282,0.0000
 4956,-0.00001349,-0.00001443,0.00004103,0.00000363,0.00002980,0.000011
 91,0.00000686,0.00001032,0.00000437,-0.00000208,-0.00000359,0.00000006
 ,0.00000360,-0.00000127,-0.00000142,-0.00000242,-0.00000070,0.00000378
 ,-0.00000286,0.00001205,-0.00000292,-0.00000179,0.00000040,0.00000373,
 0.00000332,0.00001339,-0.00004039,-0.00002883,0.07898538,-0.10018528,0
 .01215759,-0.00000776,0.00009966,-0.00007754,0.00004526,-0.00003795,-0
 .00005056,0.05530502,-0.04435859,-0.00982249,-0.12006289,0.12588546,0.
 00197749,-0.00085470,-0.00028895,-0.00266307,0.00043211,0.00017940,0.0
 0180037,0.00069975,-0.00026178,-0.00042332,-0.00041371,0.00010236,-0.0
 0071647,0.00027890,0.00016433,0.00020760,0.00009674,-0.00005233,-0.000
 02139,-0.00005893,-0.00000612,-0.00000649,0.00003382,-0.00000216,-0.00
 096876,0.00101305,0.00074879,0.00114896,0.00147753,-0.00072630,-0.0031
 4434,0.00085209,-0.00523384,-0.00017167,-0.00185124,-0.00049720,-0.001
 46167,-0.00009195,0.00084542,-0.00004576,-0.00012365,-0.00002878,0.000
 01924,-0.00009565,-0.00003530,-0.00005557,-0.00001872,-0.00000500,-0.0
 0002413,-0.00001138,0.00000137,0.00000584,0.00000547,0.00000100,0.0000
 0206,0.00000134,0.00000309,0.00000052,-0.00000882,0.00000353,-0.000023
 55,0.00000474,0.00000188,0.00000192,-0.00000445,-0.00000146,-0.0000763
 2,0.00009583,0.00005483,-0.03912819,0.01423473,-0.08137748,-0.00000191
 ,-0.00004315,-0.00039885,-0.00017529,0.00012124,0.00006914,0.02270818,
 -0.01913098,0.00985245,0.00640173,-0.00351950,0.06575065,0.00023834,0.
 00036356,0.00015991,0.00007179,0.00001097,-0.00003778,0.00013002,-0.00
 028860,0.00007532,-0.00008368,0.00018498,-0.00007798,-0.00011863,0.000
 10401,-0.00000296,0.00004361,0.00001013,0.00000283,0.00000169,-0.00001
 084,0.00000375,-0.00000196,0.00000532,0.00000196,0.00079527,-0.0002600
 8,-0.00053160,-0.00026903,-0.00036931,-0.00013395,0.00074330,0.0005875
 9,0.00056093,0.00055279,-0.00045590,-0.00006532,-0.00031305,0.00010669
 ,-0.00017552,-0.00000204,-0.00001129,0.00003573,-0.00000060,-0.0000131
 7,0.00000539,-0.00000923,-0.00000696,-0.00000243,0.00000541,-0.0000005
 1,-0.00000406,0.00000099,-0.00000309,0.00000045,-0.00000074,0.00000580
 ,-0.00000553,0.00000359,-0.00000026,-0.00000312,-0.00000710,0.00000433
 ,0.00000192,0.00000063,-0.00000400,-0.00000101,0.00010252,-0.00003833,
 0.00003244,-0.14183758,-0.07565826,0.07490838,-0.00008217,0.00016133,0
 .00006015,0.00002440,-0.00001197,0.00000100,0.00188081,-0.03023900,0.0
 0150096,-0.07326719,-0.02341874,0.03649373,0.21210780,-0.00050367,0.00
 013351,0.00001755,0.00075301,0.00001265,-0.00009223,-0.00051745,-0.000
 43566,0.00012332,0.00012066,0.00028423,-0.00008561,0.00017144,-0.00000
 377,-0.00003805,-0.00005719,-0.00003634,0.00002150,0.00000942,0.000010
 44,0.00000201,-0.00000056,-0.00000858,0.00000203,0.00052781,0.00007743
 ,-0.00018770,-0.00000976,-0.00107477,0.00004104,0.00122194,0.00082694,
 0.00045015,-0.00001999,0.00027822,-0.00018078,0.00026190,0.00022653,0.
 00005554,-0.00001723,0.00001786,0.00001424,-0.00001350,0.00001629,0.00
 000540,0.00001507,0.00000418,0.00000409,0.00000998,0.00000337,-0.00000
 565,-0.00000219,-0.00000226,0.00000399,-0.00000175,0.00000413,-0.00000
 714,0.00000227,0.00000313,-0.00000548,0.00000390,0.00000091,0.00000011
 ,0.00000116,-0.00000031,0.00000233,0.00008878,-0.00007095,0.00002029,-
 0.07786857,-0.15323768,0.08461197,-0.00013823,0.00025231,-0.00015607,0
 .00003747,-0.00002248,0.00000894,-0.03605061,-0.07166412,0.01734131,-0
 .00989236,0.01583767,-0.00118277,0.13303012,0.21342705,0.00111060,-0.0
 0039929,-0.00020410,-0.00166786,0.00019473,0.00022426,0.00112355,0.000
 61700,-0.00024927,-0.00028100,-0.00037631,0.00016190,-0.00042105,0.000
 12854,0.00013492,0.00011706,0.00006609,-0.00005566,-0.00001677,-0.0000
 3341,-0.00001022,-0.00000291,0.00002115,-0.00000246,-0.00084738,0.0001
 4092,0.00031820,-0.00036867,0.00169947,-0.00036610,-0.00293688,-0.0016
 8128,-0.00071081,0.00004343,-0.00077914,0.00003300,-0.00084986,-0.0001
 3992,0.00027676,-0.00001722,-0.00006055,-0.00006371,0.00001628,-0.0000
 5544,-0.00003837,-0.00003017,-0.00000790,0.00000053,-0.00001970,-0.000
 01158,0.00000445,0.00000304,0.00000925,0.00000128,0.00000251,-0.000005
 86,0.00000876,-0.00000306,-0.00000803,0.00000600,-0.00001216,0.0000005
 9,-0.00000053,0.00000162,0.00000068,0.00000047,-0.00013945,0.00011575,
 -0.00002833,0.07798788,0.08582616,-0.16331816,0.00022245,-0.00030816,-
 0.00016688,-0.00012924,0.00008889,-0.00003764,-0.00543186,-0.00177780,
 0.01924201,0.02001971,0.00036364,0.00767924,-0.11410538,-0.10879169,0.
 15769270,-0.01563292,0.00485619,0.00130162,0.01973088,-0.00341225,-0.0
 0193641,-0.01328838,-0.00513953,0.00138058,0.00281107,0.00305799,-0.00
 046940,0.00524167,-0.00206139,-0.00097627,-0.00150253,-0.00068472,0.00
 035221,0.00014336,0.00042554,0.00001167,0.00004643,-0.00023989,0.00000
 226,0.00621563,-0.01078396,0.00171987,-0.03835982,-0.00008601,0.003155
 56,-0.14671456,0.02816677,-0.00262163,-0.01292228,0.02793342,-0.000007
 88,0.01471644,-0.00034490,0.00031941,0.00038169,0.00095373,-0.00000337
 ,-0.00011921,0.00069329,0.00017566,0.00043163,0.00014819,0.00004823,0.
 00015475,0.00006714,-0.00000881,-0.00004090,-0.00001717,0.00000397,-0.
 00001389,-0.00003297,0.00000029,-0.00001210,0.00004813,-0.00001416,0.0
 0017016,-0.00003553,-0.00002147,-0.00000601,0.00004404,0.00001923,0.00
 004646,0.00002111,0.00004414,-0.04657363,0.00737257,-0.03909977,0.0002
 2627,-0.00313134,-0.00096404,0.00124791,-0.00092299,-0.00007413,0.0040
 7298,0.00249244,0.00516884,-0.02885265,0.00991999,-0.02533157,-0.00357
 604,-0.01480599,0.02932106,0.60181623,0.00450031,-0.00657580,-0.000230
 39,-0.00805514,0.00113024,0.00076502,0.00544184,0.00260021,-0.00060270
 ,-0.00125726,-0.00156506,0.00019921,-0.00211943,0.00069130,0.00035665,
 0.00064934,0.00032712,-0.00011357,-0.00007273,-0.00016001,-0.00000896,
 -0.00001041,0.00009526,-0.00000286,-0.00940431,0.00080602,0.00037210,-
 0.00015544,0.01849317,-0.00122235,0.02790901,-0.08677742,0.00219477,0.
 02864980,-0.00865420,-0.00218676,-0.00291997,-0.00728993,0.00053094,-0
 .00011608,-0.00033783,0.00000185,0.00006619,-0.00024436,-0.00004442,-0
 .00018557,-0.00006280,-0.00003986,-0.00006989,-0.00002452,0.00001604,0
 .00001821,0.00000109,-0.00001787,0.00000788,0.00000555,0.00001659,-0.0
 0000044,-0.00001856,0.00001845,-0.00006233,0.00000741,0.00000727,-0.00
 000557,-0.00001555,-0.00001919,-0.00095177,0.00087572,0.00021917,0.006
 67445,-0.02295004,0.00545308,0.00182112,-0.00389065,-0.00025608,0.0009
 1238,0.00007434,-0.00009119,-0.00818585,-0.02232867,-0.03506008,0.0125
 2292,-0.00241395,0.01013122,-0.00640007,-0.01081587,0.02428699,0.17728
 852,1.01055004,0.00226262,-0.00062678,-0.00087354,-0.00288633,0.000418
 03,-0.00108547,0.00177557,0.00062689,-0.00022464,-0.00047078,-0.000361
 02,-0.00015927,-0.00074349,0.00025476,0.00017647,0.00022033,0.00009793
 ,0.00005581,-0.00002210,-0.00005876,0.00002515,-0.00000551,0.00003073,
 0.00000136,0.00004695,0.00131413,0.00681846,0.00453137,0.00023939,-0.0
 0456596,0.00484295,-0.00093863,-0.06210428,-0.00021434,-0.00388535,-0.
 00424675,-0.00086955,0.00067269,0.00702501,-0.00002035,-0.00012756,0.0
 0019456,0.00003168,-0.00006553,0.00007025,-0.00006542,-0.00003636,-0.0
 0003003,-0.00002772,0.00000921,-0.00000962,0.00000579,-0.00001228,-0.0
 0001347,0.00000208,0.00002032,-0.00001081,0.00000632,0.00000344,-0.000
 00293,-0.00002189,0.00000379,0.00000646,-0.00000664,-0.00001371,-0.000
 01084,0.00013432,0.00007880,0.00112188,-0.04793763,0.00868965,-0.16186
 654,-0.00080205,0.00116216,-0.00247214,-0.00012742,0.00016298,0.001145
 38,0.00025098,0.00349620,0.00099805,0.01215239,-0.00421119,0.00789603,
 -0.00112118,-0.00049841,-0.00278964,-0.09559801,-0.00120719,0.52711984
 ,0.00237682,-0.00025956,-0.00020794,-0.00295805,0.00050622,0.00036215,
 0.00230822,0.00060386,-0.00020808,-0.00061609,-0.00036169,0.00010525,-
 0.00098020,0.00041903,0.00018950,0.00029282,0.00013262,-0.00007231,-0.
 00002517,-0.00007934,-0.00000410,-0.00000933,0.00004620,-0.00000029,0.
 00012802,0.00169539,-0.00088373,-0.00007261,-0.00022306,0.00100659,0.0
 0606955,0.02506541,0.00893435,-0.00433702,-0.00363497,0.00251942,-0.00
 165259,0.00201796,-0.00091706,-0.00005058,-0.00014519,-0.00003153,0.00
 002402,-0.00012485,-0.00003842,-0.00007544,-0.00002989,-0.00000726,-0.
 00002439,-0.00001714,0.00000062,0.00000761,0.00000527,0.00000034,0.000
 00193,0.00000585,0.00000028,0.00000255,-0.00001094,0.00000250,-0.00003
 450,0.00000889,0.00000431,0.00000274,-0.00000905,-0.00000309,0.0000768
 0,-0.00000703,0.00000557,0.00453838,-0.00672233,0.00364767,0.00014453,
 0.00047219,0.00036354,-0.00067021,0.00021898,-0.00016298,-0.00043320,-
 0.00247459,-0.00437806,0.00314243,-0.00118179,0.00118211,0.00187714,0.
 00292107,-0.00396067,-0.08066343,-0.00715999,-0.00440278,0.05968521,-0
 .00355772,0.00094557,0.00027889,0.00425335,-0.00024707,-0.00044502,-0.
 00298338,-0.00142740,0.00026277,0.00073159,0.00090151,-0.00008928,0.00
 117124,-0.00034116,-0.00015929,-0.00037125,-0.00018911,0.00005532,0.00
 004097,0.00008810,0.00000048,0.00000507,-0.00005324,0.00000201,0.00199
 370,0.00048455,0.00044755,-0.00281016,-0.00394889,0.00056410,-0.007225
 67,-0.01605160,-0.00650095,0.00585993,0.00264114,-0.00207028,0.0018791
 7,-0.00124796,0.00046380,-0.00006398,0.00018207,0.00000058,-0.00004804
 ,0.00012837,0.00000795,0.00010524,0.00003657,0.00002495,0.00003476,0.0
 0001390,-0.00000828,-0.00001168,0.00000253,0.00001375,-0.00000532,-0.0
 0000511,-0.00000872,-0.00000088,0.00000937,-0.00000979,0.00003551,-0.0
 0000476,-0.00000503,0.00000390,0.00001059,0.00001238,0.00029172,-0.000
 25350,-0.00000672,0.00515734,-0.01917522,0.01439714,-0.00045225,0.0007
 5920,-0.00032901,0.00082223,-0.00026661,0.00009998,-0.00111365,-0.0021
 3891,-0.00764663,-0.00673285,0.00530691,-0.00304624,0.00294004,0.00716
 247,-0.00636109,-0.01843625,-0.54457687,-0.14921269,0.01172272,0.58056
 986,0.00001812,0.00042607,0.00001816,0.00013960,0.00003427,0.00008379,
 -0.00017597,-0.00002831,-0.00000328,0.00009333,0.00001159,0.00005461,0
 .00010673,-0.00001972,0.00001603,-0.00003783,-0.00002255,-0.00002644,0
 .00000399,0.00000611,-0.00000747,-0.00000062,-0.00000381,-0.00000198,0
 .00039470,-0.00006582,0.00000755,-0.00074720,-0.00011530,0.00013402,-0
 .00316069,-0.00486644,0.00922152,0.00289021,-0.00031306,0.00135795,-0.
 00087423,-0.00084775,-0.00061943,-0.00002577,-0.00000579,-0.00006622,-
 0.00000724,-0.00000110,-0.00003166,0.00001347,0.00000949,0.00001021,0.
 00000048,-0.00000354,0.00000032,-0.00000071,0.00000659,0.00000652,-0.0
 0000051,-0.00000638,0.00000204,-0.00000155,-0.00000296,0.00000086,0.00
 000226,0.00000014,-0.00000187,0.00000384,0.00000366,0.00000430,0.00001
 083,-0.00004055,-0.00011276,0.00806406,-0.02607546,0.01163447,0.000168
 81,-0.00001699,0.00013534,0.00019797,-0.00006490,-0.00028211,-0.003091
 24,-0.00770464,-0.01302132,-0.00371422,0.00304577,-0.00203362,-0.00039
 956,0.00170114,-0.00228777,-0.00713718,-0.15718948,-0.13312518,0.00055
 708,0.17458675,0.11208048,0.00340795,-0.00265128,-0.00014604,-0.004733
 90,0.00089779,0.00054287,0.00360300,0.00082677,-0.00026537,-0.00103988
 ,-0.00045071,0.00014635,-0.00155036,0.00070197,0.00024986,0.00046263,0
 .00021243,-0.00010276,-0.00003944,-0.00012628,-0.00000349,-0.00001408,
 0.00007211,-0.00000113,-0.00351083,-0.00044553,-0.00106354,-0.00209565
 ,0.00860781,0.00246127,-0.01253918,-0.02612083,0.01532376,-0.00027280,
 -0.00284523,0.00083164,-0.00171417,-0.00019855,-0.00080350,-0.00010539
 ,-0.00022881,0.00000715,0.00002511,-0.00019485,-0.00005214,-0.00012268
 ,-0.00004826,-0.00001239,-0.00003673,-0.00002261,-0.00000044,0.0000121
 4,0.00000395,-0.00000057,0.00000261,0.00001223,-0.00000260,0.00000495,
 -0.00001466,0.00000259,-0.00005322,0.00001289,0.00000734,0.00000294,-0
 .00001506,-0.00000576,-0.00051929,0.00059897,-0.00027171,-0.00475128,-
 0.00590417,-0.00554609,-0.00126472,0.00008805,0.00068718,-0.00036507,0
 .00028721,0.00001413,0.00131971,0.00241653,0.00091820,0.00801070,-0.00
 086753,0.00249489,0.00080193,0.00052446,0.00117917,-0.26799412,-0.2148
 6354,0.12993522,0.01200495,0.00523577,0.00667491,0.27261621,0.00101574
 ,-0.00034670,-0.00008131,-0.00065201,0.00050455,-0.00001734,0.00045485
 ,-0.00017934,0.00003133,-0.00013059,0.00012981,-0.00002775,-0.00019749
 ,0.00016820,0.00002079,0.00004311,0.00000631,-0.00000751,0.00000099,-0
 .00002159,0.00000486,-0.00000506,0.00000935,-0.00000023,0.00010335,0.0
 0054288,0.00020662,-0.00119172,0.00034198,-0.00006868,0.00449994,0.003
 52243,-0.00078063,-0.00022132,-0.00382262,-0.00055200,-0.00020638,0.00
 222467,-0.00001116,-0.00008161,-0.00005659,0.00003115,-0.00000993,-0.0
 0003609,-0.00000601,-0.00001423,-0.00000647,0.00000467,-0.00000237,-0.
 00000033,-0.00000680,0.00000120,-0.00000070,0.00000443,-0.00000103,0.0
 0000737,-0.00000894,0.00000373,0.00000012,-0.00000558,-0.00000800,0.00
 000313,0.00000194,0.00000223,-0.00000347,0.00000261,-0.00006313,0.0000
 6929,-0.00001607,-0.01523257,-0.00898789,-0.00990843,0.00021725,0.0023
 5171,0.00020335,-0.00031800,0.00008548,-0.00000740,0.00242612,0.008396
 18,0.00599710,0.00361571,0.00050902,0.00099086,-0.00062824,-0.00135887
 ,0.00726772,-0.20359381,-0.31432876,0.14430936,-0.02516356,-0.01006355
 ,0.01763780,0.23457453,0.31986156,-0.00051401,-0.00010787,0.00007280,0
 .00040497,-0.00010281,0.00012786,-0.00036636,0.00010176,-0.00004015,0.
 00020625,-0.00008226,0.00007189,0.00020469,-0.00010631,-0.00000608,-0.
 00005873,-0.00002764,-0.00000392,0.00000339,0.00001769,-0.00000959,0.0
 0000221,-0.00000945,-0.00000385,0.00010232,0.00108138,-0.00088469,0.00
 261884,-0.00205188,0.00148595,0.00141356,0.00771444,0.00780507,-0.0002
 8529,0.00109872,0.00023370,0.00032210,-0.00041512,-0.00006062,0.000003
 81,0.00001329,-0.00006051,-0.00000292,0.00001292,-0.00002853,0.0000184
 0,0.00001297,0.00000678,0.00000121,-0.00000182,0.00000584,-0.00000098,
 0.00000515,0.00000361,0.00000098,-0.00000920,0.00000618,-0.00000286,-0
 .00000216,0.00000308,0.00000671,-0.00000180,-0.00000285,0.00000239,0.0
 0000532,0.00000298,0.00010764,-0.00019105,-0.00026796,0.02612743,0.016
 58942,0.01022747,0.00015733,-0.00035637,-0.00082321,0.00011497,-0.0000
 6230,-0.00012649,-0.00187079,-0.00233832,-0.00281796,-0.00560735,-0.00
 009262,-0.00198864,0.00221029,0.00636858,-0.01500098,0.13201445,0.1525
 8503,-0.17647856,-0.00364129,-0.01438985,0.01750600,-0.15371242,-0.165
 12037,0.16090618,-0.00488476,0.00176160,0.00140118,0.00021838,0.001392
 76,-0.00005479,0.00044541,0.00041824,-0.00007348,-0.00003747,-0.000319
 88,0.00003020,-0.00013057,-0.00007010,0.00000861,0.00003579,0.00003299
 ,0.00000403,-0.00001000,-0.00000945,-0.00000136,-0.00000017,0.00000592
 ,-0.00000075,0.00041173,0.02834568,-0.00023203,-0.06558307,0.04316853,
 0.00161963,0.00834325,-0.02292748,-0.00000844,-0.00431334,-0.00290635,
 0.00132357,-0.00108715,0.00009552,-0.00005809,-0.00039249,0.00014336,-
 0.00001833,0.00002488,-0.00001952,0.00001600,-0.00001171,-0.00000341,-
 0.00000556,-0.00000594,-0.00000240,0.00000383,0.00000142,-0.00000097,-
 0.00000232,0.00000130,-0.00000071,0.00000196,-0.00000093,-0.00000010,0
 .00000222,-0.00000217,-0.00000170,0.00000007,-0.00000154,0.00000008,-0
 .00000189,0.00094969,-0.00043525,-0.00065902,-0.00068977,-0.00037517,-
 0.00023099,0.00048596,-0.00125835,0.00003775,0.00008450,0.00003136,-0.
 00007592,0.00007778,0.00035062,0.00030423,0.00009789,0.00001379,-0.000
 00518,0.00018703,0.00019859,0.00009296,-0.00118109,-0.00446618,-0.0008
 5539,-0.00008090,0.00152883,0.00003410,0.00044794,0.00076230,0.0000190
 8,0.06660013,0.00086509,0.00106689,-0.00002785,0.00001625,-0.00026389,
 -0.00000243,-0.00013000,-0.00012248,0.00002836,0.00000104,0.00007228,-
 0.00001129,0.00004367,0.00000559,-0.00000720,-0.00000663,-0.00000723,0
 .00000212,0.00000190,0.00000337,0.00000052,0.00000037,-0.00000176,-0.0
 0000027,-0.00010882,-0.00429189,0.00020691,0.04271234,-0.34307928,0.00
 238680,0.00285290,-0.01373224,0.00015208,-0.00317329,-0.00005454,0.000
 40369,0.00015179,0.00069181,-0.00003905,0.00006465,0.00002160,-0.00000
 756,-0.00000386,0.00000476,-0.00000278,0.00000364,0.00000148,-0.000000
 27,0.00000227,0.00000108,0.00000023,-0.00000039,-0.00000049,-0.0000000
 4,-0.00000022,-0.00000051,0.00000005,0.00000017,0.00000029,0.00000017,
 0.00000074,0.00000006,-0.00000003,0.00000014,0.00000020,-0.00000024,0.
 00001198,0.00070773,-0.00006216,-0.00057716,-0.00030402,0.00002749,0.0
 0030244,-0.00052074,-0.00000029,0.00004425,-0.00005368,-0.00001025,0.0
 0004085,0.00013295,0.00004847,0.00010588,0.00001392,-0.00001356,0.0003
 0375,0.00015234,-0.00003011,0.00023963,-0.00262663,-0.00033498,0.00176
 333,0.00074828,-0.00007482,-0.00007556,0.00047895,-0.00013746,-0.04545
 316,0.36095578,0.00142024,0.00022634,0.00802035,-0.00003765,-0.0001756
 2,-0.00016265,-0.00002379,-0.00004860,0.00013318,0.00003921,0.00002675
 ,0.00000897,0.00001239,0.00000653,-0.00005302,0.00000054,0.00000185,0.
 00003796,0.00000073,0.00000157,0.00000112,0.00000020,-0.00000085,0.000
 00046,0.00068673,-0.00283887,0.00507693,0.00130527,0.00187312,-0.03970
 759,-0.00036132,0.00293599,0.00263140,0.00131479,0.00035348,0.00578835
 ,-0.00012372,-0.00005009,-0.00111974,0.00000511,-0.00002615,-0.0003163
 2,-0.00000649,-0.00000423,-0.00000826,0.,0.00000075,-0.00000280,0.0000
 0064,-0.00000072,-0.00000063,0.00000003,-0.00000293,-0.00000136,-0.000
 00087,0.00000268,-0.00000165,0.00000099,0.00000148,-0.00000109,0.00000
 066,-0.00000005,-0.00000001,-0.00000118,-0.00000084,-0.00000118,-0.000
 70880,-0.00015007,-0.00470273,-0.00120916,-0.00049448,0.00122386,-0.00
 000612,0.00017936,0.00056524,-0.00008994,-0.00002701,-0.00069459,0.000
 13100,0.00001880,-0.00019650,-0.00012266,0.00012941,-0.00041569,0.0006
 1224,0.00043607,-0.00045386,-0.00077494,0.00113858,-0.00258505,0.00003
 833,-0.00092956,-0.00065306,0.00051342,-0.00008839,0.00013920,-0.00261
 586,-0.00249427,0.02745077\\-0.00000021,-0.00000092,-0.00000138,0.0000
 0139,-0.00000168,0.00000342,-0.00000395,0.00000130,-0.00000244,0.00000
 030,0.00000486,-0.00000437,-0.00000021,0.00000080,0.00000117,-0.000002
 41,0.00000160,-0.00000020,0.00000349,0.00000349,0.00000073,0.00000159,
 0.00000677,-0.00000166,-0.00000159,0.00000180,-0.00000175,-0.00000055,
 -0.00000258,-0.00000109,-0.00000098,-0.00000651,-0.00000188,0.00000126
 ,-0.00000071,0.00000528,0.00000190,0.00000208,0.00000450,0.00000239,0.
 00000274,0.00000519,0.00000392,0.00000202,0.00000344,0.00000237,0.0000
 0642,-0.00000469,-0.00000041,0.00000257,-0.00000286,0.00000120,0.00000
 259,0.00000281,0.00000202,0.00000799,0.00000282,-0.00000047,0.00000262
 ,-0.00000319,0.00000170,0.00000567,0.00000032,0.00000081,0.00000762,-0
 .00000346,-0.00000238,-0.00000052,-0.00000518,-0.00000191,-0.00000950,
 -0.00000240,0.00000149,-0.00000263,0.00000638,0.00000217,-0.00000052,0
 .00000684,-0.00000213,-0.00000710,0.00000344,0.00000050,-0.00001071,-0
 .00000092,-0.00000707,-0.00001230,-0.00000125,-0.00000552,-0.00000172,
 0.00000375,0.00000004,-0.00000458,-0.00000627,0.00000426,-0.00000124,0
 .00000101,-0.00000299,0.00000027,-0.00000610\\\@


 I DON'T PRETEND TO UNDERSTAND THE UNIVERSE --
 IT'S A GREAT DEAL BIGGER THAN I AM.
       -- ATTR. TO WILLIAM ALLINGHAM (1828-89)
 Job cpu time:       0 days  6 hours 17 minutes  5.9 seconds.
 File lengths (MBytes):  RWF=    936 Int=      0 D2E=      0 Chk=     27 Scr=      1
 Normal termination of Gaussian 09 at Thu Nov 14 11:10:39 2019.
pbs_rusage has been removed.
Please contact help@nci.org.au if you require this functionality.
