 Entering Gaussian System, Link 0=/apps/gaussian/g09e01/g09/g09
 Initial command:
 /apps/gaussian/g09e01/g09/l1.exe "/jobfs/local/3579035.r-man2/Gau-53049.inp" -scrdir="/jobfs/local/3579035.r-man2/"
 Entering Link 1 = /apps/gaussian/g09e01/g09/l1.exe PID=     53055.
  
 Copyright (c) 1988,1990,1992,1993,1995,1998,2003,2009,2015,
            Gaussian, Inc.  All Rights Reserved.
  
 This is part of the Gaussian(R) 09 program.  It is based on
 the Gaussian(R) 03 system (copyright 2003, Gaussian, Inc.),
 the Gaussian(R) 98 system (copyright 1998, Gaussian, Inc.),
 the Gaussian(R) 94 system (copyright 1995, Gaussian, Inc.),
 the Gaussian 92(TM) system (copyright 1992, Gaussian, Inc.),
 the Gaussian 90(TM) system (copyright 1990, Gaussian, Inc.),
 the Gaussian 88(TM) system (copyright 1988, Gaussian, Inc.),
 the Gaussian 86(TM) system (copyright 1986, Carnegie Mellon
 University), and the Gaussian 82(TM) system (copyright 1983,
 Carnegie Mellon University). Gaussian is a federally registered
 trademark of Gaussian, Inc.
  
 This software contains proprietary and confidential information,
 including trade secrets, belonging to Gaussian, Inc.
  
 This software is provided under written license and may be
 used, copied, transmitted, or stored only in accord with that
 written license.
  
 The following legend is applicable only to US Government
 contracts under FAR:
  
                    RESTRICTED RIGHTS LEGEND
  
 Use, reproduction and disclosure by the US Government is
 subject to restrictions as set forth in subparagraphs (a)
 and (c) of the Commercial Computer Software - Restricted
 Rights clause in FAR 52.227-19.
  
 Gaussian, Inc.
 340 Quinnipiac St., Bldg. 40, Wallingford CT 06492
  
  
 ---------------------------------------------------------------
 Warning -- This program may not be used in any manner that
 competes with the business of Gaussian, Inc. or will provide
 assistance to any competitor of Gaussian, Inc.  The licensee
 of this program is prohibited from giving any competitor of
 Gaussian, Inc. access to this program.  By using this program,
 the user acknowledges that Gaussian, Inc. is engaged in the
 business of creating and licensing software in the field of
 computational chemistry and represents and warrants to the
 licensee that it is not a competitor of Gaussian, Inc. and that
 it will not use this program in any manner prohibited above.
 ---------------------------------------------------------------
  

 Cite this work as:
 Gaussian 09, Revision E.01,
 M. J. Frisch, G. W. Trucks, H. B. Schlegel, G. E. Scuseria, 
 M. A. Robb, J. R. Cheeseman, G. Scalmani, V. Barone, B. Mennucci, 
 G. A. Petersson, H. Nakatsuji, M. Caricato, X. Li, H. P. Hratchian, 
 A. F. Izmaylov, J. Bloino, G. Zheng, J. L. Sonnenberg, M. Hada, 
 M. Ehara, K. Toyota, R. Fukuda, J. Hasegawa, M. Ishida, T. Nakajima, 
 Y. Honda, O. Kitao, H. Nakai, T. Vreven, J. A. Montgomery, Jr., 
 J. E. Peralta, F. Ogliaro, M. Bearpark, J. J. Heyd, E. Brothers, 
 K. N. Kudin, V. N. Staroverov, T. Keith, R. Kobayashi, J. Normand, 
 K. Raghavachari, A. Rendell, J. C. Burant, S. S. Iyengar, J. Tomasi, 
 M. Cossi, N. Rega, J. M. Millam, M. Klene, J. E. Knox, J. B. Cross, 
 V. Bakken, C. Adamo, J. Jaramillo, R. Gomperts, R. E. Stratmann, 
 O. Yazyev, A. J. Austin, R. Cammi, C. Pomelli, J. W. Ochterski, 
 R. L. Martin, K. Morokuma, V. G. Zakrzewski, G. A. Voth, 
 P. Salvador, J. J. Dannenberg, S. Dapprich, A. D. Daniels, 
 O. Farkas, J. B. Foresman, J. V. Ortiz, J. Cioslowski, 
 and D. J. Fox, Gaussian, Inc., Wallingford CT, 2013.
 
 ******************************************
 Gaussian 09:  ES64L-G09RevE.01 30-Nov-2015
                14-Nov-2019 
 ******************************************
 %chk=CP21.M062X_6-311pGd_opt_GD3.chk
 %mem=196608000
 %nproc=4
 Will use up to    4 processors via shared memory.
 ----------------------------------------------------------------------
 # M062X/6-311+G* SCF=Tight INT(grid=ultrafine) OPT IOP(2/17=4) Empiric
 alDispersion=GD3 maxdisk=2684354560
 ----------------------------------------------------------------------
 1/14=-1,18=20,19=15,26=4,38=1/1,3;
 2/9=110,12=2,17=4,18=5,40=1/2;
 3/5=4,6=6,7=11,11=2,16=1,25=1,30=1,71=1,74=-55,75=-5,124=31/1,2,3;
 4//1;
 5/5=2,32=2,38=5/2;
 6/7=2,8=2,9=2,10=2,28=1/1;
 7//1,2,3,16;
 1/14=-1,18=20,19=15,26=4/3(2);
 2/9=110,17=4/2;
 99//99;
 2/9=110,17=4/2;
 3/5=4,6=6,7=11,11=2,16=1,25=1,30=1,71=1,74=-55,75=-5,124=31/1,2,3;
 4/5=5,16=3,69=1/1;
 5/5=2,32=2,38=5/2;
 7//1,2,3,16;
 1/14=-1,18=20,19=15,26=4/3(-5);
 2/9=110,17=4/2;
 6/7=2,8=2,9=2,10=2,19=2,28=1/1;
 99/9=1/99;
 ---------------------------
 CP21.M062X_6-311pGd_opt_GD3
 ---------------------------
 Symbolic Z-matrix:
 Charge =  0 Multiplicity = 1
 C                    -6.10445   1.25459   0.36313 
 N                    -4.84897   0.65739   0.28377 
 C                    -3.62619   1.28107   0.02846 
 O                    -3.51113   2.45885  -0.22502 
 N                    -2.56628   0.41307   0.06124 
 C                    -1.21538   0.94034  -0.08991 
 C                    -0.21621  -0.19588  -0.24976 
 C                     1.20579   0.33008  -0.41776 
 C                    -6.30088   2.64383   0.36401 
 C                    -7.58613   3.14974   0.47277 
 C                    -8.66825   2.28171   0.57668 
 C                    -8.49164   0.90053   0.5782 
 C                    -7.21124   0.39564   0.47171 
 H                    -4.85084  -0.35172   0.27784 
 H                    -2.65948  -0.4389    0.5952 
 H                    -0.94994   1.57051   0.76701 
 H                    -1.20961   1.58399  -0.97099 
 H                    -0.50132  -0.80232  -1.11452 
 H                    -0.26231  -0.85228   0.62741 
 H                     1.28565   0.96853  -1.30064 
 H                     1.91855  -0.48764  -0.53296 
 H                     1.51336   0.92075   0.44836 
 H                    -5.45645   3.30921   0.27864 
 C                    -10.76704   3.07689  -1.12563 
 H                    -9.34734   0.24223   0.67237 
 H                    -7.05849  -0.6789    0.47848 
 F                    -10.71981   1.88137  -1.69987 
 F                    -11.99386   3.55881  -1.21668 
 F                    -9.92636   3.88882  -1.75233 
 S                    -10.29716   2.93706   0.67573 
 O                    -10.25311   4.29995   1.16032 
 O                    -11.19293   1.9393    1.22197 
 H                    -7.75196   4.22092   0.4872 
 

 GradGradGradGradGradGradGradGradGradGradGradGradGradGradGradGradGradGrad
 Berny optimization.
 Initialization pass.
                           ----------------------------
                           !    Initial Parameters    !
                           ! (Angstroms and Degrees)  !
 --------------------------                            --------------------------
 ! Name  Definition              Value          Derivative Info.                !
 --------------------------------------------------------------------------------
 ! R1    R(1,2)                  1.3925         estimate D2E/DX2                !
 ! R2    R(1,9)                  1.4031         estimate D2E/DX2                !
 ! R3    R(1,13)                 1.4052         estimate D2E/DX2                !
 ! R4    R(2,3)                  1.3962         estimate D2E/DX2                !
 ! R5    R(2,14)                 1.0091         estimate D2E/DX2                !
 ! R6    R(3,4)                  1.2102         estimate D2E/DX2                !
 ! R7    R(3,5)                  1.3704         estimate D2E/DX2                !
 ! R8    R(5,6)                  1.458          estimate D2E/DX2                !
 ! R9    R(5,15)                 1.0098         estimate D2E/DX2                !
 ! R10   R(6,7)                  1.5215         estimate D2E/DX2                !
 ! R11   R(6,16)                 1.0963         estimate D2E/DX2                !
 ! R12   R(6,17)                 1.0912         estimate D2E/DX2                !
 ! R13   R(7,8)                  1.5254         estimate D2E/DX2                !
 ! R14   R(7,18)                 1.094          estimate D2E/DX2                !
 ! R15   R(7,19)                 1.0965         estimate D2E/DX2                !
 ! R16   R(8,20)                 1.0925         estimate D2E/DX2                !
 ! R17   R(8,21)                 1.0909         estimate D2E/DX2                !
 ! R18   R(8,22)                 1.0926         estimate D2E/DX2                !
 ! R19   R(9,10)                 1.3855         estimate D2E/DX2                !
 ! R20   R(9,23)                 1.0785         estimate D2E/DX2                !
 ! R21   R(10,11)                1.3911         estimate D2E/DX2                !
 ! R22   R(10,33)                1.084          estimate D2E/DX2                !
 ! R23   R(11,12)                1.3924         estimate D2E/DX2                !
 ! R24   R(11,30)                1.7586         estimate D2E/DX2                !
 ! R25   R(12,13)                1.3805         estimate D2E/DX2                !
 ! R26   R(12,25)                1.0837         estimate D2E/DX2                !
 ! R27   R(13,26)                1.0854         estimate D2E/DX2                !
 ! R28   R(24,27)                1.3271         estimate D2E/DX2                !
 ! R29   R(24,28)                1.3212         estimate D2E/DX2                !
 ! R30   R(24,29)                1.3262         estimate D2E/DX2                !
 ! R31   R(24,30)                1.8669         estimate D2E/DX2                !
 ! R32   R(30,31)                1.4472         estimate D2E/DX2                !
 ! R33   R(30,32)                1.4479         estimate D2E/DX2                !
 ! A1    A(2,1,9)              123.4281         estimate D2E/DX2                !
 ! A2    A(2,1,13)             116.8957         estimate D2E/DX2                !
 ! A3    A(9,1,13)             119.6654         estimate D2E/DX2                !
 ! A4    A(1,2,3)              127.4771         estimate D2E/DX2                !
 ! A5    A(1,2,14)             115.31           estimate D2E/DX2                !
 ! A6    A(3,2,14)             116.5668         estimate D2E/DX2                !
 ! A7    A(2,3,4)              123.7996         estimate D2E/DX2                !
 ! A8    A(2,3,5)              112.9585         estimate D2E/DX2                !
 ! A9    A(4,3,5)              123.223          estimate D2E/DX2                !
 ! A10   A(3,5,6)              119.018          estimate D2E/DX2                !
 ! A11   A(3,5,15)             118.4037         estimate D2E/DX2                !
 ! A12   A(6,5,15)             116.4523         estimate D2E/DX2                !
 ! A13   A(5,6,7)              110.4439         estimate D2E/DX2                !
 ! A14   A(5,6,16)             110.5592         estimate D2E/DX2                !
 ! A15   A(5,6,17)             107.5739         estimate D2E/DX2                !
 ! A16   A(7,6,16)             110.6333         estimate D2E/DX2                !
 ! A17   A(7,6,17)             110.6223         estimate D2E/DX2                !
 ! A18   A(16,6,17)            106.9061         estimate D2E/DX2                !
 ! A19   A(6,7,8)              111.4855         estimate D2E/DX2                !
 ! A20   A(6,7,18)             109.0182         estimate D2E/DX2                !
 ! A21   A(6,7,19)             109.5958         estimate D2E/DX2                !
 ! A22   A(8,7,18)             110.3044         estimate D2E/DX2                !
 ! A23   A(8,7,19)             109.4925         estimate D2E/DX2                !
 ! A24   A(18,7,19)            106.83           estimate D2E/DX2                !
 ! A25   A(7,8,20)             111.0174         estimate D2E/DX2                !
 ! A26   A(7,8,21)             111.2395         estimate D2E/DX2                !
 ! A27   A(7,8,22)             111.194          estimate D2E/DX2                !
 ! A28   A(20,8,21)            107.7569         estimate D2E/DX2                !
 ! A29   A(20,8,22)            107.7063         estimate D2E/DX2                !
 ! A30   A(21,8,22)            107.7603         estimate D2E/DX2                !
 ! A31   A(1,9,10)             119.4369         estimate D2E/DX2                !
 ! A32   A(1,9,23)             120.0808         estimate D2E/DX2                !
 ! A33   A(10,9,23)            120.4821         estimate D2E/DX2                !
 ! A34   A(9,10,11)            119.9736         estimate D2E/DX2                !
 ! A35   A(9,10,33)            120.2494         estimate D2E/DX2                !
 ! A36   A(11,10,33)           119.7741         estimate D2E/DX2                !
 ! A37   A(10,11,12)           121.356          estimate D2E/DX2                !
 ! A38   A(10,11,30)           119.4842         estimate D2E/DX2                !
 ! A39   A(12,11,30)           119.1482         estimate D2E/DX2                !
 ! A40   A(11,12,13)           118.7082         estimate D2E/DX2                !
 ! A41   A(11,12,25)           120.1645         estimate D2E/DX2                !
 ! A42   A(13,12,25)           121.124          estimate D2E/DX2                !
 ! A43   A(1,13,12)            120.8596         estimate D2E/DX2                !
 ! A44   A(1,13,26)            119.6574         estimate D2E/DX2                !
 ! A45   A(12,13,26)           119.4818         estimate D2E/DX2                !
 ! A46   A(27,24,28)           109.3785         estimate D2E/DX2                !
 ! A47   A(27,24,29)           108.9347         estimate D2E/DX2                !
 ! A48   A(27,24,30)           109.9428         estimate D2E/DX2                !
 ! A49   A(28,24,29)           109.4352         estimate D2E/DX2                !
 ! A50   A(28,24,30)           109.1185         estimate D2E/DX2                !
 ! A51   A(29,24,30)           110.0162         estimate D2E/DX2                !
 ! A52   A(11,30,24)           101.929          estimate D2E/DX2                !
 ! A53   A(11,30,31)           109.976          estimate D2E/DX2                !
 ! A54   A(11,30,32)           109.7249         estimate D2E/DX2                !
 ! A55   A(24,30,31)           105.0837         estimate D2E/DX2                !
 ! A56   A(24,30,32)           105.066          estimate D2E/DX2                !
 ! A57   A(31,30,32)           122.7857         estimate D2E/DX2                !
 ! D1    D(9,1,2,3)             -8.6625         estimate D2E/DX2                !
 ! D2    D(9,1,2,14)          -179.0577         estimate D2E/DX2                !
 ! D3    D(13,1,2,3)           172.5356         estimate D2E/DX2                !
 ! D4    D(13,1,2,14)            2.1405         estimate D2E/DX2                !
 ! D5    D(2,1,9,10)          -178.7411         estimate D2E/DX2                !
 ! D6    D(2,1,9,23)             1.3775         estimate D2E/DX2                !
 ! D7    D(13,1,9,10)            0.0292         estimate D2E/DX2                !
 ! D8    D(13,1,9,23)         -179.8522         estimate D2E/DX2                !
 ! D9    D(2,1,13,12)          178.9086         estimate D2E/DX2                !
 ! D10   D(2,1,13,26)           -0.6958         estimate D2E/DX2                !
 ! D11   D(9,1,13,12)            0.0593         estimate D2E/DX2                !
 ! D12   D(9,1,13,26)         -179.545          estimate D2E/DX2                !
 ! D13   D(1,2,3,4)             -3.5891         estimate D2E/DX2                !
 ! D14   D(1,2,3,5)            177.9489         estimate D2E/DX2                !
 ! D15   D(14,2,3,4)           166.7021         estimate D2E/DX2                !
 ! D16   D(14,2,3,5)           -11.76           estimate D2E/DX2                !
 ! D17   D(2,3,5,6)           -175.5259         estimate D2E/DX2                !
 ! D18   D(2,3,5,15)           -23.9925         estimate D2E/DX2                !
 ! D19   D(4,3,5,6)              6.0018         estimate D2E/DX2                !
 ! D20   D(4,3,5,15)           157.5352         estimate D2E/DX2                !
 ! D21   D(3,5,6,7)           -170.8689         estimate D2E/DX2                !
 ! D22   D(3,5,6,16)            66.3477         estimate D2E/DX2                !
 ! D23   D(3,5,6,17)           -50.0488         estimate D2E/DX2                !
 ! D24   D(15,5,6,7)            37.0547         estimate D2E/DX2                !
 ! D25   D(15,5,6,16)          -85.7287         estimate D2E/DX2                !
 ! D26   D(15,5,6,17)          157.8748         estimate D2E/DX2                !
 ! D27   D(5,6,7,8)            179.6803         estimate D2E/DX2                !
 ! D28   D(5,6,7,18)            57.6664         estimate D2E/DX2                !
 ! D29   D(5,6,7,19)           -58.9353         estimate D2E/DX2                !
 ! D30   D(16,6,7,8)           -57.5795         estimate D2E/DX2                !
 ! D31   D(16,6,7,18)         -179.5934         estimate D2E/DX2                !
 ! D32   D(16,6,7,19)           63.8049         estimate D2E/DX2                !
 ! D33   D(17,6,7,8)            60.6959         estimate D2E/DX2                !
 ! D34   D(17,6,7,18)          -61.318          estimate D2E/DX2                !
 ! D35   D(17,6,7,19)         -177.9197         estimate D2E/DX2                !
 ! D36   D(6,7,8,20)           -59.9559         estimate D2E/DX2                !
 ! D37   D(6,7,8,21)          -179.9463         estimate D2E/DX2                !
 ! D38   D(6,7,8,22)            59.9402         estimate D2E/DX2                !
 ! D39   D(18,7,8,20)           61.3122         estimate D2E/DX2                !
 ! D40   D(18,7,8,21)          -58.6782         estimate D2E/DX2                !
 ! D41   D(18,7,8,22)         -178.7916         estimate D2E/DX2                !
 ! D42   D(19,7,8,20)          178.5996         estimate D2E/DX2                !
 ! D43   D(19,7,8,21)           58.6092         estimate D2E/DX2                !
 ! D44   D(19,7,8,22)          -61.5042         estimate D2E/DX2                !
 ! D45   D(1,9,10,11)           -0.151          estimate D2E/DX2                !
 ! D46   D(1,9,10,33)          179.2399         estimate D2E/DX2                !
 ! D47   D(23,9,10,11)         179.7299         estimate D2E/DX2                !
 ! D48   D(23,9,10,33)          -0.8792         estimate D2E/DX2                !
 ! D49   D(9,10,11,12)           0.1895         estimate D2E/DX2                !
 ! D50   D(9,10,11,30)        -178.5586         estimate D2E/DX2                !
 ! D51   D(33,10,11,12)       -179.2043         estimate D2E/DX2                !
 ! D52   D(33,10,11,30)          2.0476         estimate D2E/DX2                !
 ! D53   D(10,11,12,13)         -0.1001         estimate D2E/DX2                !
 ! D54   D(10,11,12,25)        179.2478         estimate D2E/DX2                !
 ! D55   D(30,11,12,13)        178.6522         estimate D2E/DX2                !
 ! D56   D(30,11,12,25)         -1.9999         estimate D2E/DX2                !
 ! D57   D(10,11,30,24)         88.334          estimate D2E/DX2                !
 ! D58   D(10,11,30,31)        -22.7534         estimate D2E/DX2                !
 ! D59   D(10,11,30,32)       -160.6901         estimate D2E/DX2                !
 ! D60   D(12,11,30,24)        -90.442          estimate D2E/DX2                !
 ! D61   D(12,11,30,31)        158.4706         estimate D2E/DX2                !
 ! D62   D(12,11,30,32)         20.5338         estimate D2E/DX2                !
 ! D63   D(11,12,13,1)          -0.0244         estimate D2E/DX2                !
 ! D64   D(11,12,13,26)        179.5806         estimate D2E/DX2                !
 ! D65   D(25,12,13,1)        -179.3657         estimate D2E/DX2                !
 ! D66   D(25,12,13,26)          0.2393         estimate D2E/DX2                !
 ! D67   D(27,24,30,11)         59.7356         estimate D2E/DX2                !
 ! D68   D(27,24,30,31)        174.4795         estimate D2E/DX2                !
 ! D69   D(27,24,30,32)        -54.7271         estimate D2E/DX2                !
 ! D70   D(28,24,30,11)        179.6929         estimate D2E/DX2                !
 ! D71   D(28,24,30,31)        -65.5632         estimate D2E/DX2                !
 ! D72   D(28,24,30,32)         65.2302         estimate D2E/DX2                !
 ! D73   D(29,24,30,11)        -60.2354         estimate D2E/DX2                !
 ! D74   D(29,24,30,31)         54.5085         estimate D2E/DX2                !
 ! D75   D(29,24,30,32)       -174.6982         estimate D2E/DX2                !
 --------------------------------------------------------------------------------
 Trust Radius=3.00D-01 FncErr=1.00D-07 GrdErr=1.00D-06
 Number of steps in this run=    175 maximum allowed number of steps=    198.
 GradGradGradGradGradGradGradGradGradGradGradGradGradGradGradGradGradGrad

                          Input orientation:                          
 ---------------------------------------------------------------------
 Center     Atomic      Atomic             Coordinates (Angstroms)
 Number     Number       Type             X           Y           Z
 ---------------------------------------------------------------------
      1          6           0       -6.104454    1.254590    0.363134
      2          7           0       -4.848974    0.657387    0.283768
      3          6           0       -3.626192    1.281070    0.028464
      4          8           0       -3.511129    2.458849   -0.225020
      5          7           0       -2.566284    0.413067    0.061240
      6          6           0       -1.215380    0.940340   -0.089909
      7          6           0       -0.216215   -0.195880   -0.249760
      8          6           0        1.205789    0.330079   -0.417763
      9          6           0       -6.300884    2.643835    0.364010
     10          6           0       -7.586126    3.149741    0.472769
     11          6           0       -8.668248    2.281706    0.576682
     12          6           0       -8.491639    0.900533    0.578197
     13          6           0       -7.211237    0.395635    0.471705
     14          1           0       -4.850840   -0.351719    0.277844
     15          1           0       -2.659480   -0.438902    0.595205
     16          1           0       -0.949945    1.570507    0.767008
     17          1           0       -1.209605    1.583992   -0.970988
     18          1           0       -0.501322   -0.802317   -1.114522
     19          1           0       -0.262310   -0.852278    0.627406
     20          1           0        1.285648    0.968525   -1.300639
     21          1           0        1.918552   -0.487635   -0.532955
     22          1           0        1.513362    0.920751    0.448365
     23          1           0       -5.456450    3.309211    0.278637
     24          6           0      -10.767038    3.076889   -1.125634
     25          1           0       -9.347340    0.242229    0.672374
     26          1           0       -7.058492   -0.678904    0.478476
     27          9           0      -10.719811    1.881373   -1.699874
     28          9           0      -11.993862    3.558806   -1.216682
     29          9           0       -9.926365    3.888819   -1.752334
     30         16           0      -10.297158    2.937059    0.675729
     31          8           0      -10.253109    4.299954    1.160322
     32          8           0      -11.192934    1.939299    1.221973
     33          1           0       -7.751960    4.220921    0.487202
 ---------------------------------------------------------------------
                    Distance matrix (angstroms):
                    1          2          3          4          5
     1  C    0.000000
     2  N    1.392546   0.000000
     3  C    2.500898   1.396193   0.000000
     4  O    2.919161   2.300861   1.210231   0.000000
     5  N    3.649377   2.306487   1.370368   2.271542   0.000000
     6  C    4.920066   3.663700   2.437647   2.755828   1.458014
     7  C    6.095151   4.740798   3.726490   4.231389   2.447522
     8  C    7.409736   6.104050   4.944850   5.178623   3.803271
     9  C    1.403063   2.461800   3.020546   2.857255   4.360646
    10  C    2.408104   3.706691   4.401184   4.191640   5.732151
    11  C    2.770128   4.160658   5.169541   5.222067   6.402457
    12  C    2.422862   3.662625   4.911170   5.280055   5.967805
    13  C    1.405190   2.384140   3.719275   4.293376   4.663087
    14  H    2.039375   1.009125   2.056199   3.153885   2.418887
    15  H    3.845728   2.468345   2.052810   3.129702   1.009780
    16  H    5.179950   4.033576   2.791329   2.886682   2.109580
    17  H    5.084086   3.959547   2.632595   2.572714   2.068124
    18  H    6.148937   4.794583   3.925778   4.526076   2.669016
    19  H    6.216058   4.840935   4.028102   4.716462   2.688854
    20  H    7.580474   6.343559   5.098075   5.136837   4.123182
    21  H    8.258750   6.912128   5.847024   6.185308   4.612818
    22  H    7.625604   6.369911   5.169251   5.297613   4.129300
    23  H    2.156042   2.720519   2.743317   2.181985   4.097312
    24  C    5.222728   6.547052   7.453093   7.337663   8.703849
    25  H    3.411277   4.534167   5.850243   6.307145   6.810682
    26  H    2.159142   2.589509   3.978026   4.787921   4.641812
    27  F    5.094152   6.316622   7.325773   7.380635   8.469797
    28  F    6.518462   7.856145   8.761071   8.611043  10.020378
    29  F    5.101114   6.353563   7.047253   6.747796   8.339106
    30  S    4.528486   5.918890   6.903843   6.862232   8.155645
    31  O    5.207790   6.575813   7.369586   7.124825   8.683498
    32  O    5.205675   6.539829   7.688518   7.834146   8.837181
    33  H    3.395407   4.600814   5.086761   4.647236   6.447669
                    6          7          8          9         10
     6  C    0.000000
     7  C    1.521473   0.000000
     8  C    2.518326   1.525435   0.000000
     9  C    5.382405   6.742692   7.893971   0.000000
    10  C    6.766422   8.125935   9.275846   1.385503   0.000000
    11  C    7.601898   8.846373  10.114069   2.404326   1.391141
    12  C    7.306976   8.388699   9.765115   2.807914   2.426933
    13  C    6.046687   7.056964   8.464147   2.427909   2.779504
    14  H    3.875723   4.667163   6.134450   3.329173   4.447472
    15  H    2.111188   2.596646   4.069120   4.776667   6.096326
    16  H    1.096299   2.166171   2.754911   5.472384   6.827844
    17  H    1.091156   2.162160   2.777136   5.369041   6.722799
    18  H    2.143960   1.094013   2.163798   6.906297   8.266360
    19  H    2.153221   1.096542   2.155380   6.982589   8.347356
    20  H    2.778813   2.171584   1.092457   7.945640   9.306506
    21  H    3.472309   2.173143   1.090851   8.841367  10.226480
    22  H    2.781394   2.173862   1.092553   8.002410   9.368547
    23  H    4.871760   6.326525   7.331141   1.078464   2.144444
    24  C    9.842344  11.081428  12.304253   4.727907   3.560674
    25  H    8.197390   9.188020  10.609649   3.891489   3.405193
    26  H    6.089907   6.897854   8.373747   3.409936   3.864836
    27  F    9.685647  10.804784  12.094225   4.936384   4.018597
    28  F   11.149065  12.399418  13.612264   5.978775   4.738112
    29  F    9.345504  10.640935  11.763102   4.378699   3.312708
    30  S    9.330155  10.597040  11.845247   4.019124   2.726925
    31  O    9.722686  11.087835  12.229334   4.358546   2.984714
    32  O   10.112890  11.278889  12.609784   5.016435   3.877568
    33  H    7.336358   8.765769   9.808103   2.146625   1.084037
                   11         12         13         14         15
    11  C    0.000000
    12  C    1.392419   0.000000
    13  C    2.385616   1.380467   0.000000
    14  H    4.647239   3.861834   2.483464   0.000000
    15  H    6.596010   5.984017   4.629277   2.215938   0.000000
    16  H    7.753337   7.573748   6.377406   4.376210   2.643813
    17  H    7.649408   7.476303   6.285948   4.308730   2.940611
    18  H    8.892135   8.343271   6.998155   4.589122   2.777207
    19  H    8.971300   8.414073   7.061807   4.628970   2.432763
    20  H   10.214149   9.956404   8.698648   6.472337   4.597729
    21  H   10.999131  10.560954   9.227273   6.819131   4.715241
    22  H   10.272967  10.005864   8.740419   6.492405   4.391221
    23  H    3.385299   3.886366   3.406681   3.710683   4.687388
    24  C    2.816933   3.580084   4.731208   6.980437   9.003031
    25  H    2.151694   1.083724   2.150985   4.552684   6.722899
    26  H    3.371376   2.135059   1.085363   2.240765   4.407100
    27  F    3.090612   3.334127   4.385575   6.583532   8.695977
    28  F    3.988338   4.749060   5.977441   8.279406  10.314809
    29  F    3.096770   4.052118   4.951828   6.918434   8.777683
    30  S    1.758592   2.723390   4.002920   6.374696   8.350912
    31  O    2.631681   3.872687   4.997087   7.183406   8.968797
    32  O    2.628246   2.964874   4.335863   6.808986   8.880795
    33  H    2.146659   3.402996   3.863345   5.419351   6.903548
                   16         17         18         19         20
    16  H    0.000000
    17  H    1.757337   0.000000
    18  H    3.061325   2.493339   0.000000
    19  H    2.522344   3.063926   1.758959   0.000000
    20  H    3.104097   2.591092   2.522654   3.070645   0.000000
    21  H    3.762197   3.777417   2.508592   2.497111   1.763607
    22  H    2.567411   3.141496   3.077422   2.515691   1.764412
    23  H    4.854913   4.751171   6.587780   6.664737   7.309501
    24  C   10.110717   9.674564  10.974210  11.351687  12.236955
    25  H    8.502324   8.409738   9.084939   9.150832  10.838852
    26  H    6.515938   6.436701   6.749026   6.800023   8.689300
    27  F   10.081291   9.542732  10.581227  11.056600  12.046731
    28  F   11.395458  10.966332  12.292612  12.668371  13.530040
    29  F    9.607173   9.050118  10.547275  11.024296  11.594886
    30  S    9.447020   9.334136  10.637027  10.726583  11.913965
    31  O    9.703269   9.680077  11.238569  11.253690  12.259594
    32  O   10.259718  10.227520  11.282120  11.297121  12.767967
    33  H    7.305505   7.202924   8.964943   9.047202   9.769996
                   21         22         23         24         25
    21  H    0.000000
    22  H    1.763723   0.000000
    23  H    8.334589   7.369655   0.000000
    24  C   13.190197  12.567204   5.498027   0.000000
    25  H   11.353671  10.884182   4.969953   3.644677   0.000000
    26  H    9.035867   8.719890   4.302504   5.516563   2.474856
    27  F   12.911318  12.457458   5.801397   1.327118   3.193435
    28  F   14.505048  13.862785   6.710889   1.321223   4.644598
    29  F   12.686303  12.021641   4.943777   1.326165   4.417249
    30  S   12.744137  11.983554   4.871205   1.866882   2.857319
    31  O   13.188537  12.262778   4.976633   2.643030   4.186124
    32  O   13.449195  12.770507   5.972754   2.643247   2.566773
    33  H   10.804167   9.835590   2.478726   3.605654   4.290631
                   26         27         28         29         30
    26  H    0.000000
    27  F    4.970462   0.000000
    28  F    6.722323   2.161125   0.000000
    29  F    5.836549   2.159201   2.161105   0.000000
    30  S    4.858298   2.633743   2.616599   2.634165   0.000000
    31  O    5.954790   3.774662   3.038037   2.959621   1.447153
    32  O    4.949888   2.960472   3.035017   3.775092   1.447868
    33  H    4.948663   4.366340   4.619020   3.139083   2.856900
                   31         32         33
    31  O    0.000000
    32  O    2.541606   0.000000
    33  H    2.591347   4.193565   0.000000
 Stoichiometry    C11H13F3N2O3S
 Framework group  C1[X(C11H13F3N2O3S)]
 Deg. of freedom    93
 Full point group                 C1      NOp   1
 Largest Abelian subgroup         C1      NOp   1
 Largest concise Abelian subgroup C1      NOp   1
                         Standard orientation:                         
 ---------------------------------------------------------------------
 Center     Atomic      Atomic             Coordinates (Angstroms)
 Number     Number       Type             X           Y           Z
 ---------------------------------------------------------------------
      1          6           0        0.919378    0.623723   -0.075535
      2          7           0        2.282153    0.808804    0.143034
      3          6           0        3.312255   -0.103084   -0.095098
      4          8           0        3.132667   -1.235924   -0.481205
      5          7           0        4.552880    0.406523    0.186077
      6          6           0        5.731804   -0.399281   -0.108239
      7          6           0        6.977488    0.246923    0.479613
      8          6           0        8.225503   -0.581743    0.191993
      9          6           0        0.388366   -0.486841   -0.748781
     10          6           0       -0.980601   -0.574616   -0.943309
     11          6           0       -1.815860    0.431989   -0.469642
     12          6           0       -1.306019    1.541342    0.199858
     13          6           0        0.058030    1.630487    0.392509
     14          1           0        2.527685    1.643830    0.653698
     15          1           0        4.676427    1.408513    0.165936
     16          1           0        5.842691   -0.538549   -1.189988
     17          1           0        5.571315   -1.388149    0.324201
     18          1           0        6.841640    0.366684    1.558532
     19          1           0        7.101977    1.253025    0.061683
     20          1           0        8.138094   -1.583137    0.619814
     21          1           0        9.115873   -0.115403    0.615934
     22          1           0        8.387009   -0.692542   -0.882861
     23          1           0        1.043061   -1.264592   -1.108727
     24          6           0       -4.061462   -0.652882    0.840105
     25          1           0       -1.973287    2.320174    0.550045
     26          1           0        0.469610    2.493132    0.906763
     27          9           0       -3.727981    0.033931    1.925609
     28          9           0       -5.369795   -0.836101    0.821999
     29          9           0       -3.451435   -1.829998    0.871361
     30         16           0       -3.554721    0.289021   -0.690019
     31          8           0       -3.841595   -0.602477   -1.793282
     32          8           0       -4.173365    1.590845   -0.552706
     33          1           0       -1.403847   -1.420750   -1.472512
 ---------------------------------------------------------------------
 Rotational constants (GHZ):      1.0246635      0.0953005      0.0942311
 Standard basis: 6-311+G(d) (5D, 7F)
 There are   507 symmetry adapted cartesian basis functions of A   symmetry.
 There are   487 symmetry adapted basis functions of A   symmetry.
   487 basis functions,   799 primitive gaussians,   507 cartesian basis functions
    80 alpha electrons       80 beta electrons
       nuclear repulsion energy      1747.1916739247 Hartrees.
 NAtoms=   33 NActive=   33 NUniq=   33 SFac= 1.00D+00 NAtFMM=   60 NAOKFM=F Big=F
 Integral buffers will be    131072 words long.
 Raffenetti 2 integral format.
 Two-electron integral symmetry is turned on.
 Nuclear repulsion after empirical dispersion term =     1747.1901323610 Hartrees.
 One-electron integrals computed using PRISM.
 NBasis=   487 RedAO= T EigKep=  1.03D-06  NBF=   487
 NBsUse=   486 1.00D-06 EigRej=  5.89D-07 NBFU=   486
 ExpMin= 4.05D-02 ExpMax= 9.34D+04 ExpMxC= 3.17D+03 IAcc=3 IRadAn=         5 AccDes= 0.00D+00
 Harris functional with IExCor= 1009 and IRadAn=       5 diagonalized for initial guess.
 HarFok:  IExCor= 1009 AccDes= 0.00D+00 IRadAn=         5 IDoV= 1 UseB2=F ITyADJ=14
 ICtDFT=  3500011 ScaDFX=  1.000000  1.000000  1.000000  1.000000
 FoFCou: FMM=F IPFlag=           0 FMFlag=      100000 FMFlg1=           0
         NFxFlg=           0 DoJE=T BraDBF=F KetDBF=T FulRan=T
         wScrn=  0.000000 ICntrl=     500 IOpCl=  0 I1Cent=   200000004 NGrid=           0
         NMat0=    1 NMatS0=      1 NMatT0=    0 NMatD0=    1 NMtDS0=    0 NMtDT0=    0
 Petite list used in FoFCou.
 Requested convergence on RMS density matrix=1.00D-08 within 128 cycles.
 Requested convergence on MAX density matrix=1.00D-06.
 Requested convergence on             energy=1.00D-06.
 No special actions if energy rises.
 SCF Done:  E(RM062X) =  -1459.73505193     A.U. after   16 cycles
            NFock= 16  Conv=0.37D-08     -V/T= 2.0026

 **********************************************************************

            Population analysis using the SCF density.

 **********************************************************************

 Orbital symmetries:
       Occupied  (A) (A) (A) (A) (A) (A) (A) (A) (A) (A) (A) (A)
                 (A) (A) (A) (A) (A) (A) (A) (A) (A) (A) (A) (A)
                 (A) (A) (A) (A) (A) (A) (A) (A) (A) (A) (A) (A)
                 (A) (A) (A) (A) (A) (A) (A) (A) (A) (A) (A) (A)
                 (A) (A) (A) (A) (A) (A) (A) (A) (A) (A) (A) (A)
                 (A) (A) (A) (A) (A) (A) (A) (A) (A) (A) (A) (A)
                 (A) (A) (A) (A) (A) (A) (A) (A)
       Virtual   (A) (A) (A) (A) (A) (A) (A) (A) (A) (A) (A) (A)
                 (A) (A) (A) (A) (A) (A) (A) (A) (A) (A) (A) (A)
                 (A) (A) (A) (A) (A) (A) (A) (A) (A) (A) (A) (A)
                 (A) (A) (A) (A) (A) (A) (A) (A) (A) (A) (A) (A)
                 (A) (A) (A) (A) (A) (A) (A) (A) (A) (A) (A) (A)
                 (A) (A) (A) (A) (A) (A) (A) (A) (A) (A) (A) (A)
                 (A) (A) (A) (A) (A) (A) (A) (A) (A) (A) (A) (A)
                 (A) (A) (A) (A) (A) (A) (A) (A) (A) (A) (A) (A)
                 (A) (A) (A) (A) (A) (A) (A) (A) (A) (A) (A) (A)
                 (A) (A) (A) (A) (A) (A) (A) (A) (A) (A) (A) (A)
                 (A) (A) (A) (A) (A) (A) (A) (A) (A) (A) (A) (A)
                 (A) (A) (A) (A) (A) (A) (A) (A) (A) (A) (A) (A)
                 (A) (A) (A) (A) (A) (A) (A) (A) (A) (A) (A) (A)
                 (A) (A) (A) (A) (A) (A) (A) (A) (A) (A) (A) (A)
                 (A) (A) (A) (A) (A) (A) (A) (A) (A) (A) (A) (A)
                 (A) (A) (A) (A) (A) (A) (A) (A) (A) (A) (A) (A)
                 (A) (A) (A) (A) (A) (A) (A) (A) (A) (A) (A) (A)
                 (A) (A) (A) (A) (A) (A) (A) (A) (A) (A) (A) (A)
                 (A) (A) (A) (A) (A) (A) (A) (A) (A) (A) (A) (A)
                 (A) (A) (A) (A) (A) (A) (A) (A) (A) (A) (A) (A)
                 (A) (A) (A) (A) (A) (A) (A) (A) (A) (A) (A) (A)
                 (A) (A) (A) (A) (A) (A) (A) (A) (A) (A) (A) (A)
                 (A) (A) (A) (A) (A) (A) (A) (A) (A) (A) (A) (A)
                 (A) (A) (A) (A) (A) (A) (A) (A) (A) (A) (A) (A)
                 (A) (A) (A) (A) (A) (A) (A) (A) (A) (A) (A) (A)
                 (A) (A) (A) (A) (A) (A) (A) (A) (A) (A) (A) (A)
                 (A) (A) (A) (A) (A) (A) (A) (A) (A) (A) (A) (A)
                 (A) (A) (A) (A) (A) (A) (A) (A) (A) (A) (A) (A)
                 (A) (A) (A) (A) (A) (A) (A) (A) (A) (A) (A) (A)
                 (A) (A) (A) (A) (A) (A) (A) (A) (A) (A) (A) (A)
                 (A) (A) (A) (A) (A) (A) (A) (A) (A) (A) (A) (A)
                 (A) (A) (A) (A) (A) (A) (A) (A) (A) (A) (A) (A)
                 (A) (A) (A) (A) (A) (A) (A) (A) (A) (A) (A) (A)
                 (A) (A) (A) (A) (A) (A) (A) (A) (A) (A)
 The electronic state is 1-A.
 Alpha  occ. eigenvalues --  -90.12228 -25.30650 -25.30618 -25.30533 -19.64050
 Alpha  occ. eigenvalues --  -19.64029 -19.61334 -14.81547 -14.79257 -10.82955
 Alpha  occ. eigenvalues --  -10.70059 -10.63353 -10.59539 -10.58901 -10.58796
 Alpha  occ. eigenvalues --  -10.58455 -10.57908 -10.56763 -10.55866 -10.54350
 Alpha  occ. eigenvalues --   -8.46621  -6.38814  -6.38770  -6.38712  -1.50299
 Alpha  occ. eigenvalues --   -1.40855  -1.40808  -1.26185  -1.20810  -1.15517
 Alpha  occ. eigenvalues --   -1.09124  -1.05605  -0.99681  -0.91311  -0.89565
 Alpha  occ. eigenvalues --   -0.88481  -0.86210  -0.81077  -0.78321  -0.74988
 Alpha  occ. eigenvalues --   -0.74045  -0.72428  -0.72333  -0.70982  -0.69873
 Alpha  occ. eigenvalues --   -0.67701  -0.66148  -0.64335  -0.61398  -0.60139
 Alpha  occ. eigenvalues --   -0.59682  -0.58307  -0.56997  -0.56287  -0.56201
 Alpha  occ. eigenvalues --   -0.56038  -0.55971  -0.54878  -0.54428  -0.54078
 Alpha  occ. eigenvalues --   -0.53953  -0.53279  -0.51947  -0.50082  -0.49695
 Alpha  occ. eigenvalues --   -0.48715  -0.47190  -0.44717  -0.44487  -0.42901
 Alpha  occ. eigenvalues --   -0.42644  -0.42600  -0.42060  -0.41000  -0.40458
 Alpha  occ. eigenvalues --   -0.38124  -0.37120  -0.34855  -0.34300  -0.30547
 Alpha virt. eigenvalues --   -0.03289  -0.01992  -0.01065   0.00604   0.01371
 Alpha virt. eigenvalues --    0.01851   0.02434   0.02718   0.03513   0.03899
 Alpha virt. eigenvalues --    0.04113   0.04400   0.05224   0.05612   0.05852
 Alpha virt. eigenvalues --    0.06071   0.06663   0.07122   0.07285   0.07545
 Alpha virt. eigenvalues --    0.08018   0.08374   0.08659   0.09292   0.09431
 Alpha virt. eigenvalues --    0.10228   0.10560   0.10821   0.10920   0.11422
 Alpha virt. eigenvalues --    0.11759   0.12128   0.13001   0.13290   0.13550
 Alpha virt. eigenvalues --    0.13963   0.14354   0.14684   0.14998   0.15648
 Alpha virt. eigenvalues --    0.15917   0.17107   0.17235   0.17991   0.18147
 Alpha virt. eigenvalues --    0.18416   0.18862   0.19360   0.19560   0.19737
 Alpha virt. eigenvalues --    0.20222   0.20813   0.21012   0.21243   0.21456
 Alpha virt. eigenvalues --    0.22054   0.22170   0.22409   0.23070   0.23328
 Alpha virt. eigenvalues --    0.23537   0.23898   0.24066   0.24384   0.25026
 Alpha virt. eigenvalues --    0.25596   0.25650   0.25898   0.26186   0.26422
 Alpha virt. eigenvalues --    0.26733   0.26795   0.27353   0.27887   0.28586
 Alpha virt. eigenvalues --    0.28688   0.29076   0.29735   0.30190   0.30609
 Alpha virt. eigenvalues --    0.30862   0.31446   0.31817   0.32281   0.32429
 Alpha virt. eigenvalues --    0.33085   0.33542   0.33669   0.34215   0.35089
 Alpha virt. eigenvalues --    0.35250   0.35581   0.36263   0.36821   0.37271
 Alpha virt. eigenvalues --    0.37833   0.38382   0.38763   0.39393   0.39705
 Alpha virt. eigenvalues --    0.40349   0.40650   0.41295   0.42463   0.42978
 Alpha virt. eigenvalues --    0.43467   0.43650   0.43945   0.45235   0.45785
 Alpha virt. eigenvalues --    0.46226   0.46833   0.47959   0.48200   0.48879
 Alpha virt. eigenvalues --    0.49187   0.49743   0.51556   0.51908   0.53697
 Alpha virt. eigenvalues --    0.54359   0.55729   0.56032   0.57454   0.57926
 Alpha virt. eigenvalues --    0.58518   0.58801   0.59937   0.60160   0.60955
 Alpha virt. eigenvalues --    0.62308   0.62771   0.63918   0.65194   0.65470
 Alpha virt. eigenvalues --    0.66547   0.66932   0.68615   0.69588   0.70114
 Alpha virt. eigenvalues --    0.70378   0.70943   0.71273   0.71642   0.71971
 Alpha virt. eigenvalues --    0.72563   0.72778   0.74364   0.74662   0.75408
 Alpha virt. eigenvalues --    0.75649   0.76285   0.76778   0.77516   0.78697
 Alpha virt. eigenvalues --    0.79708   0.80316   0.81803   0.82379   0.83696
 Alpha virt. eigenvalues --    0.84457   0.85536   0.87049   0.87464   0.90106
 Alpha virt. eigenvalues --    0.90815   0.91036   0.91617   0.92963   0.93170
 Alpha virt. eigenvalues --    0.93922   0.94500   0.96958   0.99562   1.00482
 Alpha virt. eigenvalues --    1.00948   1.02892   1.03679   1.04250   1.05058
 Alpha virt. eigenvalues --    1.06046   1.06276   1.09603   1.10440   1.12694
 Alpha virt. eigenvalues --    1.13335   1.15693   1.16609   1.17616   1.19967
 Alpha virt. eigenvalues --    1.20567   1.21688   1.22670   1.22980   1.23537
 Alpha virt. eigenvalues --    1.24438   1.25665   1.25952   1.26504   1.26789
 Alpha virt. eigenvalues --    1.27469   1.28229   1.30441   1.32965   1.33325
 Alpha virt. eigenvalues --    1.34780   1.35940   1.38147   1.41829   1.43187
 Alpha virt. eigenvalues --    1.44609   1.45241   1.46866   1.47201   1.48177
 Alpha virt. eigenvalues --    1.48542   1.51571   1.52171   1.52400   1.52694
 Alpha virt. eigenvalues --    1.53149   1.54587   1.54762   1.56626   1.57771
 Alpha virt. eigenvalues --    1.57986   1.59620   1.60217   1.62160   1.64919
 Alpha virt. eigenvalues --    1.66471   1.68917   1.70612   1.71808   1.73948
 Alpha virt. eigenvalues --    1.74818   1.75253   1.77031   1.77168   1.78488
 Alpha virt. eigenvalues --    1.80423   1.80923   1.82371   1.83080   1.85066
 Alpha virt. eigenvalues --    1.85567   1.86375   1.88036   1.89537   1.91144
 Alpha virt. eigenvalues --    1.93148   1.94282   1.95123   1.96604   1.97701
 Alpha virt. eigenvalues --    2.00567   2.01911   2.02336   2.04854   2.06233
 Alpha virt. eigenvalues --    2.08797   2.09779   2.10655   2.13355   2.13609
 Alpha virt. eigenvalues --    2.18812   2.21048   2.23738   2.25754   2.30494
 Alpha virt. eigenvalues --    2.32166   2.35032   2.36015   2.36933   2.37962
 Alpha virt. eigenvalues --    2.43258   2.45181   2.48284   2.52146   2.53014
 Alpha virt. eigenvalues --    2.54176   2.55826   2.58286   2.61254   2.62081
 Alpha virt. eigenvalues --    2.63248   2.66216   2.70739   2.72584   2.74837
 Alpha virt. eigenvalues --    2.79676   2.80481   2.82507   2.82813   2.85237
 Alpha virt. eigenvalues --    2.87583   2.88217   2.89788   2.92042   2.92349
 Alpha virt. eigenvalues --    2.93169   2.93917   2.95021   2.96770   2.98011
 Alpha virt. eigenvalues --    2.99309   3.01053   3.03018   3.03278   3.04601
 Alpha virt. eigenvalues --    3.10114   3.10236   3.10825   3.12070   3.15845
 Alpha virt. eigenvalues --    3.18796   3.19592   3.23724   3.24758   3.27229
 Alpha virt. eigenvalues --    3.27995   3.29914   3.34050   3.36701   3.39119
 Alpha virt. eigenvalues --    3.40111   3.41920   3.43202   3.46182   3.54130
 Alpha virt. eigenvalues --    3.57293   3.63783   3.65003   3.67850   3.69418
 Alpha virt. eigenvalues --    3.72239   3.77153   3.77893   3.80451   3.81758
 Alpha virt. eigenvalues --    3.82365   3.83619   3.84797   3.85023   3.89189
 Alpha virt. eigenvalues --    3.96245   3.96279   3.96938   3.99327   4.00324
 Alpha virt. eigenvalues --    4.04475   4.05078   4.07961   4.19669   4.28390
 Alpha virt. eigenvalues --    4.28488   4.44408   4.52076   4.56685   4.79042
 Alpha virt. eigenvalues --    4.86548   4.98879   4.99048   5.16850   5.17415
 Alpha virt. eigenvalues --    5.17800   5.18247   5.22063   5.22664   5.29083
 Alpha virt. eigenvalues --    5.40508   5.43122   5.88917   6.41904   6.44785
 Alpha virt. eigenvalues --    6.48367   6.49545   6.50376   6.52449   6.54545
 Alpha virt. eigenvalues --    6.88703   6.89667   8.33129  17.58130  17.61784
 Alpha virt. eigenvalues --   17.79482  23.46220  23.55421  23.56721  23.71849
 Alpha virt. eigenvalues --   23.79137  23.89227  23.92255  23.97262  24.07009
 Alpha virt. eigenvalues --   24.12425  24.20136  35.56963  35.66653  49.98170
 Alpha virt. eigenvalues --   50.02581  50.12636  66.86977  66.87258  66.92087
 Alpha virt. eigenvalues --  189.59193
          Condensed to atoms (all electrons):
               1          2          3          4          5          6
     1  C   24.449943   0.044664   0.013798  -0.357169  -0.280207  -0.704074
     2  N    0.044664   7.924350   0.325560  -0.070940  -0.694771  -0.444392
     3  C    0.013798   0.325560   8.988173   0.611525   0.014649  -1.162594
     4  O   -0.357169  -0.070940   0.611525   8.056145  -0.164362  -0.083903
     5  N   -0.280207  -0.694771   0.014649  -0.164362   7.855458   0.665833
     6  C   -0.704074  -0.444392  -1.162594  -0.083903   0.665833   8.528868
     7  C   -0.002789   0.027139   0.227180   0.015012  -0.149930  -0.876273
     8  C   -0.013705  -0.011129  -0.231159  -0.000261   0.002729   0.365977
     9  C    2.071433  -0.110116   0.584704   0.376633   0.004971   0.075859
    10  C   -4.063748   0.047675   0.684563   0.090791   0.085510   0.142165
    11  C  -14.502719  -0.020986  -1.574251  -0.016442   0.033467  -0.069760
    12  C    6.490817   0.001102   0.354526  -0.000779   0.012314   0.029051
    13  C   -6.156137   0.053598  -3.054158  -0.119110  -0.264340  -0.478652
    14  H    0.031643   0.218892  -0.005542  -0.003883   0.070140   0.028624
    15  H   -0.030339   0.091021   0.028428  -0.001916   0.228769  -0.065000
    16  H    0.009398   0.007892   0.071822  -0.004511  -0.105349   0.401803
    17  H    0.002044   0.012812   0.058389  -0.000616  -0.043040   0.332462
    18  H    0.005328  -0.000820   0.032546  -0.000149   0.001540  -0.090409
    19  H   -0.004952  -0.000433  -0.022336  -0.000234   0.003580  -0.049267
    20  H   -0.000429  -0.000064  -0.010061  -0.000077   0.000151  -0.045845
    21  H    0.000045  -0.000008   0.003074   0.000023  -0.001399   0.074928
    22  H    0.000341   0.000009   0.011002  -0.000038   0.000156  -0.044271
    23  H   -0.015529  -0.022458   0.070835  -0.002781   0.002751   0.007642
    24  C    0.557420  -0.002504   0.024022   0.000066  -0.000520   0.000208
    25  H   -0.004227  -0.002929   0.000427  -0.000011  -0.000080  -0.000014
    26  H    0.209104  -0.023621   0.009153  -0.000013  -0.000284   0.000146
    27  F   -0.047947   0.000064  -0.000730   0.000001   0.000003  -0.000004
    28  F   -0.001846   0.000017   0.000053  -0.000000   0.000000   0.000000
    29  F   -0.037124   0.000029  -0.001193   0.000001   0.000003  -0.000008
    30  S   -1.280464  -0.005149  -0.167499   0.001100   0.004797  -0.003303
    31  O   -0.032262  -0.000453  -0.005336  -0.000085   0.000006  -0.000006
    32  O   -0.131863   0.000275  -0.000787   0.000023   0.000008  -0.000025
    33  H    0.000994  -0.001229   0.002013   0.000026   0.000024  -0.000080
               7          8          9         10         11         12
     1  C   -0.002789  -0.013705   2.071433  -4.063748 -14.502719   6.490817
     2  N    0.027139  -0.011129  -0.110116   0.047675  -0.020986   0.001102
     3  C    0.227180  -0.231159   0.584704   0.684563  -1.574251   0.354526
     4  O    0.015012  -0.000261   0.376633   0.090791  -0.016442  -0.000779
     5  N   -0.149930   0.002729   0.004971   0.085510   0.033467   0.012314
     6  C   -0.876273   0.365977   0.075859   0.142165  -0.069760   0.029051
     7  C    6.314616  -0.178115   0.008586   0.003250  -0.000668  -0.000899
     8  C   -0.178115   6.046478  -0.003533   0.000209  -0.000413  -0.000114
     9  C    0.008586  -0.003533  39.720625   1.842067 -14.537305 -21.858553
    10  C    0.003250   0.000209   1.842067  32.448086  -0.611495 -12.542388
    11  C   -0.000668  -0.000413 -14.537305  -0.611495  57.278357 -18.610506
    12  C   -0.000899  -0.000114 -21.858553 -12.542388 -18.610506  56.614573
    13  C    0.006088  -0.004109  -1.214623 -10.036928   2.222650  -7.925565
    14  H   -0.004092   0.000134   0.101591   0.042537  -0.004311   0.029022
    15  H    0.006273   0.007748   0.015552   0.002420  -0.002197   0.001133
    16  H   -0.075131  -0.003650  -0.002586  -0.000941  -0.000013  -0.000081
    17  H    0.002995  -0.025107  -0.001368  -0.000818  -0.000142   0.000149
    18  H    0.445135  -0.051400  -0.000522  -0.000042   0.000040  -0.000025
    19  H    0.445347  -0.032870   0.000796   0.000101  -0.000029   0.000030
    20  H    0.008552   0.393123   0.000012   0.000005  -0.000002   0.000001
    21  H   -0.118912   0.393838   0.000022   0.000001   0.000000  -0.000000
    22  H    0.016468   0.362860   0.000027   0.000002   0.000002  -0.000001
    23  H   -0.000375   0.000052   0.216236   0.062053   0.051393   0.069382
    24  C    0.000017   0.000000   0.622697   1.573001  -1.392613   0.277901
    25  H   -0.000000  -0.000000  -0.003529  -0.022729   0.099423   0.312309
    26  H    0.000011   0.000003  -0.000744   0.017315  -0.017101   0.089176
    27  F   -0.000000  -0.000000   0.052836   0.077966   0.220335  -0.323159
    28  F   -0.000000   0.000000  -0.004760  -0.020672   0.097367  -0.017299
    29  F   -0.000000  -0.000000  -0.111943  -0.239032   0.187353   0.096067
    30  S   -0.000146  -0.000011  -1.131132  -3.465848  -4.519792   4.364403
    31  O    0.000000  -0.000000  -1.611596  -2.759379   0.716192   2.806241
    32  O   -0.000000  -0.000000   1.006563   2.438874   1.241196  -3.811311
    33  H    0.000000  -0.000000   0.021527   0.397369  -0.043887  -0.097179
              13         14         15         16         17         18
     1  C   -6.156137   0.031643  -0.030339   0.009398   0.002044   0.005328
     2  N    0.053598   0.218892   0.091021   0.007892   0.012812  -0.000820
     3  C   -3.054158  -0.005542   0.028428   0.071822   0.058389   0.032546
     4  O   -0.119110  -0.003883  -0.001916  -0.004511  -0.000616  -0.000149
     5  N   -0.264340   0.070140   0.228769  -0.105349  -0.043040   0.001540
     6  C   -0.478652   0.028624  -0.065000   0.401803   0.332462  -0.090409
     7  C    0.006088  -0.004092   0.006273  -0.075131   0.002995   0.445135
     8  C   -0.004109   0.000134   0.007748  -0.003650  -0.025107  -0.051400
     9  C   -1.214623   0.101591   0.015552  -0.002586  -0.001368  -0.000522
    10  C  -10.036928   0.042537   0.002420  -0.000941  -0.000818  -0.000042
    11  C    2.222650  -0.004311  -0.002197  -0.000013  -0.000142   0.000040
    12  C   -7.925565   0.029022   0.001133  -0.000081   0.000149  -0.000025
    13  C   33.056928  -0.244277  -0.015861   0.001482   0.002084   0.000488
    14  H   -0.244277   0.387610   0.001675   0.000332  -0.000025  -0.000014
    15  H   -0.015861   0.001675   0.399895   0.001513   0.002879  -0.000803
    16  H    0.001482   0.000332   0.001513   0.471320  -0.037311   0.006322
    17  H    0.002084  -0.000025   0.002879  -0.037311   0.422231  -0.007720
    18  H    0.000488  -0.000014  -0.000803   0.006322  -0.007720   0.448235
    19  H   -0.000674   0.000089   0.004067  -0.009427   0.005152  -0.045252
    20  H   -0.000008   0.000001  -0.000022  -0.000971   0.003625  -0.008696
    21  H   -0.000007  -0.000000  -0.000027  -0.000098  -0.000215  -0.003281
    22  H    0.000007  -0.000000   0.000042   0.003415  -0.000187   0.006035
    23  H   -0.115095   0.000185  -0.000011   0.000018  -0.000033   0.000000
    24  C   -0.108661  -0.000105   0.000003  -0.000000  -0.000000  -0.000000
    25  H   -0.074193  -0.000032   0.000000   0.000000  -0.000000  -0.000000
    26  H    0.021020   0.011294   0.000069  -0.000000  -0.000000  -0.000000
    27  F    0.003276  -0.000000  -0.000000   0.000000  -0.000000   0.000000
    28  F   -0.003156  -0.000000  -0.000000  -0.000000   0.000000   0.000000
    29  F    0.025170   0.000000   0.000000   0.000000  -0.000000   0.000000
    30  S    1.129318   0.001401  -0.000089  -0.000003  -0.000003   0.000000
    31  O    0.294225   0.000005  -0.000000  -0.000000  -0.000000   0.000000
    32  O   -0.443092  -0.000005  -0.000000   0.000000   0.000000   0.000000
    33  H    0.009470   0.000011   0.000000  -0.000000  -0.000000   0.000000
              19         20         21         22         23         24
     1  C   -0.004952  -0.000429   0.000045   0.000341  -0.015529   0.557420
     2  N   -0.000433  -0.000064  -0.000008   0.000009  -0.022458  -0.002504
     3  C   -0.022336  -0.010061   0.003074   0.011002   0.070835   0.024022
     4  O   -0.000234  -0.000077   0.000023  -0.000038  -0.002781   0.000066
     5  N    0.003580   0.000151  -0.001399   0.000156   0.002751  -0.000520
     6  C   -0.049267  -0.045845   0.074928  -0.044271   0.007642   0.000208
     7  C    0.445347   0.008552  -0.118912   0.016468  -0.000375   0.000017
     8  C   -0.032870   0.393123   0.393838   0.362860   0.000052   0.000000
     9  C    0.000796   0.000012   0.000022   0.000027   0.216236   0.622697
    10  C    0.000101   0.000005   0.000001   0.000002   0.062053   1.573001
    11  C   -0.000029  -0.000002   0.000000   0.000002   0.051393  -1.392613
    12  C    0.000030   0.000001  -0.000000  -0.000001   0.069382   0.277901
    13  C   -0.000674  -0.000008  -0.000007   0.000007  -0.115095  -0.108661
    14  H    0.000089   0.000001  -0.000000  -0.000000   0.000185  -0.000105
    15  H    0.004067  -0.000022  -0.000027   0.000042  -0.000011   0.000003
    16  H   -0.009427  -0.000971  -0.000098   0.003415   0.000018  -0.000000
    17  H    0.005152   0.003625  -0.000215  -0.000187  -0.000033  -0.000000
    18  H   -0.045252  -0.008696  -0.003281   0.006035   0.000000  -0.000000
    19  H    0.477910   0.006704  -0.003451  -0.008581  -0.000000  -0.000000
    20  H    0.006704   0.451273  -0.024040  -0.035777  -0.000000   0.000000
    21  H   -0.003451  -0.024040   0.434303  -0.025522   0.000000  -0.000000
    22  H   -0.008581  -0.035777  -0.025522   0.453071   0.000000  -0.000000
    23  H   -0.000000  -0.000000   0.000000   0.000000   0.365981  -0.000800
    24  C   -0.000000   0.000000  -0.000000  -0.000000  -0.000800   7.400493
    25  H   -0.000000  -0.000000  -0.000000   0.000000   0.000057  -0.001852
    26  H   -0.000000  -0.000000   0.000000  -0.000000  -0.000046  -0.000845
    27  F   -0.000000  -0.000000   0.000000   0.000000  -0.000008   0.137823
    28  F    0.000000  -0.000000  -0.000000   0.000000  -0.000001   0.267978
    29  F   -0.000000  -0.000000   0.000000   0.000000   0.000008   0.076569
    30  S   -0.000000  -0.000000   0.000000   0.000000   0.004316  -3.270585
    31  O   -0.000000   0.000000  -0.000000   0.000000   0.000771  -0.224079
    32  O   -0.000000  -0.000000   0.000000  -0.000000  -0.000147   0.038134
    33  H   -0.000000  -0.000000   0.000000   0.000000  -0.002937  -0.002772
              25         26         27         28         29         30
     1  C   -0.004227   0.209104  -0.047947  -0.001846  -0.037124  -1.280464
     2  N   -0.002929  -0.023621   0.000064   0.000017   0.000029  -0.005149
     3  C    0.000427   0.009153  -0.000730   0.000053  -0.001193  -0.167499
     4  O   -0.000011  -0.000013   0.000001  -0.000000   0.000001   0.001100
     5  N   -0.000080  -0.000284   0.000003   0.000000   0.000003   0.004797
     6  C   -0.000014   0.000146  -0.000004   0.000000  -0.000008  -0.003303
     7  C   -0.000000   0.000011  -0.000000  -0.000000  -0.000000  -0.000146
     8  C   -0.000000   0.000003  -0.000000   0.000000  -0.000000  -0.000011
     9  C   -0.003529  -0.000744   0.052836  -0.004760  -0.111943  -1.131132
    10  C   -0.022729   0.017315   0.077966  -0.020672  -0.239032  -3.465848
    11  C    0.099423  -0.017101   0.220335   0.097367   0.187353  -4.519792
    12  C    0.312309   0.089176  -0.323159  -0.017299   0.096067   4.364403
    13  C   -0.074193   0.021020   0.003276  -0.003156   0.025170   1.129318
    14  H   -0.000032   0.011294  -0.000000  -0.000000   0.000000   0.001401
    15  H    0.000000   0.000069  -0.000000  -0.000000   0.000000  -0.000089
    16  H    0.000000  -0.000000   0.000000  -0.000000   0.000000  -0.000003
    17  H   -0.000000  -0.000000  -0.000000   0.000000  -0.000000  -0.000003
    18  H   -0.000000  -0.000000   0.000000   0.000000   0.000000   0.000000
    19  H   -0.000000  -0.000000  -0.000000   0.000000  -0.000000  -0.000000
    20  H   -0.000000  -0.000000  -0.000000  -0.000000  -0.000000  -0.000000
    21  H   -0.000000   0.000000   0.000000  -0.000000   0.000000   0.000000
    22  H    0.000000  -0.000000   0.000000   0.000000   0.000000   0.000000
    23  H    0.000057  -0.000046  -0.000008  -0.000001   0.000008   0.004316
    24  C   -0.001852  -0.000845   0.137823   0.267978   0.076569  -3.270585
    25  H    0.381951  -0.004165  -0.002329  -0.000172   0.000244   0.022032
    26  H   -0.004165   0.440554  -0.000011  -0.000001   0.000001   0.012018
    27  F   -0.002329  -0.000011   8.934607  -0.041199  -0.035713   0.048106
    28  F   -0.000172  -0.000001  -0.041199   8.948675  -0.042412  -0.113122
    29  F    0.000244   0.000001  -0.035713  -0.042412   8.936364   0.169572
    30  S    0.022032   0.012018   0.048106  -0.113122   0.169572  24.036168
    31  O    0.001156   0.000005  -0.009560  -0.007048   0.020105   0.291895
    32  O   -0.004948   0.000309   0.021343  -0.000886  -0.010143  -0.925875
    33  H   -0.000114   0.000061   0.000288  -0.000189  -0.002828   0.040980
              31         32         33
     1  C   -0.032262  -0.131863   0.000994
     2  N   -0.000453   0.000275  -0.001229
     3  C   -0.005336  -0.000787   0.002013
     4  O   -0.000085   0.000023   0.000026
     5  N    0.000006   0.000008   0.000024
     6  C   -0.000006  -0.000025  -0.000080
     7  C    0.000000  -0.000000   0.000000
     8  C   -0.000000  -0.000000  -0.000000
     9  C   -1.611596   1.006563   0.021527
    10  C   -2.759379   2.438874   0.397369
    11  C    0.716192   1.241196  -0.043887
    12  C    2.806241  -3.811311  -0.097179
    13  C    0.294225  -0.443092   0.009470
    14  H    0.000005  -0.000005   0.000011
    15  H   -0.000000  -0.000000   0.000000
    16  H   -0.000000   0.000000  -0.000000
    17  H   -0.000000   0.000000  -0.000000
    18  H    0.000000   0.000000   0.000000
    19  H   -0.000000  -0.000000  -0.000000
    20  H    0.000000  -0.000000  -0.000000
    21  H   -0.000000   0.000000   0.000000
    22  H    0.000000  -0.000000   0.000000
    23  H    0.000771  -0.000147  -0.002937
    24  C   -0.224079   0.038134  -0.002772
    25  H    0.001156  -0.004948  -0.000114
    26  H    0.000005   0.000309   0.000061
    27  F   -0.009560   0.021343   0.000288
    28  F   -0.007048  -0.000886  -0.000189
    29  F    0.020105  -0.010143  -0.002828
    30  S    0.291895  -0.925875   0.040980
    31  O    9.372024  -0.800344  -0.007281
    32  O   -0.800344   9.440894   0.001934
    33  H   -0.007281   0.001934   0.379062
 Mulliken charges:
               1
     1  C   -0.219443
     2  N   -0.343098
     3  C    0.119203
     4  O   -0.324068
     5  N   -0.282575
     6  C   -0.535686
     7  C   -0.119339
     8  C   -1.017576
     9  C   -0.130425
    10  C   -0.191938
    11  C   -0.223144
    12  C   -0.360338
    13  C   -0.567157
    14  H    0.337101
    15  H    0.324776
    16  H    0.264755
    17  H    0.271763
    18  H    0.263464
    19  H    0.233732
    20  H    0.262546
    21  H    0.270725
    22  H    0.260942
    23  H    0.308539
    24  C    0.029003
    25  H    0.303724
    26  H    0.236595
    27  F   -0.035986
    28  F   -0.061328
    29  F   -0.031091
    30  S    0.756912
    31  O   -0.045195
    32  O   -0.060129
    33  H    0.304737
 Sum of Mulliken charges =  -0.00000
 Mulliken charges with hydrogens summed into heavy atoms:
               1
     1  C   -0.219443
     2  N   -0.005997
     3  C    0.119203
     4  O   -0.324068
     5  N    0.042201
     6  C    0.000833
     7  C    0.377857
     8  C   -0.223364
     9  C    0.178114
    10  C    0.112799
    11  C   -0.223144
    12  C   -0.056615
    13  C   -0.330562
    24  C    0.029003
    27  F   -0.035986
    28  F   -0.061328
    29  F   -0.031091
    30  S    0.756912
    31  O   -0.045195
    32  O   -0.060129
 Electronic spatial extent (au):  <R**2>=          10958.3224
 Charge=             -0.0000 electrons
 Dipole moment (field-independent basis, Debye):
    X=              8.7759    Y=              3.1977    Z=              2.5058  Tot=              9.6706
 Quadrupole moment (field-independent basis, Debye-Ang):
   XX=           -120.3559   YY=           -121.7159   ZZ=           -128.6598
   XY=             14.5769   XZ=             -4.9432   YZ=              2.8177
 Traceless Quadrupole moment (field-independent basis, Debye-Ang):
   XX=              3.2213   YY=              1.8613   ZZ=             -5.0826
   XY=             14.5769   XZ=             -4.9432   YZ=              2.8177
 Octapole moment (field-independent basis, Debye-Ang**2):
  XXX=            216.4917  YYY=             -3.5563  ZZZ=             23.5404  XYY=             -4.5836
  XXY=             10.2645  XXZ=             48.8004  XZZ=            -11.2787  YZZ=             -5.1329
  YYZ=             16.9137  XYZ=             -0.3041
 Hexadecapole moment (field-independent basis, Debye-Ang**3):
 XXXX=         -11849.4594 YYYY=           -740.7741 ZZZZ=           -601.7574 XXXY=            262.7374
 XXXZ=           -169.5848 YYYX=            115.4408 YYYZ=             15.8043 ZZZX=           -109.3218
 ZZZY=            -17.5696 XXYY=          -2265.3864 XXZZ=          -2267.9153 YYZZ=           -219.9691
 XXYZ=            -22.0912 YYXZ=            -20.4819 ZZXY=              9.5371
 N-N= 1.747190132361D+03 E-N=-6.931946552504D+03  KE= 1.455980697545D+03
 Calling FoFJK, ICntrl=      2127 FMM=F ISym2X=0 I1Cent= 0 IOpClX= 0 NMat=1 NMatS=1 NMatT=0.
 ***** Axes restored to original set *****
 -------------------------------------------------------------------
 Center     Atomic                   Forces (Hartrees/Bohr)
 Number     Number              X              Y              Z
 -------------------------------------------------------------------
      1        6          -0.000002510   -0.000001685   -0.000002977
      2        7           0.000002544    0.000000941   -0.000002176
      3        6          -0.000004468    0.000004564    0.000000812
      4        8           0.000000232   -0.000002424    0.000002748
      5        7           0.000004311   -0.000003372   -0.000004473
      6        6          -0.000005136    0.000000369    0.000002053
      7        6           0.000001804   -0.000000268   -0.000000682
      8        6          -0.000001861   -0.000000192    0.000000196
      9        6           0.000001396   -0.000000083    0.000001192
     10        6           0.000000414    0.000001596    0.000001293
     11        6           0.000000355   -0.000001211   -0.000000175
     12        6          -0.000002183    0.000000545   -0.000000801
     13        6           0.000002066   -0.000000780   -0.000001089
     14        1           0.000000010   -0.000000531    0.000000511
     15        1           0.000001051    0.000000354   -0.000001054
     16        1           0.000001469   -0.000000092    0.000001430
     17        1           0.000000027    0.000000403    0.000001102
     18        1          -0.000000338    0.000000609   -0.000001351
     19        1          -0.000000489   -0.000000861   -0.000001266
     20        1           0.000000645    0.000001344    0.000000829
     21        1          -0.000000234    0.000000185   -0.000000314
     22        1           0.000000219   -0.000000071    0.000000923
     23        1           0.000000439   -0.000000283    0.000002158
     24        6           0.000000735    0.000002457    0.000004194
     25        1          -0.000000258   -0.000000831   -0.000001953
     26        1          -0.000000532   -0.000000245   -0.000002011
     27        9          -0.000000486    0.000000066   -0.000002130
     28        9           0.000000952    0.000001001   -0.000000489
     29        9           0.000001171    0.000002417    0.000001837
     30       16          -0.000006070   -0.000005012   -0.000002539
     31        8           0.000001378    0.000001121    0.000003096
     32        8           0.000002780    0.000001173   -0.000000935
     33        1           0.000000570   -0.000001203    0.000002039
 -------------------------------------------------------------------
 Cartesian Forces:  Max     0.000006070 RMS     0.000001918

 GradGradGradGradGradGradGradGradGradGradGradGradGradGradGradGradGradGrad
 Berny optimization.
 FormGI is forming the generalized inverse of G from B-inverse, IUseBI=4.
 Internal  Forces:  Max     0.000004826 RMS     0.000001137
 Search for a local minimum.
 Step number   1 out of a maximum of  175
 All quantities printed in internal units (Hartrees-Bohrs-Radians)
 Mixed Optimization -- En-DIIS/RFO-DIIS
 Second derivative matrix not updated -- first step.
 ITU=  0
     Eigenvalues ---    0.00230   0.00429   0.00482   0.00918   0.00924
     Eigenvalues ---    0.01698   0.01742   0.01790   0.01815   0.01827
     Eigenvalues ---    0.01914   0.01973   0.02073   0.02084   0.02154
     Eigenvalues ---    0.02182   0.02217   0.02232   0.02249   0.02279
     Eigenvalues ---    0.03716   0.04429   0.04928   0.05499   0.05526
     Eigenvalues ---    0.05551   0.08186   0.08722   0.08839   0.09196
     Eigenvalues ---    0.09235   0.09285   0.10993   0.12081   0.12672
     Eigenvalues ---    0.14775   0.15903   0.15999   0.15999   0.16000
     Eigenvalues ---    0.16000   0.16000   0.16000   0.16000   0.17495
     Eigenvalues ---    0.21484   0.21889   0.21897   0.22000   0.22037
     Eigenvalues ---    0.22285   0.22978   0.23997   0.24993   0.24994
     Eigenvalues ---    0.24994   0.25000   0.25000   0.25000   0.25000
     Eigenvalues ---    0.25000   0.29670   0.29849   0.30225   0.34067
     Eigenvalues ---    0.34095   0.34353   0.34519   0.34530   0.34679
     Eigenvalues ---    0.34714   0.35354   0.35511   0.35548   0.36181
     Eigenvalues ---    0.37214   0.41806   0.42705   0.45830   0.46009
     Eigenvalues ---    0.46119   0.46177   0.46257   0.46879   0.47400
     Eigenvalues ---    0.48657   0.50906   0.60192   0.60421   0.61628
     Eigenvalues ---    0.96898   0.97222   0.99846
 RFO step:  Lambda= 0.00000000D+00 EMin= 2.30000000D-03
 Linear search not attempted -- first point.
 Iteration  1 RMS(Cart)=  0.00009754 RMS(Int)=  0.00000000
 Iteration  2 RMS(Cart)=  0.00000000 RMS(Int)=  0.00000000
 Variable       Old X    -DE/DX   Delta X   Delta X   Delta X     New X
                                 (Linear)    (Quad)   (Total)
    R1        2.63153  -0.00000   0.00000  -0.00000  -0.00000   2.63153
    R2        2.65140  -0.00000   0.00000  -0.00000  -0.00000   2.65140
    R3        2.65542  -0.00000   0.00000  -0.00000  -0.00000   2.65542
    R4        2.63842  -0.00000   0.00000  -0.00001  -0.00001   2.63842
    R5        1.90697   0.00000   0.00000   0.00000   0.00000   1.90697
    R6        2.28700  -0.00000   0.00000  -0.00000  -0.00000   2.28700
    R7        2.58962   0.00000   0.00000   0.00000   0.00000   2.58962
    R8        2.75525  -0.00000   0.00000  -0.00001  -0.00001   2.75524
    R9        1.90821  -0.00000   0.00000  -0.00000  -0.00000   1.90821
   R10        2.87517   0.00000   0.00000   0.00000   0.00000   2.87517
   R11        2.07170   0.00000   0.00000   0.00000   0.00000   2.07171
   R12        2.06199  -0.00000   0.00000  -0.00000  -0.00000   2.06198
   R13        2.88266  -0.00000   0.00000  -0.00000  -0.00000   2.88265
   R14        2.06739   0.00000   0.00000   0.00000   0.00000   2.06739
   R15        2.07216   0.00000   0.00000   0.00000   0.00000   2.07216
   R16        2.06444   0.00000   0.00000   0.00000   0.00000   2.06444
   R17        2.06141  -0.00000   0.00000  -0.00000  -0.00000   2.06141
   R18        2.06463   0.00000   0.00000   0.00000   0.00000   2.06463
   R19        2.61822  -0.00000   0.00000  -0.00000  -0.00000   2.61822
   R20        2.03800   0.00000   0.00000   0.00000   0.00000   2.03800
   R21        2.62887   0.00000   0.00000   0.00000   0.00000   2.62888
   R22        2.04853  -0.00000   0.00000  -0.00000  -0.00000   2.04853
   R23        2.63129  -0.00000   0.00000   0.00000   0.00000   2.63129
   R24        3.32326   0.00000   0.00000   0.00000   0.00000   3.32326
   R25        2.60871   0.00000   0.00000   0.00000   0.00000   2.60871
   R26        2.04794   0.00000   0.00000   0.00000   0.00000   2.04794
   R27        2.05104  -0.00000   0.00000  -0.00000  -0.00000   2.05104
   R28        2.50789   0.00000   0.00000   0.00000   0.00000   2.50789
   R29        2.49675  -0.00000   0.00000  -0.00000  -0.00000   2.49675
   R30        2.50609   0.00000   0.00000   0.00000   0.00000   2.50609
   R31        3.52790  -0.00000   0.00000  -0.00001  -0.00001   3.52789
   R32        2.73472   0.00000   0.00000   0.00000   0.00000   2.73473
   R33        2.73607  -0.00000   0.00000  -0.00000  -0.00000   2.73607
    A1        2.15423  -0.00000   0.00000  -0.00002  -0.00002   2.15421
    A2        2.04022   0.00000   0.00000   0.00001   0.00001   2.04023
    A3        2.08856   0.00000   0.00000   0.00000   0.00000   2.08856
    A4        2.22490  -0.00000   0.00000  -0.00002  -0.00002   2.22488
    A5        2.01254   0.00000   0.00000   0.00001   0.00001   2.01255
    A6        2.03447   0.00000   0.00000   0.00001   0.00001   2.03449
    A7        2.16071  -0.00000   0.00000  -0.00000  -0.00000   2.16071
    A8        1.97150   0.00000   0.00000   0.00001   0.00001   1.97151
    A9        2.15065  -0.00000   0.00000  -0.00001  -0.00001   2.15064
   A10        2.07726  -0.00000   0.00000  -0.00001  -0.00001   2.07724
   A11        2.06654   0.00000   0.00000   0.00001   0.00001   2.06654
   A12        2.03248  -0.00000   0.00000  -0.00001  -0.00001   2.03247
   A13        1.92761  -0.00000   0.00000  -0.00001  -0.00001   1.92760
   A14        1.92962   0.00000   0.00000   0.00002   0.00002   1.92964
   A15        1.87752  -0.00000   0.00000  -0.00001  -0.00001   1.87751
   A16        1.93091  -0.00000   0.00000  -0.00000  -0.00000   1.93091
   A17        1.93072   0.00000   0.00000  -0.00000  -0.00000   1.93072
   A18        1.86586  -0.00000   0.00000  -0.00000  -0.00000   1.86586
   A19        1.94579  -0.00000   0.00000  -0.00000  -0.00000   1.94579
   A20        1.90273   0.00000   0.00000  -0.00000  -0.00000   1.90273
   A21        1.91281   0.00000   0.00000  -0.00000  -0.00000   1.91281
   A22        1.92517   0.00000   0.00000   0.00000   0.00000   1.92518
   A23        1.91100   0.00000   0.00000   0.00000   0.00000   1.91101
   A24        1.86454  -0.00000   0.00000  -0.00000  -0.00000   1.86453
   A25        1.93762   0.00000   0.00000   0.00000   0.00000   1.93762
   A26        1.94150  -0.00000   0.00000  -0.00000  -0.00000   1.94149
   A27        1.94070   0.00000   0.00000   0.00000   0.00000   1.94070
   A28        1.88071  -0.00000   0.00000  -0.00000  -0.00000   1.88071
   A29        1.87983  -0.00000   0.00000  -0.00000  -0.00000   1.87983
   A30        1.88077   0.00000   0.00000   0.00000   0.00000   1.88077
   A31        2.08457  -0.00000   0.00000  -0.00000  -0.00000   2.08457
   A32        2.09581  -0.00000   0.00000  -0.00000  -0.00000   2.09580
   A33        2.10281   0.00000   0.00000   0.00000   0.00000   2.10281
   A34        2.09393  -0.00000   0.00000  -0.00000  -0.00000   2.09393
   A35        2.09875  -0.00000   0.00000  -0.00000  -0.00000   2.09875
   A36        2.09045   0.00000   0.00000   0.00000   0.00000   2.09046
   A37        2.11806   0.00000   0.00000   0.00000   0.00000   2.11806
   A38        2.08539  -0.00000   0.00000  -0.00000  -0.00000   2.08539
   A39        2.07953   0.00000   0.00000   0.00000   0.00000   2.07953
   A40        2.07185  -0.00000   0.00000  -0.00000  -0.00000   2.07185
   A41        2.09727   0.00000   0.00000   0.00000   0.00000   2.09727
   A42        2.11401   0.00000   0.00000  -0.00000  -0.00000   2.11401
   A43        2.10940  -0.00000   0.00000  -0.00000  -0.00000   2.10940
   A44        2.08842   0.00000   0.00000   0.00000   0.00000   2.08842
   A45        2.08535  -0.00000   0.00000  -0.00000  -0.00000   2.08535
   A46        1.90901  -0.00000   0.00000  -0.00001  -0.00001   1.90901
   A47        1.90127   0.00000   0.00000   0.00000   0.00000   1.90127
   A48        1.91886   0.00000   0.00000   0.00001   0.00001   1.91887
   A49        1.91000  -0.00000   0.00000  -0.00000  -0.00000   1.91000
   A50        1.90448   0.00000   0.00000   0.00001   0.00001   1.90448
   A51        1.92015  -0.00000   0.00000  -0.00001  -0.00001   1.92014
   A52        1.77900  -0.00000   0.00000  -0.00001  -0.00001   1.77899
   A53        1.91944  -0.00000   0.00000  -0.00001  -0.00001   1.91943
   A54        1.91506   0.00000   0.00000  -0.00000  -0.00000   1.91506
   A55        1.83406   0.00000   0.00000   0.00001   0.00001   1.83406
   A56        1.83375   0.00000   0.00000   0.00002   0.00002   1.83376
   A57        2.14301  -0.00000   0.00000   0.00000   0.00000   2.14302
    D1       -0.15119  -0.00000   0.00000  -0.00002  -0.00002  -0.15121
    D2       -3.12515  -0.00000   0.00000  -0.00003  -0.00003  -3.12518
    D3        3.01131  -0.00000   0.00000  -0.00000  -0.00000   3.01131
    D4        0.03736  -0.00000   0.00000  -0.00001  -0.00001   0.03734
    D5       -3.11962  -0.00000   0.00000  -0.00001  -0.00001  -3.11963
    D6        0.02404  -0.00000   0.00000  -0.00001  -0.00001   0.02404
    D7        0.00051  -0.00000   0.00000  -0.00002  -0.00002   0.00049
    D8       -3.13901  -0.00000   0.00000  -0.00002  -0.00002  -3.13903
    D9        3.12254   0.00000   0.00000   0.00001   0.00001   3.12256
   D10       -0.01214   0.00000   0.00000   0.00000   0.00000  -0.01214
   D11        0.00104   0.00000   0.00000   0.00003   0.00003   0.00106
   D12       -3.13365   0.00000   0.00000   0.00002   0.00002  -3.13363
   D13       -0.06264   0.00000   0.00000   0.00005   0.00005  -0.06259
   D14        3.10579   0.00000   0.00000   0.00008   0.00008   3.10587
   D15        2.90950   0.00000   0.00000   0.00007   0.00007   2.90957
   D16       -0.20525   0.00000   0.00000   0.00009   0.00009  -0.20516
   D17       -3.06351   0.00000   0.00000   0.00000   0.00000  -3.06350
   D18       -0.41875  -0.00000   0.00000  -0.00003  -0.00003  -0.41878
   D19        0.10475   0.00000   0.00000   0.00002   0.00002   0.10477
   D20        2.74951  -0.00000   0.00000  -0.00001  -0.00001   2.74950
   D21       -2.98222  -0.00000   0.00000  -0.00000  -0.00000  -2.98223
   D22        1.15799   0.00000   0.00000  -0.00001  -0.00001   1.15798
   D23       -0.87352  -0.00000   0.00000  -0.00002  -0.00002  -0.87353
   D24        0.64673   0.00000   0.00000   0.00003   0.00003   0.64675
   D25       -1.49625   0.00000   0.00000   0.00002   0.00002  -1.49623
   D26        2.75544  -0.00000   0.00000   0.00001   0.00001   2.75545
   D27        3.13601  -0.00000   0.00000  -0.00002  -0.00002   3.13600
   D28        1.00647  -0.00000   0.00000  -0.00002  -0.00002   1.00645
   D29       -1.02861  -0.00000   0.00000  -0.00002  -0.00002  -1.02863
   D30       -1.00495   0.00000   0.00000  -0.00000  -0.00000  -1.00495
   D31       -3.13450   0.00000   0.00000  -0.00000  -0.00000  -3.13450
   D32        1.11361   0.00000   0.00000  -0.00000  -0.00000   1.11360
   D33        1.05934   0.00000   0.00000  -0.00001  -0.00001   1.05934
   D34       -1.07020   0.00000   0.00000  -0.00001  -0.00001  -1.07021
   D35       -3.10528   0.00000   0.00000  -0.00001  -0.00001  -3.10529
   D36       -1.04643  -0.00000   0.00000  -0.00001  -0.00001  -1.04644
   D37       -3.14065  -0.00000   0.00000  -0.00001  -0.00001  -3.14067
   D38        1.04615  -0.00000   0.00000  -0.00001  -0.00001   1.04614
   D39        1.07010  -0.00000   0.00000  -0.00001  -0.00001   1.07009
   D40       -1.02413  -0.00000   0.00000  -0.00001  -0.00001  -1.02414
   D41       -3.12050  -0.00000   0.00000  -0.00001  -0.00001  -3.12052
   D42        3.11715   0.00000   0.00000  -0.00001  -0.00001   3.11714
   D43        1.02292   0.00000   0.00000  -0.00001  -0.00001   1.02291
   D44       -1.07345   0.00000   0.00000  -0.00001  -0.00001  -1.07346
   D45       -0.00264  -0.00000   0.00000   0.00000   0.00000  -0.00264
   D46        3.12833   0.00000   0.00000   0.00001   0.00001   3.12834
   D47        3.13688  -0.00000   0.00000   0.00000   0.00000   3.13688
   D48       -0.01535   0.00000   0.00000   0.00001   0.00001  -0.01534
   D49        0.00331   0.00000   0.00000   0.00002   0.00002   0.00332
   D50       -3.11644   0.00000   0.00000   0.00002   0.00002  -3.11642
   D51       -3.12770   0.00000   0.00000   0.00001   0.00001  -3.12770
   D52        0.03574   0.00000   0.00000   0.00001   0.00001   0.03574
   D53       -0.00175  -0.00000   0.00000  -0.00001  -0.00001  -0.00176
   D54        3.12846  -0.00000   0.00000  -0.00001  -0.00001   3.12845
   D55        3.11807  -0.00000   0.00000  -0.00001  -0.00001   3.11806
[...]
 0.01086509,0.39882717,-0.00084368,0.00034567,0.00005540,0.00117958,-0.
 00008128,-0.00005097,-0.00096927,-0.00032860,0.00011443,0.00026253,0.0
 0021770,-0.00004955,0.00041390,-0.00014412,-0.00007808,-0.00014587,-0.
 00006454,0.00003389,0.00001077,0.00003424,-0.00000041,0.00000123,-0.00
 002285,0.00000184,0.00036610,-0.00031015,-0.00018604,-0.00058092,-0.00
 056047,0.00007289,0.00082908,-0.00044575,0.00221766,0.00012741,0.00044
 208,0.00030266,0.00039041,0.00017356,-0.00017427,-0.00001636,0.0000396
 1,-0.00001157,-0.00002174,0.00004670,0.00000808,0.00003443,0.00001562,
 0.00000614,0.00000751,0.00000603,-0.00000064,-0.00000437,-0.00000018,0
 .00000331,-0.00000089,-0.00000259,-0.00000234,-0.00000248,0.00000579,-
 0.00000302,0.00001684,-0.00000508,-0.00000241,-0.00000066,0.00000590,0
 .00000346,0.00000281,-0.00003447,-0.00001760,0.08427226,-0.10569019,0.
 01506710,0.00000304,0.00010437,-0.00011132,0.00004509,-0.00004109,-0.0
 0004926,0.05449862,-0.04327368,-0.00886066,-0.12527178,0.12995740,0.00
 177502,-0.00073199,-0.00023941,-0.00249469,0.00031596,0.00012480,0.001
 83423,0.00066226,-0.00028048,-0.00046345,-0.00040639,0.00013673,-0.000
 75271,0.00029561,0.00018149,0.00024260,0.00010633,-0.00007093,-0.00002
 016,-0.00006698,-0.00000571,-0.00000483,0.00004145,-0.00000414,-0.0008
 4004,0.00085061,0.00071997,0.00089096,0.00139230,-0.00056559,-0.002394
 68,0.00082446,-0.00541454,-0.00038861,-0.00156214,-0.00047964,-0.00128
 453,-0.00007251,0.00082330,-0.00002430,-0.00009457,-0.00002998,0.00003
 160,-0.00010016,-0.00003716,-0.00005868,-0.00002357,-0.00000381,-0.000
 01791,-0.00001373,-0.00000069,0.00000708,0.00000550,0.00000031,0.00000
 164,0.00000310,0.00000367,0.00000332,-0.00001176,0.00000394,-0.0000297
 5,0.00000790,0.00000282,0.00000315,-0.00000747,-0.00000169,-0.00005868
 ,0.00008304,0.00003152,-0.04555619,0.01768517,-0.08540683,-0.00002513,
 -0.00000928,-0.00044488,-0.00017601,0.00012622,0.00005564,0.02316778,-
 0.01920383,0.01099421,0.01640701,-0.00690627,0.06686032,0.00025235,0.0
 0035441,0.00016958,0.00009678,0.00003077,-0.00002632,0.00014600,-0.000
 36376,0.00009420,-0.00009875,0.00023314,-0.00009709,-0.00014601,0.0001
 3004,0.00001249,0.00005517,0.00001126,-0.00000338,0.00000229,-0.000014
 88,0.00000185,-0.00000154,0.00000795,0.00000287,0.00092461,-0.00022222
 ,-0.00058695,-0.00031863,-0.00044187,-0.00030803,0.00072912,0.00083524
 ,0.00057661,0.00066077,-0.00060664,-0.00005080,-0.00034485,0.00017454,
 -0.00017101,-0.00000254,-0.00000709,0.00003330,-0.00000110,-0.00001590
 ,-0.00000409,-0.00000996,-0.00000808,-0.00000103,0.00000791,-0.0000035
 6,-0.00000456,0.00000137,-0.00000189,0.00000153,-0.00000112,0.00000672
 ,-0.00000616,0.00000410,-0.00000143,-0.00000344,-0.00000938,0.00000550
 ,0.00000188,0.00000154,-0.00000470,-0.00000069,0.00012523,-0.00005065,
 0.00003286,-0.15243921,-0.08176072,0.07447369,-0.00013883,0.00021644,0
 .00004958,0.00003130,-0.00001693,-0.00000164,0.00175527,-0.03047843,0.
 00020918,-0.07391195,-0.02359106,0.03275770,0.22447351,-0.00053314,0.0
 0009553,0.00002842,0.00081242,0.00005864,-0.00009889,-0.00059370,-0.00
 051041,0.00015880,0.00014022,0.00033747,-0.00011947,0.00019798,0.00000
 111,-0.00004333,-0.00006911,-0.00004261,0.00002915,0.00001010,0.000013
 29,0.00000162,-0.00000074,-0.00001166,0.00000303,0.00050947,0.00016803
 ,-0.00022177,0.00004055,-0.00125408,0.00001981,0.00142296,0.00088470,0
 .00045361,-0.00000745,0.00019634,-0.00011595,0.00026551,0.00029525,0.0
 0007018,-0.00002974,0.00001377,0.00001842,-0.00001923,0.00001826,0.000
 00306,0.00001828,0.00000622,0.00000421,0.00001009,0.00000233,-0.000004
 97,-0.00000240,-0.00000178,0.00000443,-0.00000167,0.00000382,-0.000007
 77,0.00000132,0.00000374,-0.00000583,0.00000567,0.00000041,-0.00000042
 ,0.00000109,0.00000069,0.00000248,0.00009232,-0.00007191,0.00002925,-0
 .08466603,-0.15922922,0.08096799,-0.00017907,0.00029575,-0.00019833,0.
 00003413,-0.00002527,0.00000992,-0.03700836,-0.06969242,0.01395963,-0.
 00893712,0.01673353,-0.00198823,0.14059861,0.21736892,0.00104223,-0.00
 030150,-0.00015619,-0.00160640,0.00010180,0.00019508,0.00119018,0.0006
 4822,-0.00027843,-0.00031333,-0.00040469,0.00020608,-0.00045381,0.0001
 3335,0.00013538,0.00014128,0.00007343,-0.00006915,-0.00001709,-0.00003
 878,-0.00000953,-0.00000204,0.00002640,-0.00000422,-0.00068482,0.00002
 600,0.00027341,-0.00056089,0.00171132,-0.00033160,-0.00287568,-0.00160
 993,-0.00060864,-0.00000710,-0.00060240,-0.00003329,-0.00079833,-0.000
 15400,0.00024122,0.00000171,-0.00004249,-0.00006290,0.00002604,-0.0000
 5887,-0.00003224,-0.00003406,-0.00001181,0.00000051,-0.00001771,-0.000
 01091,0.00000290,0.00000393,0.00000810,-0.00000020,0.00000233,-0.00000
 444,0.00000966,-0.00000098,-0.00000952,0.00000654,-0.00001606,0.000002
 27,0.00000047,0.00000167,-0.00000141,0.00000005,-0.00012053,0.00010413
 ,-0.00004881,0.07879651,0.08292313,-0.15496640,0.00025775,-0.00030128,
 -0.00020260,-0.00012049,0.00009431,-0.00004540,-0.00735862,-0.00564749
 ,0.02020007,0.01606346,-0.00078472,0.01031230,-0.10941316,-0.10111958,
 0.14428066,-0.01367828,0.00385253,0.00068357,0.01764668,-0.00258477,-0
 .00140154,-0.01276658,-0.00461137,0.00143795,0.00287571,0.00284817,-0.
 00060300,0.00517905,-0.00206635,-0.00106237,-0.00164215,-0.00070232,0.
 00046131,0.00012445,0.00045626,0.00000874,0.00003330,-0.00027904,0.000
 00725,0.00470427,-0.00951962,0.00167910,-0.03559763,0.00091389,0.00200
 178,-0.14786422,0.02962386,-0.00321293,-0.01101460,0.02600953,0.000090
 17,0.01271037,-0.00094591,0.00048849,0.00024815,0.00071071,0.00000356,
 -0.00018241,0.00068624,0.00019115,0.00042745,0.00017231,0.00003578,0.0
 0010036,0.00008136,0.00000580,-0.00004810,-0.00001689,0.00000534,-0.00
 001008,-0.00004251,0.00000104,-0.00002859,0.00006477,-0.00001421,0.000
 20194,-0.00005546,-0.00002667,-0.00001572,0.00006190,0.00001930,-0.000
 07391,0.00010306,0.00006972,-0.04170273,0.00846549,-0.03347753,0.00087
 929,-0.00351931,-0.00106990,0.00123478,-0.00093583,-0.00006860,0.00342
 033,0.00190865,0.00481570,-0.02994609,0.01159349,-0.02695188,-0.005737
 40,-0.01628583,0.02950225,0.61612719,0.00379898,-0.00605792,-0.0001113
 3,-0.00742593,0.00071026,0.00065536,0.00533895,0.00249368,-0.00069437,
 -0.00128971,-0.00155582,0.00028870,-0.00213857,0.00068890,0.00040100,0
 .00071463,0.00034436,-0.00015221,-0.00006617,-0.00017465,-0.00000853,-
 0.00000643,0.00011510,-0.00000445,-0.00901841,0.00005286,-0.00013979,-
 0.00068938,0.01878284,-0.00061521,0.02917499,-0.08771782,0.00232378,0.
 02795191,-0.00788084,-0.00159709,-0.00251746,-0.00747097,0.00016669,-0
 .00003966,-0.00026086,-0.00000998,0.00009672,-0.00024104,-0.00004854,-
 0.00019038,-0.00007491,-0.00003530,-0.00005024,-0.00002720,0.00000877,
 0.00002040,-0.00000061,-0.00001775,0.00000622,0.00000951,0.00001646,0.
 00000705,-0.00002503,0.00001789,-0.00007609,0.00001560,0.00000992,-0.0
 0000129,-0.00002413,-0.00001946,-0.00097011,0.00084437,0.00015074,0.00
 824973,-0.02130749,0.01002254,0.00207260,-0.00405909,-0.00029098,0.000
 96199,0.00002109,-0.00011004,-0.00723740,-0.02293068,-0.03680874,0.012
 52739,-0.00348361,0.01080947,-0.00795948,-0.01213426,0.02399382,0.1891
 2187,1.03250690,0.00167299,-0.00036487,-0.00065792,-0.00213929,0.00024
 072,-0.00118600,0.00134459,0.00033804,-0.00020715,-0.00044751,-0.00020
 348,-0.00016760,-0.00058784,0.00022150,0.00019718,0.00019646,0.0000842
 1,0.00004972,-0.00001388,-0.00005119,0.00002119,-0.00000389,0.00003022
 ,0.00000620,-0.00015129,0.00071399,0.00680961,0.00339003,0.00072937,-0
 .00391853,0.00412638,-0.00086151,-0.06365582,-0.00021525,-0.00301671,-
 0.00377605,-0.00042413,0.00044135,0.00707010,-0.00000574,-0.00009703,0
 .00018334,0.00003447,-0.00004894,0.00005442,-0.00005397,-0.00003422,-0
 .00002593,-0.00001370,0.00000651,-0.00001095,0.00000528,-0.00001209,-0
 .00001049,0.00000171,0.00001893,-0.00001246,0.00000704,0.00000213,-0.0
 0000421,-0.00002153,0.00000589,0.00000621,-0.00000414,-0.00001462,-0.0
 0001018,0.00009143,0.00006925,0.00101843,-0.04140854,0.01297411,-0.159
 37817,-0.00085401,0.00110334,-0.00235324,-0.00011446,0.00010465,0.0010
 8310,-0.00016960,0.00208101,-0.00162938,0.01021412,-0.00383381,0.00656
 896,-0.00110342,-0.00063513,-0.00286497,-0.08942465,0.02136991,0.52886
 413,0.00211415,-0.00021442,-0.00009892,-0.00272658,0.00039582,0.000308
 03,0.00238140,0.00050702,-0.00024497,-0.00067715,-0.00032186,0.0001390
 8,-0.00105347,0.00045523,0.00021875,0.00034614,0.00014544,-0.00010072,
 -0.00002300,-0.00009309,-0.00000463,-0.00000710,0.00005900,-0.00000075
 ,0.00036730,0.00172963,-0.00086898,-0.00045011,-0.00060088,0.00111448,
 0.00622892,0.02458159,0.00963439,-0.00435116,-0.00335392,0.00223622,-0
 .00135716,0.00206109,-0.00093592,-0.00002153,-0.00009805,-0.00002972,0
 .00003887,-0.00012978,-0.00004358,-0.00008065,-0.00003759,-0.00000477,
 -0.00001492,-0.00002152,-0.00000297,0.00000964,0.00000554,-0.00000004,
 0.00000106,0.00000887,0.00000023,0.00000652,-0.00001531,0.00000274,-0.
 00004422,0.00001380,0.00000566,0.00000461,-0.00001356,-0.00000339,0.00
 014275,-0.00004132,-0.00000665,0.00344555,-0.00619174,0.00349841,-0.00
 001186,0.00057860,0.00040771,-0.00062978,0.00024168,-0.00017263,-0.000
 04466,-0.00223873,-0.00416469,0.00367475,-0.00145764,0.00145447,0.0024
 5251,0.00318430,-0.00390999,-0.08390618,-0.00922673,-0.00488935,0.0610
 6897,-0.00324845,0.00073529,0.00011300,0.00397876,-0.00002936,-0.00038
 214,-0.00300480,-0.00138490,0.00034192,0.00076397,0.00091134,-0.000140
 96,0.00121588,-0.00034799,-0.00019191,-0.00041924,-0.00020420,0.000078
 49,0.00003797,0.00009949,-0.00000022,0.00000278,-0.00006582,0.00000295
 ,0.00175635,0.00088042,0.00056067,-0.00246353,-0.00407223,0.00046784,-
 0.00718606,-0.01541544,-0.00748727,0.00601182,0.00198363,-0.00182893,0
 .00160691,-0.00109776,0.00054238,-0.00012135,0.00013240,0.00000534,-0.
 00006739,0.00012751,0.00001252,0.00011025,0.00004463,0.00002282,0.0000
 2473,0.00001627,-0.00000438,-0.00001312,0.00000316,0.00001338,-0.00000
 426,-0.00000786,-0.00000813,-0.00000535,0.00001344,-0.00000934,0.00004
 456,-0.00000985,-0.00000667,0.00000096,0.00001599,0.00001276,0.0002849
 0,-0.00023779,0.00000299,0.00363529,-0.01971939,0.01308275,-0.00045472
 ,0.00075848,-0.00037709,0.00077581,-0.00028894,0.00011921,-0.00062930,
 -0.00069625,-0.00645829,-0.00662598,0.00561919,-0.00302592,0.00341988,
 0.00753931,-0.00581307,-0.02067732,-0.54981197,-0.16660079,0.01348654,
 0.58158673,-0.00001187,0.00046691,0.00001586,0.00021573,0.00004683,0.0
 0006378,-0.00026077,-0.00001538,0.00000343,0.00012275,0.00000812,0.000
 06377,0.00015546,-0.00003964,0.00000543,-0.00005674,-0.00003065,-0.000
 01846,0.00000397,0.00001031,-0.00000694,-0.00000071,-0.00000772,-0.000
 00366,0.00055989,-0.00009560,-0.00002519,-0.00079095,-0.00021690,0.000
 27342,-0.00350431,-0.00494447,0.00940393,0.00294780,-0.00047032,0.0013
 0186,-0.00090608,-0.00077591,-0.00070148,-0.00003552,-0.00000422,-0.00
 006722,-0.00000961,0.00000130,-0.00002733,0.00001756,0.00001208,0.0000
 0993,-0.00000129,-0.00000153,0.00000069,-0.00000160,0.00000659,0.00000
 595,-0.00000035,-0.00000715,0.00000272,-0.00000185,-0.00000190,0.00000
 117,0.00000500,-0.00000121,-0.00000223,0.00000302,0.00000495,0.0000045
 8,0.00001917,-0.00004019,-0.00010746,0.00714295,-0.02679737,0.01035043
 ,0.00019036,0.00000318,0.00009880,0.00020399,-0.00007006,-0.00025956,-
 0.00256758,-0.00715558,-0.01301587,-0.00342307,0.00321307,-0.00172582,
 -0.00029206,0.00177537,-0.00193590,-0.00807517,-0.17443522,-0.14701132
 ,0.00146763,0.19327809,0.12552959,0.00301956,-0.00243508,-0.00003505,-
 0.00433131,0.00068285,0.00044635,0.00363102,0.00067395,-0.00029867,-0.
 00108638,-0.00038767,0.00019283,-0.00162528,0.00074233,0.00029272,0.00
 053291,0.00022843,-0.00013871,-0.00003524,-0.00014410,-0.00000351,-0.0
 0001073,0.00008916,-0.00000282,-0.00314590,-0.00062347,-0.00116432,-0.
 00270514,0.00824226,0.00237121,-0.01298457,-0.02673180,0.01400606,-0.0
 0043559,-0.00242309,0.00090103,-0.00126328,-0.00009575,-0.00085190,-0.
 00006076,-0.00016183,0.00001266,0.00004522,-0.00020083,-0.00006322,-0.
 00012706,-0.00005853,-0.00000865,-0.00002136,-0.00002860,-0.00000542,0
 .00001499,0.00000470,-0.00000058,0.00000138,0.00001623,-0.00000314,0.0
 0001067,-0.00002101,0.00000266,-0.00006671,0.00002024,0.00000920,0.000
 00639,-0.00002174,-0.00000597,-0.00045882,0.00055412,-0.00027980,-0.00
 603866,-0.00653795,-0.00595744,-0.00165710,0.00022184,0.00058803,-0.00
 033754,0.00029059,0.00001393,0.00154878,0.00252616,0.00098346,0.008696
 71,-0.00119979,0.00300760,0.00116815,0.00074070,0.00115306,-0.28086648
 ,-0.22611346,0.12201078,0.01292701,0.00575998,0.00678754,0.28532740,0.
 00089581,-0.00027646,-0.00004486,-0.00043447,0.00051926,-0.00008731,0.
 00031881,-0.00028730,0.00008858,-0.00010572,0.00019967,-0.00003962,-0.
 00014646,0.00016670,0.00001816,0.00003540,-0.00000137,-0.00001182,0.00
 000354,-0.00001950,0.00000587,-0.00000398,0.00000703,-0.00000075,0.000
 26730,0.00050773,0.00026394,-0.00150840,0.00018178,-0.00015459,0.00452
 830,0.00365410,-0.00113379,-0.00029479,-0.00398550,-0.00062770,-0.0000
 0688,0.00250013,0.00005853,-0.00009690,-0.00004206,0.00003718,-0.00001
 294,-0.00003504,-0.00001198,-0.00000862,-0.00000500,0.00000587,0.00000
 152,-0.00000187,-0.00000679,0.00000127,0.00000025,0.00000497,-0.000001
 09,0.00000715,-0.00000970,0.00000365,-0.00000033,-0.00000569,-0.000007
 73,0.00000374,0.00000183,0.00000301,-0.00000326,0.00000288,-0.00005737
 ,0.00006664,-0.00001648,-0.01558797,-0.01002954,-0.01082095,0.00001814
 ,0.00242066,0.00045776,-0.00034753,0.00009936,0.00000452,0.00227590,0.
 00875821,0.00643505,0.00363157,0.00072917,0.00102890,-0.00076704,-0.00
 121736,0.00713837,-0.21468725,-0.32892692,0.13548649,-0.02526559,-0.00
 767946,0.01629772,0.24647774,0.33223083,-0.00042804,-0.00020200,0.0000
 2817,0.00025486,-0.00005888,0.00014052,-0.00028696,0.00017709,-0.00007
 638,0.00019742,-0.00012598,0.00007243,0.00018489,-0.00010593,-0.000017
 79,-0.00005892,-0.00002583,0.00001022,0.00000165,0.00001755,-0.0000095
 3,0.00000123,-0.00001015,-0.00000549,-0.00000014,0.00107148,-0.0008818
 3,0.00250296,-0.00175065,0.00146649,0.00133646,0.00678151,0.00886019,-
 0.00029808,0.00098546,0.00029985,0.00029430,-0.00037499,-0.00003669,-0
 .00000539,0.00000324,-0.00005993,-0.00000308,0.00001034,-0.00002001,0.
 00001604,0.00001299,0.00000562,-0.00000243,-0.00000011,0.00000576,-0.0
 0000115,0.00000446,0.00000232,0.00000105,-0.00000863,0.00000724,-0.000
 00280,-0.00000134,0.00000330,0.00000783,-0.00000293,-0.00000301,0.0000
 0137,0.00000589,0.00000276,0.00008377,-0.00015432,-0.00024951,0.024673
 26,0.01550842,0.00980093,0.00008253,-0.00025901,-0.00081249,0.00009841
 ,-0.00005417,-0.00012357,-0.00158940,-0.00159978,-0.00218550,-0.004961
 04,-0.00013068,-0.00165826,0.00275420,0.00643153,-0.01374492,0.1245566
 8,0.14365120,-0.16268532,-0.00497966,-0.01536393,0.01847376,-0.1444967
 5,-0.15428644,0.14329710,-0.00497595,0.00190156,0.00107080,0.00026353,
 0.00133720,0.00001282,0.00038371,0.00049410,-0.00013691,0.00000764,-0.
 00038548,0.00003600,-0.00009387,-0.00011218,0.00001059,0.00002532,0.00
 002814,0.00000523,-0.00000953,-0.00000663,-0.00000060,-0.00000009,0.00
 000421,-0.00000068,0.00078599,0.02820635,0.00026534,-0.06557535,0.0424
 2052,0.00210495,0.00836672,-0.02325886,-0.00028965,-0.00445036,-0.0030
 6528,0.00103141,-0.00119049,0.00006236,-0.00004917,-0.00038943,0.00016
 913,-0.00001462,0.00003140,-0.00000849,0.00002405,-0.00001164,-0.00000
 213,-0.00000575,-0.00000584,-0.00000056,0.00000424,0.00000141,-0.00000
 172,-0.00000240,0.00000170,-0.00000136,0.00000204,-0.00000092,0.000000
 30,0.00000200,-0.00000088,-0.00000195,0.00000006,-0.00000155,0.0000003
 0,-0.00000176,0.00084595,-0.00039133,-0.00050062,-0.00076625,-0.000545
 12,-0.00017208,0.00050077,-0.00133051,0.00000708,0.00006869,0.00002395
 ,-0.00005671,0.00006545,0.00042940,0.00034389,0.00006433,0.00005139,-0
 .00004194,0.00027326,0.00024787,0.00012871,-0.00083218,-0.00502652,-0.
 00104909,0.00018942,0.00200353,0.00009673,0.00032772,0.00087875,0.0000
 6490,0.06610132,0.00094069,0.00099809,-0.00018346,-0.00002972,-0.00025
 184,-0.00000658,-0.00008708,-0.00013582,0.00003304,-0.00001961,0.00008
 091,-0.00001634,0.00002197,0.00002008,-0.00000480,0.00000054,-0.000003
 42,0.00000088,0.00000133,0.00000155,0.00000009,0.00000041,-0.00000049,
 -0.00000012,-0.00016092,-0.00428447,0.00000047,0.04141985,-0.34292436,
 -0.00326550,0.00272780,-0.01415364,-0.00012583,-0.00322605,-0.00009552
 ,0.00017563,0.00013071,0.00073388,0.00000637,0.00006497,0.00001718,-0.
 00000192,-0.00000420,0.00000192,-0.00000368,0.00000211,0.00000049,-0.0
 0000068,0.00000199,0.00000074,0.00000012,-0.00000028,-0.00000037,-0.00
 000004,-0.00000028,-0.00000026,0.00000015,0.00000023,0.00000003,0.0000
 0037,-0.00000003,0.00000018,0.00000004,0.00000005,-0.00000004,-0.00000
 047,0.00009432,0.00068175,0.00006442,-0.00059986,-0.00032711,0.0000609
 6,0.00029991,-0.00055363,-0.00001495,0.00004869,-0.00005481,0.00000695
 ,0.00004025,0.00012912,0.00002845,0.00012462,0.00001208,-0.00001347,0.
 00029182,0.00015388,-0.00006778,0.00025568,-0.00241968,-0.00024722,0.0
 0186757,0.00060191,-0.00001351,-0.00008658,0.00045853,-0.00014542,-0.0
 4412091,0.36131312,0.00105990,0.00017029,0.00799774,0.00000280,-0.0001
 7326,-0.00013973,-0.00000403,-0.00006590,0.00012000,0.00006424,0.00002
 299,-0.00001236,0.00000797,0.00000614,-0.00004053,0.00000013,0.0000047
 8,0.00003495,0.00000070,0.00000105,0.00000126,0.00000018,-0.00000057,0
 .00000064,0.00054158,-0.00226201,0.00489956,0.00178339,-0.00388061,-0.
 03964490,-0.00010505,0.00203361,0.00275705,0.00100544,0.00017537,0.005
 93826,-0.00008429,0.00000963,-0.00103161,0.00000516,-0.00002404,-0.000
 30421,-0.00000500,-0.00000573,-0.00000710,0.00000046,0.00000055,-0.000
 00260,0.00000089,-0.00000180,-0.00000054,0.00000002,-0.00000214,-0.000
 00087,-0.00000082,0.00000239,-0.00000172,0.00000079,0.00000110,-0.0000
 0118,0.00000040,0.00000007,-0.00000012,-0.00000088,-0.00000080,-0.0000
 0099,-0.00062435,-0.00007715,-0.00464651,-0.00156070,-0.00079151,0.001
 36824,-0.00000545,0.00013039,0.00050618,-0.00007213,-0.00001491,-0.000
 73040,0.00016576,0.00008939,-0.00021475,-0.00002563,0.00015367,-0.0004
 5044,0.00090229,0.00058875,-0.00046895,-0.00067623,0.00121274,-0.00236
 690,-0.00002548,-0.00095809,-0.00070063,0.00053683,-0.00007816,0.00009
 357,-0.00288886,0.00373378,0.02704960\\0.00000251,0.00000170,0.0000029
 8,-0.00000255,-0.00000094,0.00000217,0.00000448,-0.00000457,-0.0000008
 2,-0.00000024,0.00000242,-0.00000275,-0.00000432,0.00000338,0.00000448
 ,0.00000513,-0.00000037,-0.00000205,-0.00000181,0.00000027,0.00000068,
 0.00000186,0.00000019,-0.00000020,-0.00000138,0.00000006,-0.00000119,-
 0.00000043,-0.00000160,-0.00000129,-0.00000036,0.00000124,0.00000017,0
 .00000220,-0.00000057,0.00000080,-0.00000207,0.00000079,0.00000109,0.,
 0.00000053,-0.00000051,-0.00000105,-0.00000035,0.00000105,-0.00000147,
 0.00000009,-0.00000143,-0.00000003,-0.00000040,-0.00000110,0.00000034,
 -0.00000061,0.00000135,0.00000049,0.00000086,0.00000127,-0.00000064,-0
 .00000134,-0.00000083,0.00000023,-0.00000019,0.00000031,-0.00000022,0.
 00000007,-0.00000092,-0.00000044,0.00000028,-0.00000216,-0.00000075,-0
 .00000245,-0.00000419,0.00000026,0.00000083,0.00000195,0.00000053,0.00
 000025,0.00000201,0.00000049,-0.00000007,0.00000213,-0.00000095,-0.000
 00100,0.00000049,-0.00000117,-0.00000241,-0.00000184,0.00000608,0.0000
 0501,0.00000254,-0.00000138,-0.00000112,-0.00000310,-0.00000278,-0.000
 00117,0.00000093,-0.00000057,0.00000120,-0.00000204\\\@


 EVERYTHING'S GOT A MORAL, IF ONLY YOU CAN FIND IT.

                                    -- LEWIS CARROL, ALICE IN WONDERLAND
 Job cpu time:       0 days  6 hours 19 minutes  3.9 seconds.
 File lengths (MBytes):  RWF=    810 Int=      0 D2E=      0 Chk=     18 Scr=      1
 Normal termination of Gaussian 09 at Thu Nov 14 11:10:24 2019.
pbs_rusage has been removed.
Please contact help@nci.org.au if you require this functionality.
